<event>
12    1  0.9966151E-001  0.2923475E+03  0.7818608E-02  0.1089199E+00
         21   -1    0    0  503  502  0.00000000000E+00  0.00000000000E+00  0.13665984428E+04  0.13665984428E+04  0.00000000000E+00 0. -1.
         21   -1    0    0  501  503 -0.00000000000E+00 -0.00000000000E+00 -0.10896694212E+03  0.10896694212E+03  0.00000000000E+00 0. -1.
          6    2    1    2  501    0  0.62969410797E+02  0.22754626662E+03  0.11113132628E+04  0.11491232364E+04  0.17240821990E+03 0.  0.
         24    2    3    3    0    0  0.43301793906E+02  0.24753110801E+03  0.10078847272E+04  0.10418583260E+04  0.80563349549E+02 0.  0.
         -6    2    1    2    0  502 -0.62969410797E+02 -0.22754626662E+03  0.14631823796E+03  0.32644214855E+03  0.17150218495E+03 0.  0.
        -24    2    5    5    0    0 -0.79727083076E+02 -0.15523768572E+03  0.41057344558E+02  0.19755733125E+03  0.82994257299E+02 0.  0.
          5    1    3    3  501    0  0.19667616891E+02 -0.19984841392E+02  0.10342853555E+03  0.10726491041E+03  0.47000000000E+01 0. -1.
        -13    1    4    4    0    0  0.62153031028E+02  0.13556801047E+03  0.52217447901E+03  0.54305420656E+03  0.00000000000E+00 0.  1.
         14    1    4    4    0    0 -0.18851237122E+02  0.11196309755E+03  0.48571024821E+03  0.49880411944E+03  0.00000000000E+00 0. -1.
         -5    1    5    5    0  502  0.16757672279E+02 -0.72308580898E+02  0.10526089340E+03  0.12888481730E+03  0.47000000000E+01 0.  1.
         13    1    6    6    0    0  0.14168274395E+02 -0.44522455442E+02  0.10714960989E+00  0.46722591098E+02  0.00000000000E+00 0. -1.
        -14    1    6    6    0    0 -0.93895357470E+02 -0.11071523028E+03  0.40950194948E+02  0.15083474015E+03  0.00000000000E+00 0.  1.
</event>
<event>
12    1  0.9966151E-001  0.1884602E+03  0.7818608E-02  0.1160035E+00
         21   -1    0    0  503  502  0.00000000000E+00  0.00000000000E+00  0.60289351209E+03  0.60289351209E+03  0.00000000000E+00 0. -1.
         21   -1    0    0  501  503 -0.00000000000E+00 -0.00000000000E+00 -0.13769249321E+03  0.13769249321E+03  0.00000000000E+00 0.  1.
          6    2    1    2  501    0  0.31502837232E+02  0.66266182533E+02  0.51291874321E+03  0.54617861534E+03  0.17274781335E+03 0.  0.
         24    2    3    3    0    0  0.53971849571E+02  0.43888563719E+02  0.17257152167E+03  0.20432493970E+03  0.84430944092E+02 0.  0.
         -6    2    1    2    0  502 -0.31502837232E+02 -0.66266182533E+02 -0.47717724335E+02  0.19440738995E+03  0.17359036941E+03 0.  0.
        -24    2    5    5    0    0  0.26477319720E+02  0.69063184809E+01 -0.54120402619E+02  0.10071108376E+03  0.80404967001E+02 0.  0.
          5    1    3    3  501    0 -0.22469012339E+02  0.22377618814E+02  0.34034722155E+03  0.34185367565E+03  0.47000000000E+01 0. -1.
        -11    1    4    4    0    0 -0.24623678145E+01 -0.14874989625E+02  0.18906158544E+01  0.15195492750E+02  0.00000000000E+00 0.  1.
         12    1    4    4    0    0  0.56434217386E+02  0.58763553344E+02  0.17068090581E+03  0.18912944695E+03  0.00000000000E+00 0. -1.
         -5    1    5    5    0  502 -0.57980156952E+02 -0.73172501014E+02  0.64026782845E+01  0.93696306192E+02  0.47000000000E+01 0.  1.
         13    1    6    6    0    0 -0.23858072625E+02  0.17167183601E+02 -0.53472538661E+01  0.29874955164E+02  0.00000000000E+00 0. -1.
        -14    1    6    6    0    0  0.50335392345E+02 -0.10260865120E+02 -0.48773148753E+02  0.70836128598E+02  0.00000000000E+00 0.  1.
</event>
<event>
12    1  0.9966151E-001  0.1840187E+03  0.7818608E-02  0.1164159E+00
         21   -1    0    0  503  502  0.00000000000E+00  0.00000000000E+00  0.11972800509E+03  0.11972800509E+03  0.00000000000E+00 0. -1.
         21   -1    0    0  501  503 -0.00000000000E+00 -0.00000000000E+00 -0.28213590965E+03  0.28213590965E+03  0.00000000000E+00 0. -1.
          6    2    1    2  501    0 -0.63276875882E+02  0.24307518689E+02 -0.90140928330E+02  0.20491041839E+03  0.17107914577E+03 0.  0.
         24    2    3    3    0    0 -0.27149910425E+02 -0.47558146044E+02 -0.22967615287E+02  0.10000963009E+03  0.80470614929E+02 0.  0.
         -6    2    1    2    0  502  0.63276875882E+02 -0.24307518689E+02 -0.72266976239E+02  0.19695349635E+03  0.17021558502E+03 0.  0.
        -24    2    5    5    0    0  0.10293352964E+03 -0.30737930140E+02 -0.29968969690E+02  0.13842818784E+03  0.82000562012E+02 0.  0.
          5    1    3    3  501    0 -0.36126965456E+02  0.71865664733E+02 -0.67173313043E+02  0.10490078830E+03  0.47000000000E+01 0. -1.
        -13    1    4    4    0    0 -0.28632348777E+02  0.15307173750E+02 -0.17516415648E+02  0.36890998656E+02  0.00000000000E+00 0.  1.
         14    1    4    4    0    0  0.14824383512E+01 -0.62865319794E+02 -0.54511996387E+01  0.63118631432E+02  0.00000000000E+00 0. -1.
         -5    1    5    5    0  502 -0.39656653760E+02  0.64304114514E+01 -0.42298006548E+02  0.58525308515E+02  0.47000000000E+01 0.  1.
         13    1    6    6    0    0  0.35458990681E+02  0.26401992639E+02 -0.22741642321E+02  0.49715063420E+02  0.00000000000E+00 0. -1.
        -14    1    6    6    0    0  0.67474538960E+02 -0.57139922780E+02 -0.72273273691E+01  0.88713124418E+02  0.00000000000E+00 0.  1.
</event>
<event>
12    1  0.9966151E-001  0.1754037E+03  0.7818608E-02  0.1172343E+00
         21   -1    0    0  503  502  0.00000000000E+00  0.00000000000E+00  0.16805149649E+03  0.16805149649E+03  0.00000000000E+00 0. -1.
         21   -1    0    0  501  503 -0.00000000000E+00 -0.00000000000E+00 -0.22010455294E+03  0.22010455294E+03  0.00000000000E+00 0. -1.
          6    2    1    2  501    0 -0.29831746917E+02  0.12653903334E+02 -0.10570487228E+03  0.20479251600E+03  0.17238445461E+03 0.  0.
         24    2    3    3    0    0 -0.16381980380E+02 -0.47794990856E+02 -0.90421534835E+01  0.89898059065E+02  0.73804945986E+02 0.  0.
         -6    2    1    2    0  502  0.29831746917E+02 -0.12653903334E+02  0.53651815833E+02  0.18336353343E+03  0.17231834974E+03 0.  0.
        -24    2    5    5    0    0  0.54647794403E+02 -0.47282974141E+02  0.78992479471E+02  0.13357148596E+03  0.79871577995E+02 0.  0.
          5    1    3    3  501    0 -0.13449766537E+02  0.60448894190E+02 -0.96662718797E+02  0.11489445693E+03  0.47000000000E+01 0. -1.
        -13    1    4    4    0    0 -0.44030651997E+02 -0.20133653605E+02 -0.14186354288E+02  0.50451114664E+02  0.00000000000E+00 0.  1.
         14    1    4    4    0    0  0.27648671617E+02 -0.27661337251E+02  0.51442008047E+01  0.39446944402E+02  0.00000000000E+00 0. -1.
         -5    1    5    5    0  502 -0.24816047485E+02  0.34629070807E+02 -0.25340663638E+02  0.49792047471E+02  0.47000000000E+01 0.  1.
         11    1    6    6    0    0 -0.16978129105E+02 -0.18952239140E+02  0.39567042892E+02  0.47042482073E+02  0.00000000000E+00 0. -1.
        -12    1    6    6    0    0  0.71625923508E+02 -0.28330735001E+02  0.39425436579E+02  0.86529003886E+02  0.00000000000E+00 0.  1.
</event>
<event>
12    1  0.9966151E-001  0.4164256E+03  0.7818608E-02  0.1038236E+00
         21   -1    0    0  501  502  0.00000000000E+00  0.00000000000E+00  0.86523062936E+03  0.86523062936E+03  0.00000000000E+00 0.  1.
         21   -1    0    0  502  503 -0.00000000000E+00 -0.00000000000E+00 -0.24089129010E+03  0.24089129010E+03  0.00000000000E+00 0. -1.
         -6    2    1    2    0  503 -0.36060878179E+03  0.11737430968E+03  0.53886718169E+03  0.68101988729E+03  0.17203146602E+03 0.  0.
        -24    2    3    3    0    0 -0.12647878292E+03  0.94230895337E+02  0.27747007011E+03  0.32930549472E+03  0.81093309705E+02 0.  0.
          6    2    1    2  501    0  0.36060878179E+03 -0.11737430968E+03  0.85472157566E+02  0.42510203217E+03  0.17201984177E+03 0.  0.
         24    2    5    5    0    0  0.31838630603E+03 -0.56177308359E+02  0.10406066644E+03  0.34832030848E+03  0.77283149271E+02 0.  0.
          5    1    5    5  501    0  0.42222475758E+02 -0.61197001322E+02 -0.18588508879E+02  0.76781723686E+02  0.47000000000E+01 0. -1.
        -11    1    6    6    0    0  0.16382060015E+03 -0.64981213045E+02  0.71069275719E+02  0.19002786384E+03  0.00000000000E+00 0.  1.
         12    1    6    6    0    0  0.15456570588E+03  0.88039046864E+01  0.32991390726E+02  0.15829244465E+03  0.00000000000E+00 0. -1.
         -5    1    3    3    0  503 -0.23412999887E+03  0.23143414344E+02  0.26139711158E+03  0.35171439257E+03  0.47000000000E+01 0.  1.
         11    1    4    4    0    0 -0.65178742806E+02  0.95684867044E+02  0.17285618926E+03  0.20804596718E+03  0.00000000000E+00 0. -1.
        -12    1    4    4    0    0 -0.61300040112E+02 -0.14539717070E+01  0.10461388085E+03  0.12125952754E+03  0.00000000000E+00 0.  1.
</event>
<event>
12    1  0.9966151E-001  0.3987202E+03  0.7818608E-02  0.1044272E+00
         21   -1    0    0  501  502  0.00000000000E+00  0.00000000000E+00  0.52696722871E+03  0.52696722871E+03  0.00000000000E+00 0.  1.
         21   -1    0    0  502  503 -0.00000000000E+00 -0.00000000000E+00 -0.40899772596E+03  0.40899772596E+03  0.00000000000E+00 0.  1.
         -6    2    1    2    0  503 -0.24277546598E+03 -0.26478333428E+03 -0.18117122924E+03  0.43795065712E+03  0.17299601954E+03 0.  0.
        -24    2    3    3    0    0 -0.86743303808E+02 -0.83412716010E+02  0.27563262057E+01  0.13613486487E+03  0.63584763506E+02 0.  0.
          6    2    1    2  501    0  0.24277546598E+03  0.26478333428E+03  0.29914073198E+03  0.49801429754E+03  0.17170591728E+03 0.  0.
         24    2    5    5    0    0  0.18986133823E+03  0.10910875363E+03  0.15557523260E+03  0.27968513643E+03  0.77897847667E+02 0.  0.
          5    1    5    5  501    0  0.52914127755E+02  0.15567458066E+03  0.14356549938E+03  0.21832916111E+03  0.47000000000E+01 0. -1.
        -13    1    6    6    0    0  0.22304234700E+02  0.40172282762E+01  0.51324749982E+02  0.56105676801E+02  0.00000000000E+00 0.  1.
         14    1    6    6    0    0  0.16755710353E+03  0.10509152535E+03  0.10425048262E+03  0.22357945963E+03  0.00000000000E+00 0. -1.
         -5    1    3    3    0  503 -0.15603216217E+03 -0.18137061827E+03 -0.18392755544E+03  0.30181579226E+03  0.47000000000E+01 0.  1.
         13    1    4    4    0    0 -0.94814519954E+02 -0.85585709336E+02  0.31374816650E+01  0.12776756485E+03  0.00000000000E+00 0. -1.
        -14    1    4    4    0    0  0.80712161452E+01  0.21729933263E+01 -0.38115545935E+00  0.83673000151E+01  0.00000000000E+00 0.  1.
</event>
<event>
12    1  0.9966151E-001  0.3002614E+03  0.7818608E-02  0.1085392E+00
         21   -1    0    0  503  502  0.00000000000E+00  0.00000000000E+00  0.12229199125E+03  0.12229199125E+03  0.00000000000E+00 0.  1.
         21   -1    0    0  501  503 -0.00000000000E+00 -0.00000000000E+00 -0.74211571343E+03  0.74211571343E+03  0.00000000000E+00 0.  1.
          6    2    1    2  501    0  0.82130719572E+02  0.22987763745E+03 -0.35994249241E+03  0.46729922739E+03  0.17094088678E+03 0.  0.
         24    2    3    3    0    0  0.99764783796E+02  0.16961213440E+03 -0.18516299277E+03  0.28152287105E+03  0.79047484532E+02 0.  0.
         -6    2    1    2    0  502 -0.82130719572E+02 -0.22987763745E+03 -0.25988122977E+03  0.39710847729E+03  0.17483622580E+03 0.  0.
        -24    2    5    5    0    0 -0.47048024887E+02 -0.36661366722E+02 -0.57168047772E+02  0.11483547664E+03  0.79758564138E+02 0.  0.
          5    1    3    3  501    0 -0.17634064224E+02  0.60265503056E+02 -0.17477949964E+03  0.18577635634E+03  0.47000000000E+01 0. -1.
        -13    1    4    4    0    0  0.54048950052E+02  0.47553380920E+02 -0.10880129009E+03  0.13046200123E+03  0.00000000000E+00 0.  1.
         14    1    4    4    0    0  0.45715833744E+02  0.12205875348E+03 -0.76361702684E+02  0.15106086982E+03  0.00000000000E+00 0. -1.
         -5    1    5    5    0  502 -0.35082694685E+02 -0.19321627073E+03 -0.20271318200E+03  0.28227300065E+03  0.47000000000E+01 0.  1.
         11    1    6    6    0    0 -0.64677162521E+02 -0.39108806287E+02 -0.27873236770E+02  0.80557752010E+02  0.00000000000E+00 0. -1.
        -12    1    6    6    0    0  0.17629137634E+02  0.24474395654E+01 -0.29294811002E+02  0.34277724630E+02  0.00000000000E+00 0.  1.
</event>
<event>
12    1  0.9966151E-001  0.1813847E+03  0.7818608E-02  0.1166654E+00
         21   -1    0    0  501  502  0.00000000000E+00  0.00000000000E+00  0.95685346323E+03  0.95685346323E+03  0.00000000000E+00 0.  1.
         21   -1    0    0  502  503 -0.00000000000E+00 -0.00000000000E+00 -0.60283853033E+02  0.60283853033E+02  0.00000000000E+00 0.  1.
         -6    2    1    2    0  503  0.27194318973E+02  0.49406472483E+02  0.11454272560E+03  0.21452377210E+03  0.17239455414E+03 0.  0.
        -24    2    3    3    0    0 -0.42028603694E+02 -0.19722328103E+01  0.37604134704E+02  0.98881127930E+02  0.81197988172E+02 0.  0.
          6    2    1    2  501    0 -0.27194318973E+02 -0.49406472483E+02  0.78202688460E+03  0.80261354417E+03  0.17158648706E+03 0.  0.
         24    2    5    5    0    0 -0.77923922555E+02 -0.25568785766E+02  0.58550782493E+03  0.59820327339E+03  0.91114448514E+02 0.  0.
          5    1    5    5  501    0  0.50729603582E+02 -0.23837686717E+02  0.19651905966E+03  0.20441027078E+03  0.47000000000E+01 0. -1.
        -13    1    6    6    0    0 -0.45991654679E+02  0.29583148650E+02  0.34906425595E+03  0.35332173690E+03  0.00000000000E+00 0.  1.
         14    1    6    6    0    0 -0.31932267877E+02 -0.55151934416E+02  0.23644356898E+03  0.24488153649E+03  0.00000000000E+00 0. -1.
         -5    1    3    3    0  503  0.69222922667E+02  0.51378705293E+02  0.76938590898E+02  0.11564264417E+03  0.47000000000E+01 0.  1.
         11    1    4    4    0    0 -0.72858073488E+01  0.30325396003E+02 -0.89190923065E+01  0.32438601064E+02  0.00000000000E+00 0. -1.
        -12    1    4    4    0    0 -0.34742796345E+02 -0.32297628813E+02  0.46523227011E+02  0.66442526866E+02  0.00000000000E+00 0.  1.
</event>
<event>
12    1  0.9966151E-001  0.1745715E+03  0.7818608E-02  0.1173584E+00
         21   -1    0    0  503  502  0.00000000000E+00  0.00000000000E+00  0.16284136357E+03  0.16284136357E+03  0.00000000000E+00 0.  1.
         21   -1    0    0  501  503 -0.00000000000E+00 -0.00000000000E+00 -0.19058450852E+03  0.19058450852E+03  0.00000000000E+00 0.  1.
          6    2    1    2  501    0 -0.25974636241E+02  0.34529951284E+01 -0.43048262652E+02  0.17818468891E+03  0.17090940741E+03 0.  0.
         24    2    3    3    0    0 -0.25492999977E+02 -0.12589020148E+02 -0.92788407807E+02  0.12570850129E+03  0.79903455474E+02 0.  0.
         -6    2    1    2    0  502  0.25974636241E+02 -0.34529951284E+01  0.15305117704E+02  0.17524118318E+03  0.17259380276E+03 0.  0.
        -24    2    5    5    0    0 -0.49479390681E+02  0.64994776593E+01  0.26606388266E+02  0.98155707187E+02  0.80225866433E+02 0.  0.
          5    1    3    3  501    0 -0.48163626401E+00  0.16042015276E+02  0.49740145155E+02  0.52476187625E+02  0.47000000000E+01 0. -1.
        -11    1    4    4    0    0 -0.49893094247E+02 -0.18752253129E+02 -0.38131718327E+02  0.65536217419E+02  0.00000000000E+00 0.  1.
         12    1    4    4    0    0  0.24400094270E+02  0.61632329811E+01 -0.54656689480E+02  0.60172283870E+02  0.00000000000E+00 0. -1.
         -5    1    5    5    0  502  0.75454026923E+02 -0.99524727877E+01 -0.11301270561E+02  0.77085475997E+02  0.47000000000E+01 0.  1.
         13    1    6    6    0    0 -0.21786156445E+02 -0.14246059845E+02  0.50012275506E+02  0.56380976712E+02  0.00000000000E+00 0. -1.
        -14    1    6    6    0    0 -0.27693234237E+02  0.20745537504E+02 -0.23405887240E+02  0.41774730476E+02  0.00000000000E+00 0.  1.
</event>
<event>
12    1  0.9966151E-001  0.2032019E+03  0.7818608E-02  0.1147325E+00
         21   -1    0    0  501  502  0.00000000000E+00  0.00000000000E+00  0.13662131989E+03  0.13662131989E+03  0.00000000000E+00 0.  1.
         21   -1    0    0  502  503 -0.00000000000E+00 -0.00000000000E+00 -0.58985843439E+03  0.58985843439E+03  0.00000000000E+00 0.  1.
         -6    2    1    2    0  503 -0.13419633420E+02 -0.10579159237E+03  0.27493880967E+02  0.20505342847E+03  0.17297123304E+03 0.  0.
        -24    2    3    3    0    0 -0.25605807330E+02 -0.38450544280E+02  0.77825399335E+02  0.11997304687E+03  0.78756824902E+02 0.  0.
          6    2    1    2  501    0  0.13419633420E+02  0.10579159237E+03 -0.48073099547E+03  0.52142632581E+03  0.17149686778E+03 0.  0.
         24    2    5    5    0    0  0.70029528773E+02  0.61606185123E+02 -0.36233564587E+03  0.38287460523E+03  0.81279678398E+02 0.  0.
          5    1    5    5  501    0 -0.56609895353E+02  0.44185407248E+02 -0.11839534960E+03  0.13855172057E+03  0.47000000000E+01 0. -1.
        -11    1    6    6    0    0  0.29272603958E+02  0.25748228961E+02 -0.39471053094E+02  0.55478109822E+02  0.00000000000E+00 0.  1.
         12    1    6    6    0    0  0.40756924815E+02  0.35857956163E+02 -0.32286459277E+03  0.32739649541E+03  0.00000000000E+00 0. -1.
         -5    1    3    3    0  503  0.12186173910E+02 -0.67341048091E+02 -0.50331518368E+02  0.85080381604E+02  0.47000000000E+01 0.  1.
         11    1    4    4    0    0 -0.29005981192E+02 -0.59668173376E+02  0.43030253191E+02  0.79077433877E+02  0.00000000000E+00 0. -1.
        -12    1    4    4    0    0  0.34001738613E+01  0.21217629096E+02  0.34795146144E+02  0.40895612991E+02  0.00000000000E+00 0.  1.
</event>
<event>
12    1  0.9966151E-001  0.1869734E+03  0.7818608E-02  0.1161360E+00
         21   -1    0    0  501  502  0.00000000000E+00  0.00000000000E+00  0.20775208822E+03  0.20775208822E+03  0.00000000000E+00 0.  1.
         21   -1    0    0  502  503 -0.00000000000E+00 -0.00000000000E+00 -0.26241322497E+03  0.26241322497E+03  0.00000000000E+00 0.  1.
         -6    2    1    2    0  503 -0.71243998368E+02 -0.24138544960E+02  0.11390938285E+03  0.21842124372E+03  0.17051133555E+03 0.  0.
        -24    2    3    3    0    0 -0.37160703576E+02 -0.15956087201E+02  0.14088490722E+03  0.17394211925E+03  0.93657830194E+02 0.  0.
          6    2    1    2  501    0  0.71243998368E+02  0.24138544960E+02 -0.16857051960E+03  0.25174406947E+03  0.17117441333E+03 0.  0.
         24    2    5    5    0    0  0.69201363920E+02  0.61154560865E+02 -0.56930437237E+02  0.13401575606E+03  0.78679343576E+02 0.  0.
          5    1    5    5  501    0  0.20426344477E+01 -0.37016015906E+02 -0.11164008236E+03  0.11772831341E+03  0.47000000000E+01 0. -1.
        -13    1    6    6    0    0  0.60725696266E+02  0.36901549886E+01 -0.15842808299E+02  0.62866700292E+02  0.00000000000E+00 0.  1.
         14    1    6    6    0    0  0.84756676536E+01  0.57464405877E+02 -0.41087628938E+02  0.71149055768E+02  0.00000000000E+00 0. -1.
         -5    1    3    3    0  503 -0.34083294792E+02 -0.81824577585E+01 -0.26975524374E+02  0.44479124475E+02  0.47000000000E+01 0.  1.
         11    1    4    4    0    0  0.58565307827E+01 -0.82768923408E+01 -0.11549185620E+02  0.15368460824E+02  0.00000000000E+00 0. -1.
        -12    1    4    4    0    0 -0.43017234358E+02 -0.76791948602E+01  0.15243409284E+03  0.15857365842E+03  0.00000000000E+00 0.  1.
</event>
<event>
12    1  0.9966151E-001  0.2536531E+03  0.7818608E-02  0.1111824E+00
         21   -1    0    0  501  502  0.00000000000E+00  0.00000000000E+00  0.25383392533E+03  0.25383392533E+03  0.00000000000E+00 0.  1.
         21   -1    0    0  502  503 -0.00000000000E+00 -0.00000000000E+00 -0.26408700374E+03  0.26408700374E+03  0.00000000000E+00 0.  1.
         -6    2    1    2    0  503  0.17441529845E+03 -0.43056693389E+02 -0.68367538037E+02  0.26270522277E+03  0.17906797210E+03 0.  0.
        -24    2    3    3    0    0  0.18483224841E+03 -0.66508709753E+02 -0.90417792062E+02  0.22854656910E+03  0.73971539113E+02 0.  0.
          6    2    1    2  501    0 -0.17441529845E+03  0.43056693389E+02  0.58114459621E+02  0.25521570630E+03  0.17170670094E+03 0.  0.
         24    2    5    5    0    0 -0.90890083498E+02 -0.42059893750E+02  0.44767829319E+02  0.13512608361E+03  0.78897769225E+02 0.  0.
          5    1    5    5  501    0 -0.83525214951E+02  0.85116587139E+02  0.13346630302E+02  0.12008962270E+03  0.47000000000E+01 0. -1.
        -11    1    6    6    0    0 -0.41014035789E+02 -0.24943057974E+02  0.63113448092E+02  0.79294480280E+02  0.00000000000E+00 0.  1.
         12    1    6    6    0    0 -0.49876047708E+02 -0.17116835777E+02 -0.18345618773E+02  0.55831603328E+02  0.00000000000E+00 0. -1.
         -5    1    3    3    0  503 -0.10416949963E+02  0.23452016364E+02  0.22050254025E+02  0.34158653671E+02  0.47000000000E+01 0.  1.
         11    1    4    4    0    0  0.17169558626E+03 -0.38594149207E+02 -0.90076878780E+02  0.19769351730E+03  0.00000000000E+00 0. -1.
        -12    1    4    4    0    0  0.13136662153E+02 -0.27914560546E+02 -0.34091328164E+00  0.30853051792E+02  0.00000000000E+00 0.  1.
</event>
<event>
12    1  0.9966151E-001  0.6307003E+03  0.7818608E-02  0.9843791E-01
         21   -1    0    0  501  502  0.00000000000E+00  0.00000000000E+00  0.17487926170E+04  0.17487926170E+04  0.00000000000E+00 0.  1.
         21   -1    0    0  502  503 -0.00000000000E+00 -0.00000000000E+00 -0.23067239177E+03  0.23067239177E+03  0.00000000000E+00 0.  1.
         -6    2    1    2    0  503  0.60699317514E+03  0.79765993269E+01  0.64071692351E+03  0.89890059534E+03  0.17029316906E+03 0.  0.
        -24    2    3    3    0    0  0.31996445413E+03  0.44586752721E+02  0.40894663132E+03  0.52813739819E+03  0.85595173231E+02 0.  0.
          6    2    1    2  501    0 -0.60699317514E+03 -0.79765993269E+01  0.87740330172E+03  0.10805644134E+04  0.17110978027E+03 0.  0.
         24    2    5    5    0    0 -0.54864996200E+03  0.20363420577E+02  0.71145526943E+03  0.90232882027E+03  0.81223455937E+02 0.  0.
          5    1    5    5  501    0 -0.58343213137E+02 -0.28340019904E+02  0.16594803229E+03  0.17823559316E+03  0.47000000000E+01 0. -1.
        -13    1    6    6    0    0 -0.20232907544E+03  0.44675039784E+02  0.28687119950E+03  0.35387568304E+03  0.00000000000E+00 0.  1.
         14    1    6    6    0    0 -0.34632088656E+03 -0.24311619207E+02  0.42458406994E+03  0.54845313723E+03  0.00000000000E+00 0. -1.
         -5    1    3    3    0  503  0.28702872101E+03 -0.36610153394E+02  0.23177029219E+03  0.37076319714E+03  0.47000000000E+01 0.  1.
         11    1    4    4    0    0  0.20569680560E+03  0.20397133959E+02  0.19388479049E+03  0.28340524146E+03  0.00000000000E+00 0. -1.
        -12    1    4    4    0    0  0.11426764854E+03  0.24189618763E+02  0.21506184083E+03  0.24473215673E+03  0.00000000000E+00 0.  1.
</event>
<event>
12    1  0.9966151E-001  0.2881211E+03  0.7818608E-02  0.1091362E+00
         21   -1    0    0  501  502  0.00000000000E+00  0.00000000000E+00  0.27111645237E+02  0.27111645237E+02  0.00000000000E+00 0. -1.
         21   -1    0    0  502  503 -0.00000000000E+00 -0.00000000000E+00 -0.34049975038E+04  0.34049975038E+04  0.00000000000E+00 0. -1.
         -6    2    1    2    0  503  0.60848682680E+02 -0.22307932514E+03 -0.11418900290E+04  0.11776267049E+04  0.17153679002E+03 0.  0.
        -24    2    3    3    0    0  0.88189227264E+01 -0.11930901650E+03 -0.36846592732E+03  0.39552549412E+03  0.79755012941E+02 0.  0.
          6    2    1    2  501    0 -0.60848682680E+02  0.22307932514E+03 -0.22359958296E+04  0.22544824442E+04  0.17189180754E+03 0.  0.
         24    2    5    5    0    0  0.40071686503E+01  0.83928816482E+02 -0.13748714671E+04  0.13797674030E+04  0.80165028020E+02 0.  0.
          5    1    5    5  501    0 -0.64855851330E+02  0.13915050866E+03 -0.86112436255E+03  0.87471504119E+03  0.47000000000E+01 0. -1.
        -13    1    6    6    0    0  0.11925480124E+02  0.95108444423E+02 -0.98440676799E+03  0.98906244401E+03  0.00000000000E+00 0.  1.
         14    1    6    6    0    0 -0.79183114738E+01 -0.11179627941E+02 -0.39046469907E+03  0.39070495896E+03  0.00000000000E+00 0. -1.
         -5    1    3    3    0  503  0.52029759954E+02 -0.10377030864E+03 -0.77342410167E+03  0.78210121079E+03  0.47000000000E+01 0.  1.
         13    1    4    4    0    0  0.16565835267E+02  0.64159195777E+01 -0.42084297937E+02  0.45680182301E+02  0.00000000000E+00 0. -1.
        -14    1    4    4    0    0 -0.77469125407E+01 -0.12572493608E+03 -0.32638162938E+03  0.34984531182E+03  0.00000000000E+00 0.  1.
</event>
<event>
12    1  0.9966151E-001  0.5162920E+03  0.7818608E-02  0.1009637E+00
         21   -1    0    0  501  502  0.00000000000E+00  0.00000000000E+00  0.70545230767E+03  0.70545230767E+03  0.00000000000E+00 0. -1.
         21   -1    0    0  502  503 -0.00000000000E+00 -0.00000000000E+00 -0.53805654737E+03  0.53805654737E+03  0.00000000000E+00 0.  1.
         -6    2    1    2    0  503 -0.36366847306E+03  0.32270829342E+03  0.42325124130E+03  0.66729757747E+03  0.17247910798E+03 0.  0.
        -24    2    3    3    0    0 -0.50826705599E+02  0.91890564740E+02  0.12620908758E+03  0.17800939405E+03  0.68785032477E+02 0.  0.
          6    2    1    2  501    0  0.36366847306E+03 -0.32270829342E+03 -0.25585548100E+03  0.57621127758E+03  0.17367212876E+03 0.  0.
         24    2    5    5    0    0  0.17403999950E+03 -0.23291206165E+03 -0.19113251831E+03  0.35659007385E+03  0.78018531942E+02 0.  0.
          5    1    5    5  501    0  0.18962847356E+03 -0.89796231775E+02 -0.64722962681E+02  0.21962120372E+03  0.47000000000E+01 0. -1.
        -13    1    6    6    0    0  0.11141335839E+03 -0.15729446583E+03 -0.16805970553E+03  0.25573140212E+03  0.00000000000E+00 0.  1.
         14    1    6    6    0    0  0.62626641105E+02 -0.75617595817E+02 -0.23072812787E+02  0.10085867173E+03  0.00000000000E+00 0. -1.
         -5    1    3    3    0  503 -0.31284176746E+03  0.23081772868E+03  0.29704215372E+03  0.48928818342E+03  0.47000000000E+01 0.  1.
         13    1    4    4    0    0 -0.23103047895E+02  0.59712378488E+01  0.64179981372E+02  0.68472450755E+02  0.00000000000E+00 0. -1.
        -14    1    4    4    0    0 -0.27723657704E+02  0.85919326892E+02  0.62029106206E+02  0.10953694330E+03  0.00000000000E+00 0.  1.
</event>
<event>
12    1  0.9966151E-001  0.2373289E+03  0.7818608E-02  0.1121752E+00
         21   -1    0    0  503  502  0.00000000000E+00  0.00000000000E+00  0.86234544299E+03  0.86234544299E+03  0.00000000000E+00 0. -1.
         21   -1    0    0  501  503 -0.00000000000E+00 -0.00000000000E+00 -0.13149389246E+03  0.13149389246E+03  0.00000000000E+00 0. -1.
          6    2    1    2  501    0  0.36632175871E+02  0.15677531596E+03  0.71904574346E+03  0.75719996989E+03  0.17436914066E+03 0.  0.
         24    2    3    3    0    0  0.70565062529E+02  0.12921764503E+03  0.38180478335E+03  0.41710524603E+03  0.80779117593E+02 0.  0.
         -6    2    1    2    0  502 -0.36632175871E+02 -0.15677531596E+03  0.11805807068E+02  0.23663936555E+03  0.17302715465E+03 0.  0.
        -24    2    5    5    0    0 -0.76381745269E+01 -0.16804280263E+03 -0.25452814431E+02  0.18787561625E+03  0.79703677422E+02 0.  0.
          5    1    3    3  501    0 -0.33932886658E+02  0.27557670925E+02  0.33724096011E+03  0.34009472386E+03  0.47000000000E+01 0. -1.
        -11    1    4    4    0    0  0.85201746375E+02  0.10961151203E+03  0.35295596359E+03  0.37927817415E+03  0.00000000000E+00 0.  1.
         12    1    4    4    0    0 -0.14636683846E+02  0.19606132998E+02  0.28848819762E+02  0.37827071877E+02  0.00000000000E+00 0. -1.
         -5    1    5    5    0  502 -0.28994001344E+02  0.11267486670E+02  0.37258621499E+02  0.48763749300E+02  0.47000000000E+01 0.  1.
         11    1    6    6    0    0  0.61249097234E+01 -0.14777736808E+02 -0.29921214385E+02  0.33928971316E+02  0.00000000000E+00 0. -1.
        -12    1    6    6    0    0 -0.13763084250E+02 -0.15326506582E+03  0.44683999548E+01  0.15394664493E+03  0.00000000000E+00 0.  1.
</event>
<event>
12    1  0.9966151E-001  0.2050056E+03  0.7818608E-02  0.1145939E+00
         21   -1    0    0  503  502  0.00000000000E+00  0.00000000000E+00  0.59974477958E+03  0.59974477958E+03  0.00000000000E+00 0.  1.
         21   -1    0    0  501  503 -0.00000000000E+00 -0.00000000000E+00 -0.69597283055E+02  0.69597283055E+02  0.00000000000E+00 0.  1.
          6    2    1    2  501    0 -0.10122187863E+03 -0.44518963823E+02  0.27975525447E+03  0.34682892079E+03  0.17262529086E+03 0.  0.
         24    2    3    3    0    0 -0.64826477675E+02  0.36558233900E+02  0.20335291232E+03  0.22953635885E+03  0.76128551885E+02 0.  0.
         -6    2    1    2    0  502  0.10122187863E+03  0.44518963823E+02  0.25039224206E+03  0.32251314185E+03  0.17055979868E+03 0.  0.
        -24    2    5    5    0    0  0.13380228392E+03  0.39898986956E+02  0.23665301355E+03  0.28654533131E+03  0.81293282190E+02 0.  0.
          5    1    3    3  501    0 -0.36395400953E+02 -0.81077197723E+02  0.76402342145E+02  0.11729256194E+03  0.47000000000E+01 0. -1.
        -11    1    4    4    0    0 -0.55791867894E+02 -0.52909954426E+01  0.15568394569E+03  0.16546364586E+03  0.00000000000E+00 0.  1.
         12    1    4    4    0    0 -0.90346097809E+01  0.41849229342E+02  0.47668966632E+02  0.64072712992E+02  0.00000000000E+00 0. -1.
         -5    1    5    5    0  502 -0.32580405288E+02  0.46199768670E+01  0.13739228510E+02  0.35967810540E+02  0.47000000000E+01 0.  1.
         11    1    6    6    0    0  0.12984787033E+03  0.53037884037E+02  0.17968260464E+03  0.22794588170E+03  0.00000000000E+00 0. -1.
        -12    1    6    6    0    0  0.39544135903E+01 -0.13138897081E+02  0.56970408909E+02  0.58599449610E+02  0.00000000000E+00 0.  1.
</event>
<event>
12    1  0.9966151E-001  0.2456108E+03  0.7818608E-02  0.1116322E+00
         21   -1    0    0  503  502  0.00000000000E+00  0.00000000000E+00  0.10398360228E+03  0.10398360228E+03  0.00000000000E+00 0. -1.
         21   -1    0    0  501  503 -0.00000000000E+00 -0.00000000000E+00 -0.65813453722E+03  0.65813453722E+03  0.00000000000E+00 0. -1.
          6    2    1    2  501    0  0.81419575875E+02 -0.15450223969E+03 -0.41017306524E+03  0.47741774345E+03  0.17083813658E+03 0.  0.
         24    2    3    3    0    0  0.89622371186E+02 -0.17503325865E+03 -0.39886169179E+03  0.45214234514E+03  0.81689901735E+02 0.  0.
         -6    2    1    2    0  502 -0.81419575875E+02  0.15450223969E+03 -0.14397786970E+03  0.28470039605E+03  0.17269799982E+03 0.  0.
        -24    2    5    5    0    0  0.24957938856E+02  0.70987510151E+02 -0.62172535048E+02  0.12657042271E+03  0.80576190536E+02 0.  0.
          5    1    3    3  501    0 -0.82027953111E+01  0.20531018957E+02 -0.11311373452E+02  0.25275398310E+02  0.47000000000E+01 0. -1.
        -11    1    4    4    0    0  0.17049925987E+02 -0.45766219965E+02 -0.37565875056E+02  0.61615272739E+02  0.00000000000E+00 0.  1.
         12    1    4    4    0    0  0.72572445198E+02 -0.12926703868E+03 -0.36129581673E+03  0.39052707240E+03  0.00000000000E+00 0. -1.
         -5    1    5    5    0  502 -0.10637751473E+03  0.83514729539E+02 -0.81805334655E+02  0.15812997334E+03  0.47000000000E+01 0.  1.
         13    1    6    6    0    0  0.30312388846E+01 -0.91228794372E+01  0.11888737172E+02  0.15289127181E+02  0.00000000000E+00 0. -1.
        -14    1    6    6    0    0  0.21926699972E+02  0.80110389588E+02 -0.74061272221E+02  0.11128129553E+03  0.00000000000E+00 0.  1.
</event>
<event>
12    1  0.9966151E-001  0.2724180E+03  0.7818608E-02  0.1100040E+00
         21   -1    0    0  501  502  0.00000000000E+00  0.00000000000E+00  0.57091263834E+02  0.57091263834E+02  0.00000000000E+00 0.  1.
         21   -1    0    0  502  503 -0.00000000000E+00 -0.00000000000E+00 -0.14562107409E+04  0.14562107409E+04  0.00000000000E+00 0.  1.
         -6    2    1    2    0  503  0.22000461463E+02 -0.20988535256E+03 -0.95220425076E+03  0.99040623035E+03  0.17226631833E+03 0.  0.
        -24    2    3    3    0    0 -0.48378493718E+02 -0.16426972662E+03 -0.66779453739E+03  0.69385107912E+03  0.78452240836E+02 0.  0.
          6    2    1    2  501    0 -0.22000461463E+02  0.20988535256E+03 -0.44691522629E+03  0.52289577437E+03  0.17073631668E+03 0.  0.
         24    2    5    5    0    0  0.25280327829E+02  0.11410719320E+03 -0.35155353947E+03  0.37963073969E+03  0.82885830449E+02 0.  0.
          5    1    5    5  501    0 -0.47280789293E+02  0.95778159365E+02 -0.95361686823E+02  0.14326503468E+03  0.47000000000E+01 0. -1.
        -11    1    6    6    0    0  0.20240989979E-01  0.42666656631E+02 -0.24612729040E+03  0.24979809262E+03  0.00000000000E+00 0.  1.
         12    1    6    6    0    0  0.25260086839E+02  0.71440536565E+02 -0.10542624907E+03  0.12983264707E+03  0.00000000000E+00 0. -1.
         -5    1    3    3    0  503  0.70378955182E+02 -0.45615625939E+02 -0.28440971337E+03  0.29655515123E+03  0.47000000000E+01 0.  1.
         11    1    4    4    0    0 -0.34426035871E+02 -0.14470805032E+02 -0.15557131076E+03  0.15999058996E+03  0.00000000000E+00 0. -1.
        -12    1    4    4    0    0 -0.13952457847E+02 -0.14979892159E+03 -0.51222322663E+03  0.53386048916E+03  0.00000000000E+00 0.  1.
</event>
<event>
12    1  0.9966151E-001  0.2328578E+03  0.7818608E-02  0.1125019E+00
         21   -1    0    0  503  502  0.00000000000E+00  0.00000000000E+00  0.43258526569E+03  0.43258526569E+03  0.00000000000E+00 0. -1.
         21   -1    0    0  501  503 -0.00000000000E+00 -0.00000000000E+00 -0.25928260902E+03  0.25928260902E+03  0.00000000000E+00 0. -1.
          6    2    1    2  501    0 -0.14165624293E+03 -0.66112167209E+02  0.33615950864E+03  0.40771102332E+03  0.16966954196E+03 0.  0.
         24    2    3    3    0    0 -0.10955710418E+03 -0.10911918093E+03  0.27911450740E+03  0.32924969459E+03  0.81183116653E+02 0.  0.
         -6    2    1    2    0  502  0.14165624293E+03  0.66112167209E+02 -0.16285685198E+03  0.28415685140E+03  0.17258462314E+03 0.  0.
        -24    2    5    5    0    0  0.52281902023E+02  0.98785374020E+02 -0.96294785041E+02  0.16793331672E+03  0.80230703852E+02 0.  0.
          5    1    3    3  501    0 -0.32099138756E+02  0.43007013718E+02  0.57045001247E+02  0.78461328723E+02  0.47000000000E+01 0. -1.
        -13    1    4    4    0    0 -0.66657532063E+02 -0.72928462007E+02  0.96128230967E+02  0.13784927980E+03  0.00000000000E+00 0.  1.
         14    1    4    4    0    0 -0.42899572115E+02 -0.36190718919E+02  0.18298627643E+03  0.19140041480E+03  0.00000000000E+00 0. -1.
         -5    1    5    5    0  502  0.89374340911E+02 -0.32673206811E+02 -0.66562066936E+02  0.11622353467E+03  0.47000000000E+01 0.  1.
         13    1    6    6    0    0  0.35447080038E+02  0.16090425898E+01 -0.99482509274E+01  0.36851759765E+02  0.00000000000E+00 0. -1.
        -14    1    6    6    0    0  0.16834821986E+02  0.97176331430E+02 -0.86346534114E+02  0.13108155696E+03  0.00000000000E+00 0.  1.
</event>
<event>
12    1  0.9966151E-001  0.1815646E+03  0.7818608E-02  0.1166472E+00
         21   -1    0    0  501  502  0.00000000000E+00  0.00000000000E+00  0.10502895397E+04  0.10502895397E+04  0.00000000000E+00 0. -1.
         21   -1    0    0  502  503 -0.00000000000E+00 -0.00000000000E+00 -0.43622160811E+02  0.43622160811E+02  0.00000000000E+00 0. -1.
         -6    2    1    2    0  503  0.55602088173E+02  0.13125156337E+02  0.21290535555E+03  0.27981136281E+03  0.17234223625E+03 0.  0.
        -24    2    3    3    0    0 -0.22848029365E+01  0.55021385462E+02  0.17087508398E+03  0.19677631054E+03  0.80560839620E+02 0.  0.
          6    2    1    2  501    0 -0.55602088173E+02 -0.13125156337E+02  0.79376202335E+03  0.81410033772E+03  0.17157315706E+03 0.  0.
         24    2    5    5    0    0  0.14605386466E+02 -0.34665750913E+02  0.60714848874E+03  0.61350176342E+03  0.79624711889E+02 0.  0.
          5    1    5    5  501    0 -0.70207474639E+02  0.21540594576E+02  0.18661353462E+03  0.20059857430E+03  0.47000000000E+01 0. -1.
        -11    1    6    6    0    0 -0.20903615441E+01 -0.45419647806E+02  0.17224353836E+03  0.17814362331E+03  0.00000000000E+00 0.  1.
         12    1    6    6    0    0  0.16695748010E+02  0.10753896893E+02  0.43490495037E+03  0.43535814011E+03  0.00000000000E+00 0. -1.
         -5    1    3    3    0  503  0.57886891109E+02 -0.41896229125E+02  0.42030271571E+02  0.83035052270E+02  0.47000000000E+01 0.  1.
         13    1    4    4    0    0  0.10709380466E+02 -0.15913733619E+02  0.71265896489E+02  0.73802206946E+02  0.00000000000E+00 0. -1.
        -14    1    4    4    0    0 -0.12994183402E+02  0.70935119081E+02  0.99609187495E+02  0.12297410359E+03  0.00000000000E+00 0.  1.
</event>
<event>
12    1  0.9966151E-001  0.1755630E+03  0.7818608E-02  0.1172325E+00
         21   -1    0    0  501  502  0.00000000000E+00  0.00000000000E+00  0.50720279503E+03  0.50720279503E+03  0.00000000000E+00 0. -1.
         21   -1    0    0  502  503 -0.00000000000E+00 -0.00000000000E+00 -0.60954468202E+02  0.60954468202E+02  0.00000000000E+00 0. -1.
         -6    2    1    2    0  503 -0.34644895266E+02 -0.12672008900E+02  0.24659985399E+03  0.30271085492E+03  0.17164359912E+03 0.  0.
        -24    2    3    3    0    0  0.15929181741E+01  0.54394003628E+02  0.16021042823E+03  0.18740147957E+03  0.80564807532E+02 0.  0.
          6    2    1    2  501    0  0.34644895266E+02  0.12672008900E+02  0.19964847284E+03  0.26544640831E+03  0.17100127018E+03 0.  0.
         24    2    5    5    0    0  0.79338549133E+02  0.49159522311E+01  0.78747054786E+02  0.13622983818E+03  0.77709061299E+02 0.  0.
          5    1    5    5  501    0 -0.44693653867E+02  0.77560566694E+01  0.12090141805E+03  0.12921657013E+03  0.47000000000E+01 0. -1.
        -13    1    6    6    0    0  0.27022047715E+02  0.65066739036E+01 -0.12936876181E+02  0.30657635808E+02  0.00000000000E+00 0.  1.
         14    1    6    6    0    0  0.52316501418E+02 -0.15907216725E+01  0.91683930967E+02  0.10557220237E+03  0.00000000000E+00 0. -1.
         -5    1    3    3    0  503 -0.36237813440E+02 -0.67066012528E+02  0.86389425762E+02  0.11530937535E+03  0.47000000000E+01 0.  1.
         11    1    4    4    0    0  0.97047321441E+01  0.11951660516E+02 -0.53472111879E+01  0.16297750844E+02  0.00000000000E+00 0. -1.
        -12    1    4    4    0    0 -0.81118139700E+01  0.42442343112E+02  0.16555763942E+03  0.17110372873E+03  0.00000000000E+00 0.  1.
</event>
<event>
12    1  0.9966151E-001  0.2546521E+03  0.7818608E-02  0.1110403E+00
         21   -1    0    0  501  502  0.00000000000E+00  0.00000000000E+00  0.16464668749E+04  0.16464668749E+04  0.00000000000E+00 0. -1.
         21   -1    0    0  502  503 -0.00000000000E+00 -0.00000000000E+00 -0.43382526974E+02  0.43382526974E+02  0.00000000000E+00 0. -1.
         -6    2    1    2    0  503  0.38504460325E+02 -0.18336791577E+03  0.10580597502E+04  0.10882685829E+04  0.17242879011E+03 0.  0.
        -24    2    3    3    0    0 -0.48195646769E+00 -0.64029028361E+02  0.25042519363E+03  0.27092081260E+03  0.81150233148E+02 0.  0.
          6    2    1    2  501    0 -0.38504460325E+02  0.18336791577E+03  0.54502459772E+03  0.60158081892E+03  0.17245661357E+03 0.  0.
         24    2    5    5    0    0  0.94294487927E+01  0.11727502219E+03  0.19112183977E+03  0.23835198979E+03  0.80260625860E+02 0.  0.
          5    1    5    5  501    0 -0.47933909118E+02  0.66092893582E+02  0.35390275795E+03  0.36322882913E+03  0.47000000000E+01 0. -1.
        -11    1    6    6    0    0  0.42222434966E+02  0.86559230395E+02  0.11545141815E+03  0.15034714608E+03  0.00000000000E+00 0.  1.
         12    1    6    6    0    0 -0.32792986173E+02  0.30715791791E+02  0.75670421620E+02  0.88004843706E+02  0.00000000000E+00 0. -1.
         -5    1    3    3    0  503  0.38986416793E+02 -0.11933888741E+03  0.80763455656E+03  0.81734777034E+03  0.47000000000E+01 0.  1.
         11    1    4    4    0    0  0.19285599156E+02 -0.77086401940E+02  0.18524472164E+03  0.20156848611E+03  0.00000000000E+00 0. -1.
        -12    1    4    4    0    0 -0.19767555623E+02  0.13057373578E+02  0.65180471990E+02  0.69352326486E+02  0.00000000000E+00 0.  1.
</event>
<event>
12    1  0.9966151E-001  0.1921404E+03  0.7818608E-02  0.1156755E+00
         21   -1    0    0  501  502  0.00000000000E+00  0.00000000000E+00  0.44535277380E+02  0.44535277380E+02  0.00000000000E+00 0.  1.
         21   -1    0    0  502  503 -0.00000000000E+00 -0.00000000000E+00 -0.82572694717E+03  0.82572694717E+03  0.00000000000E+00 0.  1.
         -6    2    1    2    0  503  0.78310880820E+02  0.26810924263E+02 -0.37589806929E+03  0.42173036859E+03  0.17235349020E+03 0.  0.
        -24    2    3    3    0    0  0.79465173084E+02  0.19351204559E+02 -0.11394759198E+03  0.15962900962E+03  0.76211443662E+02 0.  0.
          6    2    1    2  501    0 -0.78310880820E+02 -0.26810924263E+02 -0.40529360050E+03  0.44853185596E+03  0.17339695351E+03 0.  0.
         24    2    5    5    0    0 -0.90589437686E+02 -0.62325750022E+02 -0.38014404511E+03  0.40307136824E+03  0.76590387932E+02 0.  0.
          5    1    5    5  501    0  0.12278556866E+02  0.35514825759E+02 -0.25149555390E+02  0.45460487719E+02  0.47000000000E+01 0. -1.
        -11    1    6    6    0    0 -0.78410630208E+02 -0.48443633618E+02 -0.18141057265E+03  0.20348171524E+03  0.00000000000E+00 0.  1.
         12    1    6    6    0    0 -0.12178807478E+02 -0.13882116404E+02 -0.19873347246E+03  0.19958965300E+03  0.00000000000E+00 0. -1.
         -5    1    3    3    0  503 -0.11542922641E+01  0.74597197039E+01 -0.26195047731E+03  0.26210135896E+03  0.47000000000E+01 0.  1.
         11    1    4    4    0    0  0.62634699176E+02 -0.18199157231E+02 -0.92616915178E+02  0.11327933546E+03  0.00000000000E+00 0. -1.
        -12    1    4    4    0    0  0.16830473908E+02  0.37550361790E+02 -0.21330676799E+02  0.46349674165E+02  0.00000000000E+00 0.  1.
</event>
<event>
12    1  0.9966151E-001  0.4783702E+03  0.7818608E-02  0.1019757E+00
         21   -1    0    0  503  502  0.00000000000E+00  0.00000000000E+00  0.13892251913E+03  0.13892251913E+03  0.00000000000E+00 0.  1.
         21   -1    0    0  501  503 -0.00000000000E+00 -0.00000000000E+00 -0.18505405149E+04  0.18505405149E+04  0.00000000000E+00 0. -1.
          6    2    1    2  501    0 -0.98332871918E+02  0.43238336115E+03 -0.11943801917E+04  0.12866165404E+04  0.17948079337E+03 0.  0.
         24    2    3    3    0    0 -0.39635501776E+01  0.31047038067E+03 -0.74261751062E+03  0.80924880621E+03  0.83637887786E+02 0.  0.
         -6    2    1    2    0  502  0.98332871918E+02 -0.43238336115E+03 -0.51723780413E+03  0.70284649362E+03  0.17272383413E+03 0.  0.
        -24    2    5    5    0    0  0.68037069856E+02 -0.35146276967E+03 -0.49013906087E+03  0.61216899016E+03  0.79746173441E+02 0.  0.
          5    1    3    3  501    0 -0.94369321741E+02  0.12191298048E+03 -0.45176268104E+03  0.47736773422E+03  0.47000000000E+01 0. -1.
        -11    1    4    4    0    0 -0.91530736735E+01  0.71463114917E+02 -0.27216555522E+03  0.28154013035E+03  0.00000000000E+00 0.  1.
         12    1    4    4    0    0  0.51895234958E+01  0.23900726575E+03 -0.47045195540E+03  0.52770867586E+03  0.00000000000E+00 0. -1.
         -5    1    5    5    0  502  0.30295802062E+02 -0.80920591477E+02 -0.27098743251E+02  0.90677503458E+02  0.47000000000E+01 0.  1.
         11    1    6    6    0    0  0.59744729037E+02 -0.20687496876E+03 -0.23457080199E+03  0.31841819435E+03  0.00000000000E+00 0. -1.
        -12    1    6    6    0    0  0.82923408186E+01 -0.14458780091E+03 -0.25556825889E+03  0.29375079581E+03  0.00000000000E+00 0.  1.
</event>
<event>
12    1  0.9966151E-001  0.2345585E+03  0.7818608E-02  0.1124011E+00
         21   -1    0    0  503  502  0.00000000000E+00  0.00000000000E+00  0.11960931852E+03  0.11960931852E+03  0.00000000000E+00 0. -1.
         21   -1    0    0  501  503 -0.00000000000E+00 -0.00000000000E+00 -0.75664722211E+03  0.75664722211E+03  0.00000000000E+00 0. -1.
          6    2    1    2  501    0  0.10100877170E+03 -0.12464628005E+03 -0.59438110576E+03  0.63785083419E+03  0.16680923445E+03 0.  0.
         24    2    3    3    0    0  0.21450646788E+02 -0.77559597599E+02 -0.17993438713E+03  0.21319235554E+03  0.81234077587E+02 0.  0.
         -6    2    1    2    0  502 -0.10100877170E+03  0.12464628005E+03 -0.42656797825E+02  0.23840570644E+03  0.17110877059E+03 0.  0.
        -24    2    5    5    0    0 -0.11860957415E+03  0.13115409848E+03 -0.21483774569E+02  0.20972597734E+03  0.11069690318E+03 0.  0.
          5    1    3    3  501    0  0.79558124917E+02 -0.47086682451E+02 -0.41444671864E+03  0.42465847865E+03  0.47000000000E+01 0. -1.
        -13    1    4    4    0    0  0.16314783972E+02 -0.25156531676E+02 -0.14928736485E+03  0.15226864603E+03  0.00000000000E+00 0.  1.
         14    1    4    4    0    0  0.51358628157E+01 -0.52403065923E+02 -0.30647022279E+02  0.60923709502E+02  0.00000000000E+00 0. -1.
         -5    1    5    5    0  502  0.17600802447E+02 -0.65078184317E+01 -0.21173023255E+02  0.28679729101E+02  0.47000000000E+01 0. -1.
         11    1    6    6    0    0 -0.31488450665E+01 -0.18874777388E+02  0.48250523828E+00  0.19141715127E+02  0.00000000000E+00 0. -1.
        -12    1    6    6    0    0 -0.11546072909E+03  0.15002887587E+03 -0.21966279808E+02  0.19058426222E+03  0.00000000000E+00 0.  1.
</event>
<event>
12    1  0.9966151E-001  0.2416072E+03  0.7818608E-02  0.1118766E+00
         21   -1    0    0  501  502  0.00000000000E+00  0.00000000000E+00  0.57961088236E+03  0.57961088236E+03  0.00000000000E+00 0. -1.
         21   -1    0    0  502  503 -0.00000000000E+00 -0.00000000000E+00 -0.10099907862E+03  0.10099907862E+03  0.00000000000E+00 0. -1.
         -6    2    1    2    0  503  0.13902558888E+03  0.97526312982E+02  0.21814131735E+03  0.32533696457E+03  0.17151970759E+03 0.  0.
        -24    2    3    3    0    0  0.10749282245E+03  0.58790191157E+02  0.47916517157E+02  0.14787323561E+03  0.67524127096E+02 0.  0.
          6    2    1    2  501    0 -0.13902558888E+03 -0.97526312982E+02  0.26047048639E+03  0.35527299640E+03  0.17185613637E+03 0.  0.
         24    2    5    5    0    0 -0.14461644922E+03 -0.11586537969E+03  0.26673918043E+03  0.33456151137E+03  0.80267745191E+02 0.  0.
          5    1    5    5  501    0  0.55908603394E+01  0.18339066711E+02 -0.62686940443E+01  0.20711485031E+02  0.47000000000E+01 0. -1.
        -11    1    6    6    0    0 -0.70263926551E+02 -0.63813151918E+02  0.20165344287E+03  0.22287496215E+03  0.00000000000E+00 0.  1.
         12    1    6    6    0    0 -0.74352522669E+02 -0.52052227775E+02  0.65085737567E+02  0.11168654923E+03  0.00000000000E+00 0. -1.
         -5    1    3    3    0  503  0.31532766432E+02  0.38736121825E+02  0.17022480020E+03  0.17746372896E+03  0.47000000000E+01 0.  1.
         13    1    4    4    0    0  0.51983732420E+02  0.50827213494E+02  0.55255781224E+02  0.91317662183E+02  0.00000000000E+00 0. -1.
        -14    1    4    4    0    0  0.55509090028E+02  0.79629776623E+01 -0.73392640661E+01  0.56555573430E+02  0.00000000000E+00 0.  1.
</event>
<event>
12    1  0.9966151E-001  0.1990176E+03  0.7818608E-02  0.1150960E+00
         21   -1    0    0  501  502  0.00000000000E+00  0.00000000000E+00  0.49312083144E+02  0.49312083144E+02  0.00000000000E+00 0.  1.
         21   -1    0    0  502  503 -0.00000000000E+00 -0.00000000000E+00 -0.79863682620E+03  0.79863682620E+03  0.00000000000E+00 0.  1.
         -6    2    1    2    0  503  0.71523679363E+02  0.71913391754E+02 -0.34794405144E+03  0.39993724874E+03  0.16910815289E+03 0.  0.
        -24    2    3    3    0    0  0.16929368430E+02  0.98537184387E+02 -0.17776981075E+03  0.21918679282E+03  0.80278043771E+02 0.  0.
          6    2    1    2  501    0 -0.71523679363E+02 -0.71913391754E+02 -0.40138069162E+03  0.44801166061E+03  0.17123322052E+03 0.  0.
         24    2    5    5    0    0 -0.62751109560E+02 -0.21551076532E+02 -0.11223364700E+03  0.15434275829E+03  0.82602329671E+02 0.  0.
          5    1    5    5  501    0 -0.87725698027E+01 -0.50362315222E+02 -0.28914704462E+03  0.29366890232E+03  0.47000000000E+01 0. -1.
        -11    1    6    6    0    0  0.13505167799E+02 -0.20277821597E+02 -0.51054934807E+02  0.56570186266E+02  0.00000000000E+00 0.  1.
         12    1    6    6    0    0 -0.76256277359E+02 -0.12732549348E+01 -0.61178712196E+02  0.97772572027E+02  0.00000000000E+00 0. -1.
         -5    1    3    3    0  503  0.54594310933E+02 -0.26623792633E+02 -0.17017424068E+03  0.18075045591E+03  0.47000000000E+01 0.  1.
         11    1    4    4    0    0 -0.98803192265E+01 -0.10986466737E+02 -0.14011685715E+02  0.20362968741E+02  0.00000000000E+00 0. -1.
        -12    1    4    4    0    0  0.26809687656E+02  0.10952365112E+03 -0.16375812504E+03  0.19882382408E+03  0.00000000000E+00 0.  1.
</event>
<event>
12    1  0.9966151E-001  0.1798878E+03  0.7818608E-02  0.1167936E+00
         21   -1    0    0  503  502  0.00000000000E+00  0.00000000000E+00  0.93995480932E+03  0.93995480932E+03  0.00000000000E+00 0.  1.
         21   -1    0    0  501  503 -0.00000000000E+00 -0.00000000000E+00 -0.34408601310E+02  0.34408601310E+02  0.00000000000E+00 0.  1.
          6    2    1    2  501    0  0.35482834958E+02 -0.39296329815E+02  0.45030390058E+03  0.48486859352E+03  0.17181593926E+03 0.  0.
         24    2    3    3    0    0  0.32830732707E+02 -0.68494492986E+02  0.17890397149E+03  0.21184922077E+03  0.84285875150E+02 0.  0.
         -6    2    1    2    0  502 -0.35482834958E+02  0.39296329815E+02  0.45524230743E+03  0.48949481712E+03  0.17191970334E+03 0.  0.
        -24    2    5    5    0    0  0.39469934672E+02 -0.19689655330E+01  0.17596675197E+03  0.19736870025E+03  0.80177013369E+02 0.  0.
          5    1    3    3  501    0  0.26521022514E+01  0.29198163171E+02  0.27139992910E+03  0.27301937274E+03  0.47000000000E+01 0. -1.
        -13    1    4    4    0    0  0.37839391025E+01  0.19839734718E+02  0.37874351775E+02  0.42923184775E+02  0.00000000000E+00 0.  1.
         14    1    4    4    0    0  0.29046793605E+02 -0.88334227704E+02  0.14102961971E+03  0.16892603600E+03  0.00000000000E+00 0. -1.
         -5    1    5    5    0  502 -0.74952769630E+02  0.41265295348E+02  0.27927555546E+03  0.29212611686E+03  0.47000000000E+01 0.  1.
         13    1    6    6    0    0  0.44986920726E+02  0.14271118159E+02  0.17378398382E+03  0.18007876300E+03  0.00000000000E+00 0. -1.
        -14    1    6    6    0    0 -0.55169860541E+01 -0.16240083692E+02  0.21827681462E+01  0.17289937254E+02  0.00000000000E+00 0.  1.
</event>
<event>
12    1  0.9966151E-001  0.1891411E+03  0.7818608E-02  0.1159513E+00
         21   -1    0    0  503  502  0.00000000000E+00  0.00000000000E+00  0.79977342123E+02  0.79977342123E+02  0.00000000000E+00 0. -1.
         21   -1    0    0  501  503 -0.00000000000E+00 -0.00000000000E+00 -0.52827989287E+03  0.52827989287E+03  0.00000000000E+00 0. -1.
          6    2    1    2  501    0 -0.71845767934E+02 -0.30774208834E+02 -0.10360923826E+03  0.21565997126E+03  0.17223670529E+03 0.  0.
         24    2    3    3    0    0 -0.93435193691E+02 -0.50353333953E+02 -0.12159306906E+03  0.18109187014E+03  0.82120626679E+02 0.  0.
         -6    2    1    2    0  502  0.71845767934E+02  0.30774208834E+02 -0.34469331249E+03  0.39259726373E+03  0.17091010947E+03 0.  0.
        -24    2    5    5    0    0  0.13595215463E+02 -0.27109928242E+02 -0.25793310736E+03  0.27304341235E+03  0.84281902333E+02 0.  0.
          5    1    3    3  501    0  0.21589425757E+02  0.19579125118E+02  0.17983830799E+02  0.34568101121E+02  0.47000000000E+01 0. -1.
        -11    1    4    4    0    0 -0.90979267634E+02 -0.19734350588E+02 -0.55942466998E+02  0.10861045689E+03  0.00000000000E+00 0.  1.
         12    1    4    4    0    0 -0.24559260567E+01 -0.30618983365E+02 -0.65650602060E+02  0.72481413245E+02  0.00000000000E+00 0. -1.
         -5    1    5    5    0  502  0.58250552470E+02  0.57884137076E+02 -0.86760205125E+02  0.11955385139E+03  0.47000000000E+01 0.  1.
         13    1    6    6    0    0  0.26363398320E+02 -0.46957057628E+02 -0.23117863731E+03  0.23736797673E+03  0.00000000000E+00 0. -1.
        -14    1    6    6    0    0 -0.12768182856E+02  0.19847129386E+02 -0.26754470053E+02  0.35675435612E+02  0.00000000000E+00 0.  1.
</event>
<event>
12    1  0.9966151E-001  0.1815710E+03  0.7818608E-02  0.1166477E+00
         21   -1    0    0  501  502  0.00000000000E+00  0.00000000000E+00  0.16433066115E+03  0.16433066115E+03  0.00000000000E+00 0.  1.
         21   -1    0    0  502  503 -0.00000000000E+00 -0.00000000000E+00 -0.53795471841E+03  0.53795471841E+03  0.00000000000E+00 0.  1.
         -6    2    1    2    0  503  0.46114788108E+02 -0.33743489437E+02  0.91453176878E+02  0.20330205184E+03  0.17234513036E+03 0.  0.
        -24    2    3    3    0    0  0.89219699662E+02  0.62583801436E+01  0.79168210834E+02  0.14304266783E+03  0.78703729797E+02 0.  0.
          6    2    1    2  501    0 -0.46114788108E+02  0.33743489437E+02 -0.46507723413E+03  0.49898332772E+03  0.17152938777E+03 0.  0.
         24    2    5    5    0    0  0.29254896068E+02  0.29500762861E+01 -0.32305787419E+03  0.33521394052E+03  0.84483394485E+02 0.  0.
          5    1    5    5  501    0 -0.75369684176E+02  0.30793413151E+02 -0.14201935994E+03  0.16376938720E+03  0.47000000000E+01 0. -1.
        -11    1    6    6    0    0  0.43004626222E+02 -0.26619565255E+02 -0.13132370732E+03  0.14072638429E+03  0.00000000000E+00 0.  1.
         12    1    6    6    0    0 -0.13749730155E+02  0.29569641541E+02 -0.19173416688E+03  0.19448755623E+03  0.00000000000E+00 0. -1.
         -5    1    3    3    0  503 -0.43104911554E+02 -0.40001869581E+02  0.12284966043E+02  0.60259384005E+02  0.47000000000E+01 0.  1.
         13    1    4    4    0    0  0.19594180443E+02 -0.96164383737E+01  0.67172676391E+02  0.70629853800E+02  0.00000000000E+00 0. -1.
        -14    1    4    4    0    0  0.69625519219E+02  0.15874818517E+02  0.11995534443E+02  0.72412814032E+02  0.00000000000E+00 0.  1.
</event>
<event>
12    1  0.9966151E-001  0.1750499E+03  0.7818608E-02  0.1173162E+00
         21   -1    0    0  501  502  0.00000000000E+00  0.00000000000E+00  0.13231025581E+03  0.13231025581E+03  0.00000000000E+00 0.  1.
         21   -1    0    0  502  503 -0.00000000000E+00 -0.00000000000E+00 -0.22923456351E+03  0.22923456351E+03  0.00000000000E+00 0.  1.
         -6    2    1    2    0  503 -0.24918574537E+02  0.22598947220E+02 -0.44101196110E+02  0.18051972439E+03  0.17178709970E+03 0.  0.
        -24    2    3    3    0    0  0.26465217365E+02 -0.12392849807E+02 -0.77408435061E+02  0.10983604808E+03  0.72235041243E+02 0.  0.
          6    2    1    2  501    0  0.24918574537E+02 -0.22598947220E+02 -0.52823111596E+02  0.18102509493E+03  0.16984744950E+03 0.  0.
         24    2    5    5    0    0 -0.72199758639E+01 -0.54707615342E+02  0.16180039482E+02  0.98276210651E+02  0.79695474616E+02 0.  0.
          5    1    5    5  501    0  0.32138550401E+02  0.32108668122E+02 -0.69003151079E+02  0.82748884278E+02  0.47000000000E+01 0. -1.
        -11    1    6    6    0    0 -0.74742818498E+01 -0.62765724533E+02 -0.15916740788E+02  0.65182387979E+02  0.00000000000E+00 0.  1.
         12    1    6    6    0    0  0.25430598598E+00  0.80581091911E+01  0.32096780271E+02  0.33093822671E+02  0.00000000000E+00 0. -1.
         -5    1    3    3    0  503 -0.51383791902E+02  0.34991797027E+02  0.33307238952E+02  0.70683676305E+02  0.47000000000E+01 0.  1.
         11    1    4    4    0    0 -0.17000914518E+02 -0.30455534527E+01  0.34012714282E+01  0.17603270651E+02  0.00000000000E+00 0. -1.
        -12    1    4    4    0    0  0.43466131883E+02 -0.93472963540E+01 -0.80809706489E+02  0.92232777432E+02  0.00000000000E+00 0.  1.
</event>
<event>
12    1  0.9966151E-001  0.1775556E+03  0.7818608E-02  0.1170378E+00
         21   -1    0    0  503  502  0.00000000000E+00  0.00000000000E+00  0.11693979399E+03  0.11693979399E+03  0.00000000000E+00 0. -1.
         21   -1    0    0  501  503 -0.00000000000E+00 -0.00000000000E+00 -0.29625997458E+03  0.29625997458E+03  0.00000000000E+00 0. -1.
          6    2    1    2  501    0  0.29459429244E+02 -0.33343204166E+02 -0.15315071992E+03  0.23448052567E+03  0.17189050780E+03 0.  0.
         24    2    3    3    0    0  0.48488597663E+01 -0.86860702767E+02 -0.96096672416E+02  0.15234005378E+03  0.80028922331E+02 0.  0.
         -6    2    1    2    0  502 -0.29459429244E+02  0.33343204166E+02 -0.26169460675E+02  0.17871924289E+03  0.17110260043E+03 0.  0.
        -24    2    5    5    0    0  0.26726207245E+02  0.27998511633E+02 -0.65156353394E+02  0.10996272110E+03  0.79675861061E+02 0.  0.
          5    1    3    3  501    0  0.24610569478E+02  0.53517498601E+02 -0.57054047501E+02  0.82140471893E+02  0.47000000000E+01 0. -1.
        -13    1    4    4    0    0 -0.19367788010E+02 -0.68735626449E+02 -0.26004551325E+02  0.75999567402E+02  0.00000000000E+00 0.  1.
         14    1    4    4    0    0  0.24216647777E+02 -0.18125076318E+02 -0.70092121091E+02  0.76340486376E+02  0.00000000000E+00 0. -1.
         -5    1    5    5    0  502 -0.56185636489E+02  0.53446925336E+01  0.38986892719E+02  0.68756521798E+02  0.47000000000E+01 0.  1.
         11    1    6    6    0    0  0.42170311447E+02  0.25257480236E+02 -0.69071091192E+01  0.49638529710E+02  0.00000000000E+00 0. -1.
        -12    1    6    6    0    0 -0.15444104203E+02  0.27410313969E+01 -0.58249244274E+02  0.60324191385E+02  0.00000000000E+00 0.  1.
</event>
<event>
12    1  0.9966151E-001  0.9398652E+03  0.7818608E-02  0.9377080E-01
         21   -1    0    0  503  502  0.00000000000E+00  0.00000000000E+00  0.18369744976E+04  0.18369744976E+04  0.00000000000E+00 0. -1.
         21   -1    0    0  501  503 -0.00000000000E+00 -0.00000000000E+00 -0.50966679223E+03  0.50966679223E+03  0.00000000000E+00 0.  1.
          6    2    1    2  501    0 -0.36795792335E+03 -0.84736970672E+03  0.94258184826E+03  0.13310820077E+04  0.17288816443E+03 0.  0.
         24    2    3    3    0    0 -0.15589478910E+03 -0.45348928040E+03  0.56846838988E+03  0.74790490522E+03  0.79055197506E+02 0.  0.
         -6    2    1    2    0  502  0.36795792335E+03  0.84736970672E+03  0.38472585709E+03  0.10155592821E+04  0.17296883269E+03 0.  0.
        -24    2    5    5    0    0  0.70105061007E+02  0.18660223707E+03  0.70744227960E+02  0.22566275089E+03  0.78637248752E+02 0.  0.
          5    1    3    3  501    0 -0.21206313425E+03 -0.39388042632E+03  0.37411345838E+03  0.58317710251E+03  0.47000000000E+01 0. -1.
        -13    1    4    4    0    0 -0.14956045798E+01 -0.72012282102E+02  0.11347421360E+03  0.13440387926E+03  0.00000000000E+00 0.  1.
         14    1    4    4    0    0 -0.15439918452E+03 -0.38147699830E+03  0.45499417627E+03  0.61350102596E+03  0.00000000000E+00 0. -1.
         -5    1    5    5    0  502  0.29785286234E+03  0.66076746965E+03  0.31398162913E+03  0.78989653119E+03  0.47000000000E+01 0.  1.
         13    1    6    6    0    0  0.42206458077E+02  0.17888748822E+03  0.70089933689E+02  0.19670972866E+03  0.00000000000E+00 0. -1.
        -14    1    6    6    0    0  0.27898602930E+02  0.77147488503E+01  0.65429427126E+00  0.28953022230E+02  0.00000000000E+00 0.  1.
</event>
<event>
12    1  0.9966151E-001  0.3202481E+03  0.7818608E-02  0.1075917E+00
         21   -1    0    0  503  502  0.00000000000E+00  0.00000000000E+00  0.41878334407E+03  0.41878334407E+03  0.00000000000E+00 0. -1.
         21   -1    0    0  501  503 -0.00000000000E+00 -0.00000000000E+00 -0.44561581197E+03  0.44561581197E+03  0.00000000000E+00 0.  1.
          6    2    1    2  501    0  0.23080463872E+03 -0.13238145373E+03  0.27849923945E+03  0.42192167288E+03  0.17222206920E+03 0.  0.
         24    2    3    3    0    0  0.16377187121E+03 -0.13542716804E+03  0.27136361678E+03  0.35427793401E+03  0.81932279214E+02 0.  0.
         -6    2    1    2    0  502 -0.23080463872E+03  0.13238145373E+03 -0.30533170735E+03  0.44247748317E+03  0.17822244821E+03 0.  0.
        -24    2    5    5    0    0 -0.14134692998E+03  0.70167343304E+02 -0.84146513410E+02  0.19586390445E+03  0.79872540111E+02 0.  0.
          5    1    3    3  501    0  0.67032767515E+02  0.30457143071E+01  0.71356226786E+01  0.67643738863E+02  0.47000000000E+01 0. -1.
        -11    1    4    4    0    0  0.24331893536E+02  0.88273315669E+00  0.61834716624E+01  0.25120819705E+02  0.00000000000E+00 0.  1.
         12    1    4    4    0    0  0.13943997767E+03 -0.13630990119E+03  0.26518014511E+03  0.32915711431E+03  0.00000000000E+00 0. -1.
         -5    1    5    5    0  502 -0.89457708739E+02  0.62214110425E+02 -0.22118519394E+03  0.24661357872E+03  0.47000000000E+01 0.  1.
         11    1    6    6    0    0 -0.11873379522E+03  0.86048546688E+02 -0.57592000007E+02  0.15754016941E+03  0.00000000000E+00 0. -1.
        -12    1    6    6    0    0 -0.22613134765E+02 -0.15881203383E+02 -0.26554513403E+02  0.38323735033E+02  0.00000000000E+00 0.  1.
</event>
<event>
12    1  0.9966151E-001  0.3197240E+03  0.7818608E-02  0.1075796E+00
         21   -1    0    0  503  502  0.00000000000E+00  0.00000000000E+00  0.16831761386E+03  0.16831761386E+03  0.00000000000E+00 0. -1.
         21   -1    0    0  501  503 -0.00000000000E+00 -0.00000000000E+00 -0.92405531412E+03  0.92405531412E+03  0.00000000000E+00 0. -1.
          6    2    1    2  501    0 -0.25567624734E+03 -0.85114433351E+02 -0.58003446078E+02  0.32494278266E+03  0.17207150267E+03 0.  0.
         24    2    3    3    0    0 -0.22515819088E+03 -0.12209271274E+03 -0.65047606169E+02  0.27625546288E+03  0.80517378737E+02 0.  0.
         -6    2    1    2    0  502  0.25567624734E+03  0.85114433351E+02 -0.69773425419E+03  0.76743014532E+03  0.17175892482E+03 0.  0.
        -24    2    5    5    0    0  0.10149839229E+03  0.93306791313E+02 -0.42776937818E+03  0.45639791227E+03  0.79399826661E+02 0.  0.
          5    1    3    3  501    0 -0.30518056456E+02  0.36978279384E+02  0.70441600909E+01  0.48687319781E+02  0.47000000000E+01 0. -1.
        -13    1    4    4    0    0 -0.13261139998E+03 -0.75412344695E+02 -0.78783199589E+02  0.17169623664E+03  0.00000000000E+00 0.  1.
         14    1    4    4    0    0 -0.92546790898E+02 -0.46680368040E+02  0.13735593420E+02  0.10455922624E+03  0.00000000000E+00 0. -1.
         -5    1    5    5    0  502  0.15417785505E+03 -0.81923579622E+01 -0.26996487601E+03  0.31103223305E+03  0.47000000000E+01 0.  1.
         13    1    6    6    0    0 -0.87069513885E+00 -0.12118532180E+02 -0.32451172184E+02  0.34651053495E+02  0.00000000000E+00 0. -1.
        -14    1    6    6    0    0  0.10236908743E+03  0.10542532349E+03 -0.39531820600E+03  0.42174685878E+03  0.00000000000E+00 0.  1.
</event>
<event>
12    1  0.9966151E-001  0.1742414E+03  0.7818608E-02  0.1173921E+00
         21   -1    0    0  503  502  0.00000000000E+00  0.00000000000E+00  0.37107910675E+03  0.37107910675E+03  0.00000000000E+00 0.  1.
         21   -1    0    0  501  503 -0.00000000000E+00 -0.00000000000E+00 -0.83002427963E+02  0.83002427963E+02  0.00000000000E+00 0.  1.
          6    2    1    2  501    0 -0.19290701957E+02  0.28660054005E+00  0.10971590461E+03  0.20590685370E+03  0.17316997243E+03 0.  0.
         24    2    3    3    0    0 -0.79876110521E+02  0.32353157197E+01  0.78630140002E+02  0.13758627544E+03  0.79728438918E+02 0.  0.
         -6    2    1    2    0  502  0.19290701957E+02 -0.28660054005E+00  0.17836077417E+03  0.24817468102E+03  0.17148146609E+03 0.  0.
        -24    2    5    5    0    0  0.95094997362E+01 -0.49866322442E+02  0.17287066999E+03  0.19712517578E+03  0.79981158325E+02 0.  0.
          5    1    3    3  501    0  0.60585408564E+02 -0.29487151796E+01  0.31085764613E+02  0.68320578259E+02  0.47000000000E+01 0. -1.
        -13    1    4    4    0    0 -0.23950107990E+02  0.22642651300E+02  0.70511836373E+02  0.77834545026E+02  0.00000000000E+00 0.  1.
         14    1    4    4    0    0 -0.55926002530E+02 -0.19407335580E+02  0.81183036283E+01  0.59751730411E+02  0.00000000000E+00 0. -1.
         -5    1    5    5    0  502  0.97812022205E+01  0.49579721901E+02  0.54901041885E+01  0.51049505235E+02  0.47000000000E+01 0.  1.
         11    1    6    6    0    0 -0.20063748528E+02  0.57805603432E+01  0.11391012226E+02  0.23784954118E+02  0.00000000000E+00 0. -1.
        -12    1    6    6    0    0  0.29573248264E+02 -0.55646882785E+02  0.16147965776E+03  0.17334022166E+03  0.00000000000E+00 0.  1.
</event>
<event>
12    1  0.9966151E-001  0.3375902E+03  0.7818608E-02  0.1067913E+00
         21   -1    0    0  503  502  0.00000000000E+00  0.00000000000E+00  0.24324048168E+03  0.24324048168E+03  0.00000000000E+00 0. -1.
         21   -1    0    0  501  503 -0.00000000000E+00 -0.00000000000E+00 -0.68535762341E+03  0.68535762341E+03  0.00000000000E+00 0. -1.
          6    2    1    2  501    0 -0.19311853079E+03 -0.21565597100E+03 -0.48269880177E+03  0.58857747549E+03  0.17211347030E+03 0.  0.
         24    2    3    3    0    0 -0.14459561175E+03 -0.88184913564E+02 -0.20260585504E+03  0.27700486282E+03  0.83654597079E+02 0.  0.
         -6    2    1    2    0  502  0.19311853079E+03  0.21565597100E+03  0.40581660037E+02  0.34002062961E+03  0.17368043259E+03 0.  0.
        -24    2    5    5    0    0  0.16992103379E+03  0.88626713978E+02  0.11274589552E+02  0.20752326968E+03  0.78809510441E+02 0.  0.
          5    1    3    3  501    0 -0.48522919036E+02 -0.12747105744E+03 -0.28009294673E+03  0.31157261267E+03  0.47000000000E+01 0. -1.
        -13    1    4    4    0    0 -0.14405096463E+03 -0.79869261886E+02 -0.20928374893E+03  0.26632586614E+03  0.00000000000E+00 0.  1.
         14    1    4    4    0    0 -0.54464711620E+00 -0.83156516781E+01  0.66778938938E+01  0.10678996684E+02  0.00000000000E+00 0. -1.
         -5    1    5    5    0  502  0.23197496997E+02  0.12702925702E+03  0.29307070486E+02  0.13249735992E+03  0.47000000000E+01 0.  1.
         13    1    6    6    0    0 -0.76787546810E+01  0.32576836373E+01 -0.51249904386E+01  0.97898571556E+01  0.00000000000E+00 0. -1.
        -14    1    6    6    0    0  0.17759978847E+03  0.85369030341E+02  0.16399579990E+02  0.19773341253E+03  0.00000000000E+00 0.  1.
</event>
<event>
12    1  0.9966151E-001  0.2260697E+03  0.7818608E-02  0.1130351E+00
         21   -1    0    0  501  502  0.00000000000E+00  0.00000000000E+00  0.27070413235E+02  0.27070413235E+02  0.00000000000E+00 0. -1.
         21   -1    0    0  502  503 -0.00000000000E+00 -0.00000000000E+00 -0.18530293176E+04  0.18530293176E+04  0.00000000000E+00 0. -1.
         -6    2    1    2    0  503 -0.53862768787E+02  0.13623533448E+03 -0.95951230854E+03  0.98464609830E+03  0.16553792446E+03 0.  0.
        -24    2    3    3    0    0 -0.94427144336E+02  0.84580950034E+02 -0.75528863809E+03  0.77006967469E+03  0.80473314564E+02 0.  0.
          6    2    1    2  501    0  0.53862768787E+02 -0.13623533448E+03 -0.86644659581E+03  0.89545363252E+03  0.17218083629E+03 0.  0.
         24    2    5    5    0    0  0.22303508220E+02 -0.13985002279E+03 -0.83454455378E+03  0.85018904167E+03  0.79380847712E+02 0.  0.
          5    1    5    5  501    0  0.31559260567E+02  0.36146883092E+01 -0.31902042032E+02  0.45264590852E+02  0.47000000000E+01 0. -1.
        -11    1    6    6    0    0  0.55146766975E+01 -0.77956364032E+02 -0.24490070115E+03  0.25706800613E+03  0.00000000000E+00 0.  1.
         12    1    6    6    0    0  0.16788831522E+02 -0.61893658754E+02 -0.58964385263E+03  0.59312103554E+03  0.00000000000E+00 0. -1.
         -5    1    3    3    0  503  0.40564375549E+02  0.51654384442E+02 -0.20422367045E+03  0.21457642360E+03  0.47000000000E+01 0.  1.
         11    1    4    4    0    0 -0.42610476272E+02  0.55085704548E+01 -0.11358283644E+03  0.12143746444E+03  0.00000000000E+00 0. -1.
        -12    1    4    4    0    0 -0.51816668064E+02  0.79072379579E+02 -0.64170580165E+03  0.64863221025E+03  0.00000000000E+00 0.  1.
</event>
<event>
12    1  0.9966151E-001  0.2764831E+03  0.7818608E-02  0.1098422E+00
         21   -1    0    0  503  502  0.00000000000E+00  0.00000000000E+00  0.86475162632E+02  0.86475162632E+02  0.00000000000E+00 0.  1.
         21   -1    0    0  501  503 -0.00000000000E+00 -0.00000000000E+00 -0.92712113400E+03  0.92712113400E+03  0.00000000000E+00 0. -1.
          6    2    1    2  501    0 -0.18829195889E+02  0.21157740980E+03 -0.55460075700E+03  0.61969745047E+03  0.17698415606E+03 0.  0.
         24    2    3    3    0    0 -0.53672342860E+02  0.19708795269E+03 -0.36027334208E+03  0.42168426038E+03  0.79349561814E+02 0.  0.
         -6    2    1    2    0  502  0.18829195889E+02 -0.21157740980E+03 -0.28604521437E+03  0.39389884616E+03  0.16797290671E+03 0.  0.
        -24    2    5    5    0    0 -0.15976576782E+02 -0.15346589414E+03 -0.27478620868E+03  0.32507119712E+03  0.79729486693E+02 0.  0.
          5    1    3    3  501    0  0.34843146971E+02  0.14489457118E+02 -0.19432741492E+03  0.19801319009E+03  0.47000000000E+01 0. -1.
        -11    1    4    4    0    0 -0.23444682810E+02  0.10917305304E+03 -0.11932146700E+03  0.16341976976E+03  0.00000000000E+00 0.  1.
         12    1    4    4    0    0 -0.30227660050E+02  0.87914899650E+02 -0.24095187508E+03  0.25826449063E+03  0.00000000000E+00 0. -1.
         -5    1    5    5    0  502  0.34805772671E+02 -0.58111515658E+02 -0.11259005693E+02  0.68827649041E+02  0.47000000000E+01 0.  1.
         13    1    6    6    0    0  0.15204050615E+02 -0.51286768910E+02 -0.15792236262E+03  0.16673622413E+03  0.00000000000E+00 0. -1.
        -14    1    6    6    0    0 -0.31180627397E+02 -0.10217912523E+03 -0.11686384606E+03  0.15833497300E+03  0.00000000000E+00 0.  1.
</event>
<event>
12    1  0.9966151E-001  0.2148753E+03  0.7818608E-02  0.1138093E+00
         21   -1    0    0  503  502  0.00000000000E+00  0.00000000000E+00  0.32303615048E+03  0.32303615048E+03  0.00000000000E+00 0. -1.
         21   -1    0    0  501  503 -0.00000000000E+00 -0.00000000000E+00 -0.21332283821E+03  0.21332283821E+03  0.00000000000E+00 0. -1.
          6    2    1    2  501    0  0.11457169547E+03 -0.57581504189E+02  0.21029553162E+03  0.30065861193E+03  0.17242124950E+03 0.  0.
         24    2    3    3    0    0  0.86934226461E+02 -0.44098464241E+02  0.23110762712E+03  0.26323060932E+03  0.79858525476E+02 0.  0.
         -6    2    1    2    0  502 -0.11457169547E+03  0.57581504189E+02 -0.10058221935E+03  0.23570037676E+03  0.17028089068E+03 0.  0.
        -24    2    5    5    0    0 -0.46529034962E+02 -0.31706434357E+02 -0.67265276543E+02  0.11850716750E+03  0.79681128551E+02 0.  0.
          5    1    3    3  501    0  0.27637469009E+02 -0.13483039948E+02 -0.20812095507E+02  0.37428002603E+02  0.47000000000E+01 0. -1.
        -13    1    4    4    0    0  0.37350617473E+02 -0.35700415750E+02  0.39233988165E+02  0.64875990455E+02  0.00000000000E+00 0.  1.
         14    1    4    4    0    0  0.49583608988E+02 -0.83980484918E+01  0.19187363896E+03  0.19835461887E+03  0.00000000000E+00 0. -1.
         -5    1    5    5    0  502 -0.68042660508E+02  0.89287938546E+02 -0.33316942808E+02  0.11719320926E+03  0.47000000000E+01 0.  1.
         11    1    6    6    0    0 -0.54016275586E+02 -0.44499755568E+02 -0.25998092757E+02  0.74658469719E+02  0.00000000000E+00 0. -1.
        -12    1    6    6    0    0  0.74872406243E+01  0.12793321211E+02 -0.41267183786E+02  0.43848697784E+02  0.00000000000E+00 0.  1.
</event>
<event>
12    1  0.9966151E-001  0.3158593E+03  0.7818608E-02  0.1077595E+00
         21   -1    0    0  503  502  0.00000000000E+00  0.00000000000E+00  0.12597990974E+04  0.12597990974E+04  0.00000000000E+00 0.  1.
         21   -1    0    0  501  503 -0.00000000000E+00 -0.00000000000E+00 -0.21231864994E+03  0.21231864994E+03  0.00000000000E+00 0. -1.
          6    2    1    2  501    0 -0.16786986920E+03  0.20376076337E+03  0.11067570355E+04  0.11509466563E+04  0.17340221524E+03 0.  0.
         24    2    3    3    0    0 -0.85294384410E+02  0.18258454308E+03  0.92510682420E+03  0.95023284941E+03  0.80669601051E+02 0.  0.
         -6    2    1    2    0  502  0.16786986920E+03 -0.20376076337E+03 -0.59276588006E+02  0.32117109112E+03  0.17302720655E+03 0.  0.
        -24    2    5    5    0    0  0.17133147913E+03 -0.15753316713E+03 -0.93671994038E+02  0.26325643534E+03  0.79739160999E+02 0.  0.
          5    1    3    3  501    0 -0.82575484794E+02  0.21176220290E+02  0.18165021130E+03  0.20071380685E+03  0.47000000000E+01 0. -1.
        -11    1    4    4    0    0  0.12319046971E+02  0.23565949016E+02  0.18825077599E+03  0.19011961375E+03  0.00000000000E+00 0.  1.
         12    1    4    4    0    0 -0.97613431381E+02  0.15901859406E+03  0.73685604821E+03  0.76011323566E+03  0.00000000000E+00 0. -1.
         -5    1    5    5    0  502 -0.34616099228E+01 -0.46227596238E+02  0.34395406031E+02  0.57914655772E+02  0.47000000000E+01 0.  1.
         13    1    6    6    0    0  0.60559917339E+02 -0.55153908375E+02 -0.75373911607E+02  0.11131344819E+03  0.00000000000E+00 0. -1.
        -14    1    6    6    0    0  0.11077156179E+03 -0.10237925876E+03 -0.18298082431E+02  0.15194298715E+03  0.00000000000E+00 0.  1.
</event>
<event>
12    1  0.9966151E-001  0.2985611E+03  0.7818608E-02  0.1086019E+00
         21   -1    0    0  501  502  0.00000000000E+00  0.00000000000E+00  0.54829686225E+03  0.54829686225E+03  0.00000000000E+00 0.  1.
         21   -1    0    0  502  503 -0.00000000000E+00 -0.00000000000E+00 -0.16482924027E+03  0.16482924027E+03  0.00000000000E+00 0.  1.
         -6    2    1    2    0  503 -0.10845163950E+03 -0.21830630467E+03  0.23550753317E+03  0.37991308666E+03  0.17161222120E+03 0.  0.
        -24    2    3    3    0    0 -0.51256825332E+02 -0.29751626536E+02  0.12720455295E+03  0.15502258233E+03  0.65867908091E+02 0.  0.
          6    2    1    2  501    0  0.10845163950E+03  0.21830630467E+03  0.14796008880E+03  0.33321301586E+03  0.17239293863E+03 0.  0.
         24    2    5    5    0    0  0.13937376146E+03  0.21174465329E+03  0.14367309839E+03  0.30096861817E+03  0.75361172621E+02 0.  0.
          5    1    5    5  501    0 -0.30922121964E+02  0.65616513819E+01  0.42869904151E+01  0.32244397691E+02  0.47000000000E+01 0. -1.
        -11    1    6    6    0    0  0.78787780163E+02  0.60029557646E+02  0.36379448560E+02  0.10552026522E+03  0.00000000000E+00 0.  1.
         12    1    6    6    0    0  0.60585981300E+02  0.15171509565E+03  0.10729364983E+03  0.19544835295E+03  0.00000000000E+00 0. -1.
         -5    1    3    3    0  503 -0.57194814167E+02 -0.18855467814E+03  0.10830298023E+03  0.22489050434E+03  0.47000000000E+01 0.  1.
         13    1    4    4    0    0  0.26298412462E+01 -0.71027150768E+01 -0.59313029799E+01  0.96200302225E+01  0.00000000000E+00 0. -1.
        -14    1    4    4    0    0 -0.53886666578E+02 -0.22648911459E+02  0.13313585592E+03  0.14540255210E+03  0.00000000000E+00 0.  1.
</event>
<event>
12    1  0.9966151E-001  0.1765977E+03  0.7818608E-02  0.1171632E+00
         21   -1    0    0  503  502  0.00000000000E+00  0.00000000000E+00  0.13483151080E+03  0.13483151080E+03  0.00000000000E+00 0. -1.
         21   -1    0    0  501  503 -0.00000000000E+00 -0.00000000000E+00 -0.27227791417E+03  0.27227791417E+03  0.00000000000E+00 0. -1.
          6    2    1    2  501    0 -0.36544626509E+02  0.20215595248E+01 -0.15047222458E+03  0.23200996859E+03  0.17276324471E+03 0.  0.
         24    2    3    3    0    0 -0.63383823670E+01 -0.44601347386E+02 -0.14309802588E+03  0.17577313510E+03  0.91595276799E+02 0.  0.
         -6    2    1    2    0  502  0.36544626509E+02 -0.20215595248E+01  0.13025821213E+02  0.17509945638E+03  0.17073532492E+03 0.  0.
        -24    2    5    5    0    0  0.76904645848E+02 -0.14247500948E+02  0.47430169475E+02  0.12047204582E+03  0.78400108494E+02 0.  0.
          5    1    3    3  501    0 -0.30206244142E+02  0.46622906911E+02 -0.73741987022E+01  0.56236833486E+02  0.47000000000E+01 0. -1.
        -13    1    4    4    0    0  0.36424522157E+02 -0.27794520281E+02 -0.32978310741E+02  0.56452193504E+02  0.00000000000E+00 0.  1.
         14    1    4    4    0    0 -0.42762904524E+02 -0.16806827105E+02 -0.11011971514E+03  0.11932094160E+03  0.00000000000E+00 0. -1.
         -5    1    5    5    0  502 -0.40360019340E+02  0.12225941423E+02 -0.34404348262E+02  0.54627410557E+02  0.47000000000E+01 0.  1.
         13    1    6    6    0    0  0.22946115482E+02 -0.18600562095E+02  0.58209719072E+02  0.65275389853E+02  0.00000000000E+00 0. -1.
        -14    1    6    6    0    0  0.53958530367E+02  0.43530611468E+01 -0.10779549598E+02  0.55196655969E+02  0.00000000000E+00 0.  1.
</event>
<event>
12    1  0.9966151E-001  0.2040897E+03  0.7818608E-02  0.1146994E+00
         21   -1    0    0  503  502  0.00000000000E+00  0.00000000000E+00  0.10308684241E+03  0.10308684241E+03  0.00000000000E+00 0. -1.
         21   -1    0    0  501  503 -0.00000000000E+00 -0.00000000000E+00 -0.67644844939E+03  0.67644844939E+03  0.00000000000E+00 0. -1.
          6    2    1    2  501    0  0.10680069191E+03 -0.10209521229E+02 -0.37839246259E+02  0.20756783373E+03  0.17361444332E+03 0.  0.
         24    2    3    3    0    0  0.12641180340E+03 -0.26347476397E+01  0.15274092419E+02  0.15025213227E+03  0.79721511639E+02 0.  0.
         -6    2    1    2    0  502 -0.10680069191E+03  0.10209521229E+02 -0.53552236073E+03  0.57196745807E+03  0.16985862396E+03 0.  0.
        -24    2    5    5    0    0 -0.10359201728E+03 -0.45886434743E+02 -0.31247878239E+03  0.34190751000E+03  0.80130425001E+02 0.  0.
          5    1    3    3  501    0 -0.19611111494E+02 -0.75747735897E+01 -0.53113338678E+02  0.57315701465E+02  0.47000000000E+01 0. -1.
        -11    1    4    4    0    0  0.34215724123E+02 -0.35866885959E+02  0.16494826329E+02  0.52242019307E+02  0.00000000000E+00 0.  1.
         12    1    4    4    0    0  0.92196079279E+02  0.33232138319E+02 -0.12207339102E+01  0.98010112963E+02  0.00000000000E+00 0. -1.
         -5    1    5    5    0  502 -0.32086746287E+01  0.56095955973E+02 -0.22304357834E+03  0.23005994807E+03  0.47000000000E+01 0.  1.
         13    1    6    6    0    0 -0.90454129730E+01 -0.41510821101E+02 -0.12248466008E+03  0.12964358727E+03  0.00000000000E+00 0. -1.
        -14    1    6    6    0    0 -0.94546604306E+02 -0.43756136424E+01 -0.18999412230E+03  0.21226392273E+03  0.00000000000E+00 0.  1.
</event>
<event>
12    1  0.9966151E-001  0.2218081E+03  0.7818608E-02  0.1134014E+00
         21   -1    0    0  503  502  0.00000000000E+00  0.00000000000E+00  0.22600369613E+03  0.22600369613E+03  0.00000000000E+00 0. -1.
         21   -1    0    0  501  503 -0.00000000000E+00 -0.00000000000E+00 -0.21100714463E+03  0.21100714463E+03  0.00000000000E+00 0. -1.
          6    2    1    2  501    0  0.44684669981E+02 -0.13233966857E+03 -0.69011155145E+01  0.22191540831E+03  0.17230297572E+03 0.  0.
         24    2    3    3    0    0  0.12803746900E+02 -0.12919589627E+03  0.48017315741E+02  0.15816275619E+03  0.76513262174E+02 0.  0.
         -6    2    1    2    0  502 -0.44684669981E+02  0.13233966857E+03  0.21897667013E+02  0.21509543244E+03  0.16209882672E+03 0.  0.
        -24    2    5    5    0    0 -0.26001488056E+02  0.21021923093E+02  0.47750260854E+02  0.99202601105E+02  0.80268736272E+02 0.  0.
          5    1    3    3  501    0  0.31880923081E+02 -0.31437723052E+01 -0.54918431256E+02  0.63752652120E+02  0.47000000000E+01 0. -1.
        -11    1    4    4    0    0  0.42829611622E+02 -0.97048531283E+02  0.40440318476E+02  0.11352626310E+03  0.00000000000E+00 0.  1.
         12    1    4    4    0    0 -0.30025864722E+02 -0.32147364987E+02  0.75769972651E+01  0.44636493091E+02  0.00000000000E+00 0. -1.
         -5    1    5    5    0  502 -0.18683181924E+02  0.11131774548E+03 -0.25852593840E+02  0.11589283133E+03  0.47000000000E+01 0.  1.
         13    1    6    6    0    0  0.93463948729E+00 -0.21982719153E+02 -0.83716056736E+01  0.23541394901E+02  0.00000000000E+00 0. -1.
        -14    1    6    6    0    0 -0.26936127544E+02  0.43004642246E+02  0.56121866527E+02  0.75661206204E+02  0.00000000000E+00 0.  1.
</event>
<event>
12    1  0.9966151E-001  0.3088087E+03  0.7818608E-02  0.1081200E+00
         21   -1    0    0  503  502  0.00000000000E+00  0.00000000000E+00  0.30528688581E+03  0.30528688581E+03  0.00000000000E+00 0. -1.
         21   -1    0    0  501  503 -0.00000000000E+00 -0.00000000000E+00 -0.39974920473E+03  0.39974920473E+03  0.00000000000E+00 0. -1.
          6    2    1    2  501    0 -0.24613028502E+03  0.66708202071E+02  0.11991937903E+03  0.32910749122E+03  0.17000288786E+03 0.  0.
         24    2    3    3    0    0 -0.25795097696E+03  0.52249099597E+02  0.13317943512E+03  0.30572558604E+03  0.80390901829E+02 0.  0.
         -6    2    1    2    0  502  0.24613028502E+03 -0.66708202071E+02 -0.21438169795E+03  0.37592859932E+03  0.17416284893E+03 0.  0.
        -24    2    5    5    0    0  0.12690028348E+03  0.33425147990E+02 -0.10794977949E+03  0.18726931827E+03  0.78712897344E+02 0.  0.
          5    1    3    3  501    0  0.11820691937E+02  0.14459102475E+02 -0.13260056094E+02  0.23381905180E+02  0.47000000000E+01 0. -1.
        -13    1    4    4    0    0 -0.17398777942E+03  0.49521943496E+02  0.12791261760E+03  0.22155317199E+03  0.00000000000E+00 0.  1.
         14    1    4    4    0    0 -0.83963197533E+02  0.27271561013E+01  0.52668175249E+01  0.84172414051E+02  0.00000000000E+00 0. -1.
         -5    1    5    5    0  502  0.11923000153E+03 -0.10013335006E+03 -0.10643191846E+03  0.18865928105E+03  0.47000000000E+01 0.  1.
         11    1    6    6    0    0 -0.10400284149E+02  0.23466796049E+01 -0.15642877744E+02  0.18930727394E+02  0.00000000000E+00 0. -1.
        -12    1    6    6    0    0  0.13730056763E+03  0.31078468385E+02 -0.92306901745E+02  0.16833859088E+03  0.00000000000E+00 0.  1.
</event>
<event>
12    1  0.9966151E-001  0.1920012E+03  0.7818608E-02  0.1156826E+00
         21   -1    0    0  501  502  0.00000000000E+00  0.00000000000E+00  0.11990417519E+03  0.11990417519E+03  0.00000000000E+00 0.  1.
         21   -1    0    0  502  503 -0.00000000000E+00 -0.00000000000E+00 -0.47159742318E+03  0.47159742318E+03  0.00000000000E+00 0.  1.
         -6    2    1    2    0  503 -0.17421703632E+02 -0.82727846909E+02 -0.97258301549E+00  0.19200366676E+03  0.17238633855E+03 0.  0.
        -24    2    3    3    0    0 -0.68151314647E+02 -0.91362203179E+02 -0.58247408632E+00  0.14032883994E+03  0.81854689446E+02 0.  0.
          6    2    1    2  501    0  0.17421703632E+02  0.82727846909E+02 -0.35072066497E+03  0.39949793161E+03  0.17159895138E+03 0.  0.
         24    2    5    5    0    0 -0.33471511055E+02  0.67740714259E+02 -0.12067244002E+03  0.16336447517E+03  0.80105976979E+02 0.  0.
          5    1    5    5  501    0  0.50893214687E+02  0.14987132650E+02 -0.23004822495E+03  0.23613345644E+03  0.47000000000E+01 0. -1.
        -11    1    6    6    0    0 -0.45525531732E+02  0.14873441813E+02 -0.87635839131E+02  0.99869082359E+02  0.00000000000E+00 0.  1.
         12    1    6    6    0    0  0.12054020677E+02  0.52867272446E+02 -0.33036600885E+02  0.63495392812E+02  0.00000000000E+00 0. -1.
         -5    1    3    3    0  503  0.50729611015E+02  0.86343562694E+01 -0.39010892917E+00  0.51674826820E+02  0.47000000000E+01 0.  1.
         13    1    4    4    0    0 -0.69743318555E+02 -0.64570129729E+02  0.29974068184E+02  0.99658802420E+02  0.00000000000E+00 0. -1.
        -14    1    4    4    0    0  0.15920039077E+01 -0.26792073450E+02 -0.30556542270E+02  0.40670037518E+02  0.00000000000E+00 0.  1.
</event>
<event>
12    1  0.9966151E-001  0.1866867E+03  0.7818608E-02  0.1161503E+00
         21   -1    0    0  503  502  0.00000000000E+00  0.00000000000E+00  0.11337162382E+04  0.11337162382E+04  0.00000000000E+00 0.  1.
         21   -1    0    0  501  503 -0.00000000000E+00 -0.00000000000E+00 -0.35822628277E+02  0.35822628277E+02  0.00000000000E+00 0.  1.
          6    2    1    2  501    0  0.65155461686E+02  0.33567405665E+02  0.32831367492E+03  0.37763912575E+03  0.17160837756E+03 0.  0.
         24    2    3    3    0    0  0.75128458379E+02 -0.42868275445E+01  0.31830076610E+03  0.33696048298E+03  0.81020535911E+02 0.  0.
         -6    2    1    2    0  502 -0.65155461686E+02 -0.33567405665E+02  0.76957993496E+03  0.79189974068E+03  0.17169716972E+03 0.  0.
        -24    2    5    5    0    0 -0.61985954960E+02 -0.73829538671E+02  0.37409537208E+03  0.39433060882E+03  0.79096284705E+02 0.  0.
          5    1    3    3  501    0 -0.99729966932E+01  0.37854233209E+02  0.10012908820E+02  0.40678642774E+02  0.47000000000E+01 0. -1.
        -13    1    4    4    0    0 -0.11305647557E+02  0.13680844781E+02  0.98627227204E+02  0.10021134231E+03  0.00000000000E+00 0.  1.
         14    1    4    4    0    0  0.86434105936E+02 -0.17967672326E+02  0.21967353890E+03  0.23674914067E+03  0.00000000000E+00 0. -1.
         -5    1    5    5    0  502 -0.31695067258E+01  0.40262133006E+02  0.39548456288E+03  0.39756913186E+03  0.47000000000E+01 0.  1.
         11    1    6    6    0    0 -0.27768937924E+02 -0.12350930666E+02  0.24865421452E+03  0.25050464626E+03  0.00000000000E+00 0. -1.
        -12    1    6    6    0    0 -0.34217017037E+02 -0.61478608005E+02  0.12544115756E+03  0.14382596256E+03  0.00000000000E+00 0.  1.
</event>
<event>
12    1  0.9966151E-001  0.1788852E+03  0.7818608E-02  0.1171320E+00
         21   -1    0    0  501  502  0.00000000000E+00  0.00000000000E+00  0.32663528796E+03  0.32663528796E+03  0.00000000000E+00 0. -1.
         21   -1    0    0  502  503 -0.00000000000E+00 -0.00000000000E+00 -0.92744185276E+02  0.92744185276E+02  0.00000000000E+00 0. -1.
         -6    2    1    2    0  503 -0.30071039637E+02  0.35233276988E+02  0.11167067900E+03  0.20272829111E+03  0.16273527041E+03 0.  0.
        -24    2    3    3    0    0 -0.40247727111E+02  0.21393700796E+02  0.13949881058E+03  0.16968901533E+03  0.85187286614E+02 0.  0.
          6    2    1    2  501    0  0.30071039637E+02 -0.35233276988E+02  0.12222042368E+03  0.21665118213E+03  0.17278382887E+03 0.  0.
         24    2    5    5    0    0  0.44753479406E+02 -0.20380153557E+02  0.15256510820E+03  0.17951522662E+03  0.80816952259E+02 0.  0.
          5    1    5    5  501    0 -0.14682439769E+02 -0.14853123431E+02 -0.30344684513E+02  0.37135955507E+02  0.47000000000E+01 0. -1.
        -11    1    6    6    0    0  0.28415581047E+02 -0.32289817311E+02  0.15336396870E+03  0.15928146297E+03  0.00000000000E+00 0.  1.
         12    1    6    6    0    0  0.16337898359E+02  0.11909663754E+02 -0.79886050818E+00  0.20233763655E+02  0.00000000000E+00 0. -1.
         -5    1    3    3    0  503  0.10176687474E+02  0.13839576191E+02 -0.27828131574E+02  0.33039275779E+02  0.47000000000E+01 0.  1.
         13    1    4    4    0    0 -0.37748871391E+02 -0.72075171465E+01  0.13926297712E+02  0.40876244479E+02  0.00000000000E+00 0. -1.
        -14    1    4    4    0    0 -0.24988557192E+01  0.28601217943E+02  0.12557251286E+03  0.12881277085E+03  0.00000000000E+00 0.  1.
</event>
<event>
12    1  0.1157261E+000  0.1910420E+03  0.7818608E-02  0.1158236E+00
         21   -1    0    0  503  502  0.00000000000E+00  0.00000000000E+00  0.41213933331E+03  0.41213933331E+03  0.00000000000E+00 0. -1.
         21   -1    0    0  501  503 -0.00000000000E+00 -0.00000000000E+00 -0.24775661230E+03  0.24775661230E+03  0.00000000000E+00 0. -1.
          6    2    1    2  501    0 -0.41641442798E+02 -0.70694211814E+02  0.34764049968E+03  0.39516882875E+03  0.16903492201E+03 0.  0.
         24    2    3    3    0    0 -0.56509167179E+02 -0.88946113470E+02  0.16958725413E+03  0.21550461586E+03  0.81103055546E+02 0.  0.
         -6    2    1    2    0  502  0.41641442798E+02  0.70694211814E+02 -0.18325777868E+03  0.26472711686E+03  0.17252637947E+03 0.  0.
        -24    2    5    5    0    0 -0.44123707552E+01  0.83222709106E+02 -0.18443053177E+03  0.21675439193E+03  0.77603846850E+02 0.  0.
          5    1    3    3  501    0  0.14867724381E+02  0.18251901656E+02  0.17805324555E+03  0.17966421289E+03  0.47000000000E+01 0. -1.
        -11    1    4    4    0    0 -0.45774512796E+02 -0.62682471404E+01  0.84948790116E+02  0.96700020094E+02  0.00000000000E+00 0.  1.
         12    1    4    4    0    0 -0.10734654383E+02 -0.82677866330E+02  0.84638464010E+02  0.11880459577E+03  0.00000000000E+00 0. -1.
         -5    1    5    5    0  502  0.46053813553E+02 -0.12528497292E+02  0.11727530941E+01  0.47972724928E+02  0.47000000000E+01 0.  1.
         13    1    6    6    0    0 -0.20273608641E+02  0.43081256722E+02 -0.29700296479E+02  0.56117033947E+02  0.00000000000E+00 0. -1.
        -14    1    6    6    0    0  0.15861237886E+02  0.40141452383E+02 -0.15473023529E+03  0.16063735798E+03  0.00000000000E+00 0.  1.
</event>
<event>
12    1  0.9966151E-001  0.2264171E+03  0.7818608E-02  0.1129680E+00
         21   -1    0    0  503  502  0.00000000000E+00  0.00000000000E+00  0.16508200822E+03  0.16508200822E+03  0.00000000000E+00 0. -1.
         21   -1    0    0  501  503 -0.00000000000E+00 -0.00000000000E+00 -0.52710422296E+03  0.52710422296E+03  0.00000000000E+00 0. -1.
          6    2    1    2  501    0 -0.85896023832E+02 -0.11769648367E+03  0.42087812390E+02  0.23029566149E+03  0.17330354459E+03 0.  0.
         24    2    3    3    0    0 -0.10847323961E+03 -0.13033622691E+03  0.79277674338E+01  0.18718542543E+03  0.78876854901E+02 0.  0.
         -6    2    1    2    0  502  0.85896023832E+02  0.11769648367E+03 -0.40411002713E+03  0.46189056969E+03  0.16972741431E+03 0.  0.
        -24    2    5    5    0    0  0.94222086573E+02  0.64093004628E+02 -0.16310092997E+03  0.21480732219E+03  0.80960221512E+02 0.  0.
          5    1    3    3  501    0  0.22577215781E+02  0.12639743237E+02  0.34160044956E+02  0.43110236057E+02  0.47000000000E+01 0. -1.
        -13    1    4    4    0    0 -0.29951679190E+02 -0.14232728275E+02  0.30693214245E+02  0.45185695094E+02  0.00000000000E+00 0.  1.
         14    1    4    4    0    0 -0.78521560423E+02 -0.11610349863E+03 -0.22765446811E+02  0.14199973033E+03  0.00000000000E+00 0. -1.
         -5    1    5    5    0  502 -0.83260627408E+01  0.53603479044E+02 -0.24100909716E+03  0.24708324751E+03  0.47000000000E+01 0.  1.
         13    1    6    6    0    0  0.44022756144E+02 -0.14616209689E+02 -0.51562673368E+02  0.69356657424E+02  0.00000000000E+00 0. -1.
        -14    1    6    6    0    0  0.50199330429E+02  0.78709214317E+02 -0.11153825660E+03  0.14545066476E+03  0.00000000000E+00 0.  1.
</event>
<event>
12    1  0.9966151E-001  0.1870439E+03  0.7818608E-02  0.1162134E+00
         21   -1    0    0  503  502  0.00000000000E+00  0.00000000000E+00  0.57862975157E+03  0.57862975157E+03  0.00000000000E+00 0. -1.
         21   -1    0    0  501  503 -0.00000000000E+00 -0.00000000000E+00 -0.80813980520E+02  0.80813980520E+02  0.00000000000E+00 0. -1.
          6    2    1    2  501    0  0.43337816140E+02 -0.52994289651E+02  0.42183236757E+03  0.46144117914E+03  0.17406566128E+03 0.  0.
         24    2    3    3    0    0  0.16287259287E+02  0.14837151916E+02  0.92380714949E+02  0.12396033746E+03  0.79665255135E+02 0.  0.
         -6    2    1    2    0  502 -0.43337816140E+02  0.52994289651E+02  0.75983403489E+02  0.19800255296E+03  0.16954342313E+03 0.  0.
        -24    2    5    5    0    0  0.64006605106E+01  0.86458158273E+02  0.72395307706E+02  0.13776376982E+03  0.78878350067E+02 0.  0.
          5    1    3    3  501    0  0.27050556853E+02 -0.67831441567E+02  0.32945165262E+03  0.33748084168E+03  0.47000000000E+01 0. -1.
        -11    1    4    4    0    0  0.34748032622E+02  0.18875562446E+02  0.96789252326E+02  0.10455559284E+03  0.00000000000E+00 0.  1.
         12    1    4    4    0    0 -0.18460773335E+02 -0.40384105308E+01 -0.44085373763E+01  0.19404744614E+02  0.00000000000E+00 0. -1.
         -5    1    5    5    0  502 -0.49738476650E+02 -0.33463868622E+02  0.35880957827E+01  0.60238783138E+02  0.47000000000E+01 0.  1.
         11    1    6    6    0    0  0.39688985612E+02  0.69041117486E+02  0.48745762218E+02  0.93370449377E+02  0.00000000000E+00 0. -1.
        -12    1    6    6    0    0 -0.33288325102E+02  0.17417040787E+02  0.23649545489E+02  0.44393320440E+02  0.00000000000E+00 0.  1.
</event>
<event>
12    1  0.9966151E-001  0.1845469E+03  0.7818608E-02  0.1163887E+00
         21   -1    0    0  503  502  0.00000000000E+00  0.00000000000E+00  0.26655784284E+02  0.26655784284E+02  0.00000000000E+00 0. -1.
         21   -1    0    0  501  503 -0.00000000000E+00 -0.00000000000E+00 -0.13126263437E+04  0.13126263437E+04  0.00000000000E+00 0. -1.
          6    2    1    2  501    0  0.54091135853E+02 -0.34377896049E+02 -0.51913052725E+03  0.55095741829E+03  0.17306034132E+03 0.  0.
         24    2    3    3    0    0  0.18614684175E+02 -0.65867118813E+02 -0.19326933570E+03  0.22162816674E+03  0.84148822697E+02 0.  0.
         -6    2    1    2    0  502 -0.54091135853E+02  0.34377896049E+02 -0.76684003221E+03  0.78832470973E+03  0.17118563684E+03 0.  0.
        -24    2    5    5    0    0 -0.10258847254E+02 -0.38865342133E+02 -0.50786370466E+03  0.51560384567E+03  0.79410480375E+02 0.  0.
          5    1    3    3  501    0  0.35476451678E+02  0.31489222764E+02 -0.32586119155E+03  0.32932925156E+03  0.47000000000E+01 0. -1.
        -11    1    4    4    0    0  0.28940825744E+02 -0.72934490213E+02 -0.19382210513E+03  0.20910289260E+03  0.00000000000E+00 0.  1.
         12    1    4    4    0    0 -0.10326141569E+02  0.70673714000E+01  0.55276942580E+00  0.12525274138E+02  0.00000000000E+00 0. -1.
         -5    1    5    5    0  502 -0.43832288599E+02  0.73243238182E+02 -0.25897632755E+03  0.27272086406E+03  0.47000000000E+01 0.  1.
         13    1    6    6    0    0  0.31955677350E+02 -0.49811435620E+00 -0.18256994523E+03  0.18534615813E+03  0.00000000000E+00 0. -1.
        -14    1    6    6    0    0 -0.42214524604E+02 -0.38367227777E+02 -0.32529375943E+03  0.33025768754E+03  0.00000000000E+00 0.  1.
</event>
<event>
12    1  0.9966151E-001  0.1764397E+03  0.7818608E-02  0.1171471E+00
         21   -1    0    0  501  502  0.00000000000E+00  0.00000000000E+00  0.58566540639E+02  0.58566540639E+02  0.00000000000E+00 0. -1.
         21   -1    0    0  502  503 -0.00000000000E+00 -0.00000000000E+00 -0.71036317590E+03  0.71036317590E+03  0.00000000000E+00 0. -1.
         -6    2    1    2    0  503 -0.25842186439E+02  0.31296034186E+02 -0.52043011511E+03  0.54952567639E+03  0.17170819415E+03 0.  0.
        -24    2    3    3    0    0  0.21816925816E+02  0.71192668840E+02 -0.26305825629E+03  0.28471348606E+03  0.79484266295E+02 0.  0.
          6    2    1    2  501    0  0.25842186439E+02 -0.31296034186E+02 -0.13136652015E+03  0.21940404015E+03  0.17097868248E+03 0.  0.
         24    2    5    5    0    0 -0.43203822711E+02 -0.51066501716E+02 -0.62238878606E+02  0.11960953333E+03  0.77190702547E+02 0.  0.
          5    1    5    5  501    0  0.69046009149E+02  0.19770467531E+02 -0.69127641545E+02  0.99794506820E+02  0.47000000000E+01 0. -1.
        -11    1    6    6    0    0 -0.31558540757E+02 -0.23892183785E+02  0.10618625589E+02  0.40982107683E+02  0.00000000000E+00 0.  1.
         12    1    6    6    0    0 -0.11645281953E+02 -0.27174317932E+02 -0.72857504196E+02  0.78627425651E+02  0.00000000000E+00 0. -1.
         -5    1    3    3    0  503 -0.47659112254E+02 -0.39896634655E+02 -0.25737185881E+03  0.26481219033E+03  0.47000000000E+01 0.  1.
         13    1    4    4    0    0 -0.74643608960E+01  0.65024081998E+02 -0.10412158347E+03  0.12298435700E+03  0.00000000000E+00 0. -1.
        -14    1    4    4    0    0  0.29281286712E+02  0.61685868421E+01 -0.15893667283E+03  0.16172912906E+03  0.00000000000E+00 0.  1.
</event>
<event>
12    1  0.9966151E-001  0.2578408E+03  0.7818608E-02  0.1108830E+00
         21   -1    0    0  503  502  0.00000000000E+00  0.00000000000E+00  0.39068372593E+03  0.39068372593E+03  0.00000000000E+00 0.  1.
         21   -1    0    0  501  503 -0.00000000000E+00 -0.00000000000E+00 -0.37198814101E+03  0.37198814101E+03  0.00000000000E+00 0.  1.
          6    2    1    2  501    0 -0.18068799474E+03  0.64060997487E+02  0.29135465229E+03  0.38740550805E+03  0.16865210172E+03 0.  0.
         24    2    3    3    0    0 -0.55448197096E+02  0.23260081236E+02  0.20953077032E+03  0.23227021438E+03  0.80192112063E+02 0.  0.
         -6    2    1    2    0  502  0.18068799474E+03 -0.64060997487E+02 -0.27265906737E+03  0.37526635889E+03  0.17242363600E+03 0.  0.
        -24    2    5    5    0    0  0.11527211573E+03  0.44438161308E+01 -0.23498665653E+03  0.27322005933E+03  0.78250008983E+02 0.  0.
          5    1    3    3  501    0 -0.12523979764E+03  0.40800916251E+02  0.81823881970E+02  0.15513529367E+03  0.47000000000E+01 0. -1.
        -11    1    4    4    0    0  0.41847707720E+01  0.31353701214E+02  0.32770496028E+02  0.45546375225E+02  0.00000000000E+00 0.  1.
         12    1    4    4    0    0 -0.59632967868E+02 -0.80936199778E+01  0.17676027430E+03  0.18672383916E+03  0.00000000000E+00 0. -1.
         -5    1    5    5    0  502  0.65415879005E+02 -0.68504813618E+02 -0.37672410844E+02  0.10204629956E+03  0.47000000000E+01 0.  1.
         11    1    6    6    0    0  0.20838741481E+01  0.39360039325E+01 -0.85991463353E+02  0.86106715348E+02  0.00000000000E+00 0. -1.
        -12    1    6    6    0    0  0.11318824158E+03  0.50781219838E+00 -0.14899519318E+03  0.18711334398E+03  0.00000000000E+00 0.  1.
</event>
<event>
12    1  0.9966151E-001  0.1804195E+03  0.7818608E-02  0.1167655E+00
         21   -1    0    0  501  502  0.00000000000E+00  0.00000000000E+00  0.12685653054E+04  0.12685653054E+04  0.00000000000E+00 0. -1.
         21   -1    0    0  502  503 -0.00000000000E+00 -0.00000000000E+00 -0.26012474583E+02  0.26012474583E+02  0.00000000000E+00 0. -1.
         -6    2    1    2    0  503  0.15668382612E+02  0.47476250161E+02  0.71314109324E+03  0.73560956487E+03  0.17335432075E+03 0.  0.
        -24    2    3    3    0    0  0.65875733816E+02  0.65405347068E+02  0.56498890050E+03  0.57808689081E+03  0.79715267704E+02 0.  0.
          6    2    1    2  501    0 -0.15668382612E+02 -0.47476250161E+02  0.52941173763E+03  0.55896821516E+03  0.17224745304E+03 0.  0.
         24    2    5    5    0    0 -0.41262887943E+02 -0.81264079230E+02  0.48917051769E+03  0.50033254446E+03  0.52329563113E+02 0.  0.
          5    1    5    5  501    0  0.25594505330E+02  0.33787829069E+02  0.40241219936E+02  0.58635670698E+02  0.47000000000E+01 0. -1.
        -11    1    6    6    0    0 -0.98181613330E+01 -0.29505602703E+02  0.30226167774E+03  0.30385703663E+03  0.00000000000E+00 0.  1.
         12    1    6    6    0    0 -0.31444726610E+02 -0.51758476527E+02  0.18690883995E+03  0.19647550783E+03  0.00000000000E+00 0. -1.
         -5    1    3    3    0  503 -0.50207351204E+02 -0.17929096907E+02  0.14815219274E+03  0.15752267406E+03  0.47000000000E+01 0.  1.
         11    1    4    4    0    0  0.79431884563E+00  0.43443826200E+02  0.11593140358E+03  0.12380665295E+03  0.00000000000E+00 0. -1.
        -12    1    4    4    0    0  0.65081414970E+02  0.21961520867E+02  0.44905749692E+03  0.45428023786E+03  0.00000000000E+00 0.  1.
</event>
<event>
12    1  0.9966151E-001  0.3674257E+03  0.7818608E-02  0.1055714E+00
         21   -1    0    0  503  502  0.00000000000E+00  0.00000000000E+00  0.40091981847E+03  0.40091981847E+03  0.00000000000E+00 0.  1.
         21   -1    0    0  501  503 -0.00000000000E+00 -0.00000000000E+00 -0.47231672164E+03  0.47231672164E+03  0.00000000000E+00 0.  1.
          6    2    1    2  501    0  0.18069337458E+03 -0.27000337372E+03  0.19851229681E+03  0.41732794862E+03  0.17089051254E+03 0.  0.
         24    2    3    3    0    0  0.42264261443E+02 -0.95530696165E+02  0.11029149123E+03  0.17772758319E+03  0.92252366277E+02 0.  0.
         -6    2    1    2    0  502 -0.18069337458E+03  0.27000337372E+03 -0.26990919998E+03  0.45590859149E+03  0.17160929499E+03 0.  0.
        -24    2    5    5    0    0 -0.54050924668E+02  0.14070511516E+03 -0.46976761943E+02  0.16871995712E+03  0.59499377122E+02 0.  0.
          5    1    3    3  501    0  0.13842911313E+03 -0.17447267756E+03  0.88220805581E+02  0.23960036543E+03  0.47000000000E+01 0. -1.
        -13    1    4    4    0    0  0.37469129733E+02 -0.10453749060E+03  0.12010093694E+03  0.16357340150E+03  0.00000000000E+00 0.  1.
         14    1    4    4    0    0  0.47951317102E+01  0.90067944324E+01 -0.98094457152E+01  0.14154181690E+02  0.00000000000E+00 0. -1.
         -5    1    5    5    0  502 -0.12664244991E+03  0.12929825856E+03 -0.22293243803E+03  0.28718863437E+03  0.47000000000E+01 0.  1.
         13    1    6    6    0    0  0.84625284503E+00  0.79017952517E+02 -0.29244450594E+02  0.84260256672E+02  0.00000000000E+00 0. -1.
        -14    1    6    6    0    0 -0.54897177513E+02  0.61687162641E+02 -0.17732311349E+02  0.84459700445E+02  0.00000000000E+00 0.  1.
</event>
<event>
12    1  0.9966151E-001  0.3105994E+03  0.7818608E-02  0.1080107E+00
         21   -1    0    0  501  502  0.00000000000E+00  0.00000000000E+00  0.24898994822E+03  0.24898994822E+03  0.00000000000E+00 0. -1.
         21   -1    0    0  502  503 -0.00000000000E+00 -0.00000000000E+00 -0.39187146371E+03  0.39187146371E+03  0.00000000000E+00 0. -1.
         -6    2    1    2    0  503 -0.17526996967E+03 -0.19044430505E+03 -0.10737125960E+03  0.32863439334E+03  0.17170725524E+03 0.  0.
        -24    2    3    3    0    0 -0.13579527480E+03 -0.20047210423E+03 -0.12525341768E+03  0.28390554505E+03  0.79274955926E+02 0.  0.
          6    2    1    2  501    0  0.17526996967E+03  0.19044430505E+03 -0.35510255894E+02  0.31222701860E+03  0.17098578092E+03 0.  0.
         24    2    5    5    0    0  0.79065517992E+02  0.17407879810E+03 -0.51160672009E+02  0.21328182233E+03  0.79479162636E+02 0.  0.
          5    1    5    5  501    0  0.96204451675E+02  0.16365506953E+02  0.15650416116E+02  0.98945196268E+02  0.47000000000E+01 0. -1.
        -13    1    6    6    0    0 -0.15755175656E+02  0.32924043206E+02 -0.34093715912E+01  0.36658450535E+02  0.00000000000E+00 0.  1.
         14    1    6    6    0    0  0.94820693648E+02  0.14115475489E+03 -0.47751300418E+02  0.17662337179E+03  0.00000000000E+00 0. -1.
         -5    1    3    3    0  503 -0.39474694867E+02  0.10027799179E+02  0.17882158086E+02  0.44728848287E+02  0.47000000000E+01 0.  1.
         13    1    4    4    0    0 -0.66499681708E+02 -0.35004426497E+02 -0.31402988706E+02  0.81447315740E+02  0.00000000000E+00 0. -1.
        -14    1    4    4    0    0 -0.69295593091E+02 -0.16546767773E+03 -0.93850428978E+02  0.20245822931E+03  0.00000000000E+00 0.  1.
</event>
<event>
12    1  0.9966151E-001  0.2642572E+03  0.7818608E-02  0.1104701E+00
         21   -1    0    0  501  502  0.00000000000E+00  0.00000000000E+00  0.12853492163E+03  0.12853492163E+03  0.00000000000E+00 0. -1.
         21   -1    0    0  502  503 -0.00000000000E+00 -0.00000000000E+00 -0.61778362929E+03  0.61778362929E+03  0.00000000000E+00 0.  1.
         -6    2    1    2    0  503 -0.15967316556E+03  0.12136480832E+03 -0.11372363145E+03  0.28713347984E+03  0.17113630357E+03 0.  0.
        -24    2    3    3    0    0 -0.16506763302E+03  0.82240160472E+02 -0.13440514612E+03  0.24230432195E+03  0.81460872009E+02 0.  0.
          6    2    1    2  501    0  0.15967316556E+03 -0.12136480832E+03 -0.37552507621E+03  0.45918507107E+03  0.17206658634E+03 0.  0.
         24    2    5    5    0    0  0.45648270196E+02 -0.11362667065E+03 -0.16792453076E+03  0.22215842276E+03  0.78491604124E+02 0.  0.
          5    1    5    5  501    0  0.11402489536E+03 -0.77381376662E+01 -0.20760054545E+03  0.23702664831E+03  0.47000000000E+01 0. -1.
        -13    1    6    6    0    0  0.31128293284E+02 -0.33022979607E+02 -0.13479377600E+02  0.47341117914E+02  0.00000000000E+00 0.  1.
         14    1    6    6    0    0  0.14519976911E+02 -0.80603691047E+02 -0.15444515316E+03  0.17481730485E+03  0.00000000000E+00 0. -1.
         -5    1    3    3    0  503  0.53944674618E+01  0.39124647847E+02  0.20681514665E+02  0.44829157891E+02  0.47000000000E+01 0.  1.
         11    1    4    4    0    0 -0.46974293808E+02  0.67931906247E+02 -0.52133994455E+02  0.97669245636E+02  0.00000000000E+00 0. -1.
        -12    1    4    4    0    0 -0.11809333921E+03  0.14308254225E+02 -0.82271151664E+02  0.14463507632E+03  0.00000000000E+00 0.  1.
</event>
<event>
12    1  0.9966151E-001  0.3649810E+03  0.7818608E-02  0.1056636E+00
         21   -1    0    0  503  502  0.00000000000E+00  0.00000000000E+00  0.38921434382E+03  0.38921434382E+03  0.00000000000E+00 0. -1.
         21   -1    0    0  501  503 -0.00000000000E+00 -0.00000000000E+00 -0.35741342474E+03  0.35741342474E+03  0.00000000000E+00 0. -1.
          6    2    1    2  501    0 -0.82081071464E+02 -0.31158892503E+03  0.92948831721E+02  0.37655991025E+03  0.17126856160E+03 0.  0.
         24    2    3    3    0    0  0.56529574391E+01 -0.20568601285E+03  0.21443671460E+02  0.22148649350E+03  0.79105903377E+02 0.  0.
         -6    2    1    2    0  502  0.82081071464E+02  0.31158892503E+03 -0.61147912650E+02  0.37006785831E+03  0.17142401243E+03 0.  0.
        -24    2    5    5    0    0  0.97174188284E+02  0.13684752078E+03 -0.55347719141E+02  0.19451703154E+03  0.81261545229E+02 0.  0.
          5    1    3    3  501    0 -0.87734028903E+02 -0.10590291218E+03  0.71505160261E+02  0.15507341674E+03  0.47000000000E+01 0. -1.
        -13    1    4    4    0    0 -0.27796440306E+02 -0.16696001364E+03  0.15337323846E+02  0.16995152765E+03  0.00000000000E+00 0.  1.
         14    1    4    4    0    0  0.33449397745E+02 -0.38725999212E+02  0.61063476137E+01  0.51534965855E+02  0.00000000000E+00 0. -1.
         -5    1    5    5    0  502 -0.15093116820E+02  0.17474140425E+03 -0.58001935094E+01  0.17555082677E+03  0.47000000000E+01 0.  1.
         13    1    6    6    0    0  0.75060388810E+02  0.65356469357E+02  0.30829083984E+01  0.99574265648E+02  0.00000000000E+00 0. -1.
        -14    1    6    6    0    0  0.22113799475E+02  0.71491051426E+02 -0.58430627539E+02  0.94942765895E+02  0.00000000000E+00 0.  1.
</event>
<event>
12    1  0.9966151E-001  0.1884507E+03  0.7818608E-02  0.1160210E+00
         21   -1    0    0  501  502  0.00000000000E+00  0.00000000000E+00  0.39276642842E+03  0.39276642842E+03  0.00000000000E+00 0.  1.
         21   -1    0    0  502  503 -0.00000000000E+00 -0.00000000000E+00 -0.91096235347E+02  0.91096235347E+02  0.00000000000E+00 0.  1.
         -6    2    1    2    0  503  0.69769295712E+02  0.21063842491E+02  0.12147975388E+03  0.22421192935E+03  0.17378785509E+03 0.  0.
        -24    2    3    3    0    0  0.65268749229E+02 -0.49482110358E+02  0.93766567000E+02  0.14813895709E+03  0.80277597424E+02 0.  0.
          6    2    1    2  501    0 -0.69769295712E+02 -0.21063842491E+02  0.18019043919E+03  0.25965073442E+03  0.17215826853E+03 0.  0.
         24    2    5    5    0    0 -0.71399478901E+02  0.31889923622E+02  0.17380527615E+03  0.20608190813E+03  0.78400421072E+02 0.  0.
          5    1    5    5  501    0  0.16301831887E+01 -0.52953766113E+02  0.63851630390E+01  0.53568826287E+02  0.47000000000E+01 0. -1.
        -11    1    6    6    0    0  0.74183598725E+01  0.20735681931E+02  0.80381032562E+02  0.83343331851E+02  0.00000000000E+00 0.  1.
         12    1    6    6    0    0 -0.78817838773E+02  0.11154241691E+02  0.93424243590E+02  0.12273857628E+03  0.00000000000E+00 0. -1.
         -5    1    3    3    0  503  0.45005464830E+01  0.70545952849E+02  0.27713186884E+02  0.76072972266E+02  0.47000000000E+01 0.  1.
         13    1    4    4    0    0  0.28868808089E+02 -0.50494286832E+02  0.95350359341E+02  0.11169051934E+03  0.00000000000E+00 0. -1.
        -14    1    4    4    0    0  0.36399941140E+02  0.10121764736E+01 -0.15837923410E+01  0.36448437750E+02  0.00000000000E+00 0.  1.
</event>
<event>
12    1  0.9966151E-001  0.2376975E+03  0.7818608E-02  0.1121623E+00
         21   -1    0    0  503  502  0.00000000000E+00  0.00000000000E+00  0.53073845497E+02  0.53073845497E+02  0.00000000000E+00 0. -1.
         21   -1    0    0  501  503 -0.00000000000E+00 -0.00000000000E+00 -0.11910923311E+04  0.11910923311E+04  0.00000000000E+00 0. -1.
          6    2    1    2  501    0  0.94132986802E+02 -0.13312479392E+03 -0.77955181707E+03  0.81498536406E+03  0.17296496226E+03 0.  0.
         24    2    3    3    0    0  0.11014540976E+03 -0.95632538377E+02 -0.39965924056E+03  0.43288259437E+03  0.79888911974E+02 0.  0.
         -6    2    1    2    0  502 -0.94132986802E+02  0.13312479392E+03 -0.35846666853E+03  0.42918081254E+03  0.17062997228E+03 0.  0.
        -24    2    5    5    0    0 -0.11764322491E+03  0.98004947801E+02 -0.19627767054E+03  0.26151001616E+03  0.80110339155E+02 0.  0.
          5    1    3    3  501    0 -0.16012422960E+02 -0.37492255547E+02 -0.37989257652E+03  0.38210276969E+03  0.47000000000E+01 0. -1.
        -11    1    4    4    0    0  0.83271010444E+02 -0.59708905048E+02 -0.35534439050E+03  0.36982272832E+03  0.00000000000E+00 0.  1.
         12    1    4    4    0    0  0.26874399317E+02 -0.35923633329E+02 -0.44314850052E+02  0.63059866043E+02  0.00000000000E+00 0. -1.
         -5    1    5    5    0  502  0.23510238107E+02  0.35119846123E+02 -0.16218899799E+03  0.16767079638E+03  0.47000000000E+01 0.  1.
         11    1    6    6    0    0 -0.59255123183E+02  0.54027888836E+02 -0.41390210736E+02  0.90240411902E+02  0.00000000000E+00 0. -1.
        -12    1    6    6    0    0 -0.58388101725E+02  0.43977058965E+02 -0.15488745980E+03  0.17126960426E+03  0.00000000000E+00 0.  1.
</event>
<event>
12    1  0.9966151E-001  0.3200497E+03  0.7818608E-02  0.1075682E+00
         21   -1    0    0  503  502  0.00000000000E+00  0.00000000000E+00  0.51306509861E+03  0.51306509861E+03  0.00000000000E+00 0. -1.
         21   -1    0    0  501  503 -0.00000000000E+00 -0.00000000000E+00 -0.19956852907E+03  0.19956852907E+03  0.00000000000E+00 0. -1.
          6    2    1    2  501    0  0.29071735096E+02 -0.26820504412E+03  0.14479421800E+03  0.35084322832E+03  0.17130818375E+03 0.  0.
         24    2    3    3    0    0  0.29109340095E+02 -0.74439979326E+02  0.67012833325E+01  0.11285866925E+03  0.79394633476E+02 0.  0.
         -6    2    1    2    0  502 -0.29071735096E+02  0.26820504412E+03  0.16870235155E+03  0.36179039936E+03  0.17219958820E+03 0.  0.
        -24    2    5    5    0    0  0.56447023430E+00  0.13561795301E+03  0.16195222664E+03  0.22568273763E+03  0.79445745909E+02 0.  0.
          5    1    3    3  501    0 -0.37604999046E-01 -0.19376506480E+03  0.13809293466E+03  0.23798455907E+03  0.47000000000E+01 0. -1.
        -13    1    4    4    0    0  0.39911621531E+02 -0.76232073661E+02  0.26668628223E+02  0.90085971823E+02  0.00000000000E+00 0.  1.
         14    1    4    4    0    0 -0.10802281436E+02  0.17920943354E+01 -0.19967344891E+02  0.22772697432E+02  0.00000000000E+00 0. -1.
         -5    1    5    5    0  502 -0.29636205330E+02  0.13258709111E+03  0.67501249022E+01  0.13610766173E+03  0.47000000000E+01 0.  1.
         11    1    6    6    0    0  0.94192158956E+01 -0.70872981498E+01  0.25259023645E+02  0.27874176196E+02  0.00000000000E+00 0. -1.
        -12    1    6    6    0    0 -0.88547456613E+01  0.14270525116E+03  0.13669320300E+03  0.19780856143E+03  0.00000000000E+00 0.  1.
</event>
<event>
12    1  0.9966151E-001  0.2211314E+03  0.7818608E-02  0.1133644E+00
         21   -1    0    0  501  502  0.00000000000E+00  0.00000000000E+00  0.25656021131E+03  0.25656021131E+03  0.00000000000E+00 0. -1.
         21   -1    0    0  502  503 -0.00000000000E+00 -0.00000000000E+00 -0.19439643990E+03  0.19439643990E+03  0.00000000000E+00 0. -1.
         -6    2    1    2    0  503  0.24633111848E+02  0.13640097874E+03  0.72759128314E+02  0.23279389688E+03  0.17229942098E+03 0.  0.
        -24    2    3    3    0    0  0.19319746647E+01  0.71835244206E+02  0.10765886838E+03  0.15582534770E+03  0.86758701059E+02 0.  0.
          6    2    1    2  501    0 -0.24633111848E+02 -0.13640097874E+03 -0.10595356902E+02  0.21816275433E+03  0.16813895619E+03 0.  0.
         24    2    5    5    0    0 -0.30984018989E+02 -0.15655267365E+03 -0.38422257523E+02  0.18290865915E+03  0.80688032935E+02 0.  0.
          5    1    5    5  501    0  0.63509071411E+01  0.20151694904E+02  0.27826900621E+02  0.35254095183E+02  0.47000000000E+01 0. -1.
        -13    1    6    6    0    0  0.10509305342E+02  0.51385827155E+01 -0.46941299487E+01  0.12604974695E+02  0.00000000000E+00 0.  1.
         14    1    6    6    0    0 -0.41493324331E+02 -0.16169125636E+03 -0.33728127575E+02  0.17030368445E+03  0.00000000000E+00 0. -1.
         -5    1    3    3    0  503  0.22701137183E+02  0.64565734536E+02 -0.34899740065E+02  0.76968549175E+02  0.47000000000E+01 0.  1.
         13    1    4    4    0    0  0.18097700247E+02  0.65902416140E+02  0.27219235855E+02  0.73563183780E+02  0.00000000000E+00 0. -1.
        -14    1    4    4    0    0 -0.16165725582E+02  0.59328280654E+01  0.80439632523E+02  0.82262163921E+02  0.00000000000E+00 0.  1.
</event>
<event>
12    1  0.9966151E-001  0.2286679E+03  0.7818608E-02  0.1127596E+00
         21   -1    0    0  503  502  0.00000000000E+00  0.00000000000E+00  0.13015695691E+04  0.13015695691E+04  0.00000000000E+00 0. -1.
         21   -1    0    0  501  503 -0.00000000000E+00 -0.00000000000E+00 -0.41833680551E+02  0.41833680551E+02  0.00000000000E+00 0. -1.
          6    2    1    2  501    0 -0.77905473396E+02 -0.12965485318E+03  0.76415725174E+03  0.79761280800E+03  0.17137748497E+03 0.  0.
         24    2    3    3    0    0 -0.86570327065E+02 -0.22459729711E+02  0.44276729942E+03  0.45867407366E+03  0.79625143142E+02 0.  0.
         -6    2    1    2    0  502  0.77905473396E+02  0.12965485318E+03  0.49557863686E+03  0.54579044170E+03  0.17149162431E+03 0.  0.
        -24    2    5    5    0    0  0.64768256215E+02  0.15726364445E+03  0.35363359063E+03  0.40051374715E+03  0.80173339446E+02 0.  0.
          5    1    3    3  501    0  0.86648536690E+01 -0.10719512347E+03  0.32138995232E+03  0.33893873434E+03  0.47000000000E+01 0. -1.
        -13    1    4    4    0    0 -0.32024103990E+02 -0.28014286210E+02  0.33569021393E+03  0.33837591995E+03  0.00000000000E+00 0.  1.
         14    1    4    4    0    0 -0.54546223075E+02  0.55545564987E+01  0.10707708549E+03  0.12029815371E+03  0.00000000000E+00 0. -1.
         -5    1    5    5    0  502  0.13137217181E+02 -0.27608791270E+02  0.14194504623E+03  0.14527669455E+03  0.47000000000E+01 0.  1.
         11    1    6    6    0    0 -0.54719487052E+01  0.79226371976E+02  0.19197016758E+03  0.20774817804E+03  0.00000000000E+00 0. -1.
        -12    1    6    6    0    0  0.70240204920E+02  0.78037272476E+02  0.16166342305E+03  0.19276556911E+03  0.00000000000E+00 0.  1.
</event>
<event>
12    1  0.9966151E-001  0.6230664E+03  0.7818608E-02  0.9860129E-01
         21   -1    0    0  501  502  0.00000000000E+00  0.00000000000E+00  0.43246312682E+03  0.43246312682E+03  0.00000000000E+00 0.  1.
         21   -1    0    0  502  503 -0.00000000000E+00 -0.00000000000E+00 -0.14080734997E+04  0.14080734997E+04  0.00000000000E+00 0.  1.
         -6    2    1    2    0  503 -0.51145992363E+03  0.30570333292E+03  0.69272172178E+02  0.62398771090E+03  0.17180293440E+03 0.  0.
        -24    2    3    3    0    0 -0.15896187139E+03  0.13302537370E+03  0.60266061940E+02  0.23133550543E+03  0.83183479411E+02 0.  0.
          6    2    1    2  501    0  0.51145992363E+03 -0.30570333292E+03 -0.10448825451E+04  0.12165489157E+04  0.18211521057E+03 0.  0.
         24    2    5    5    0    0  0.70896654098E+02 -0.73599678331E+02 -0.28625825072E+03  0.30907935091E+03  0.56062561864E+02 0.  0.
          5    1    5    5  501    0  0.44056326953E+03 -0.23210365459E+03 -0.75862429438E+03  0.90746956476E+03  0.47000000000E+01 0. -1.
        -13    1    6    6    0    0  0.18183524523E+02 -0.16783669334E+02 -0.20141276101E+02  0.31906161214E+02  0.00000000000E+00 0.  1.
         14    1    6    6    0    0  0.52713129574E+02 -0.56816008997E+02 -0.26611697462E+03  0.27717318970E+03  0.00000000000E+00 0. -1.
         -5    1    3    3    0  503 -0.35249805224E+03  0.17267795923E+03  0.90061102377E+01  0.39265220547E+03  0.47000000000E+01 0.  1.
         13    1    4    4    0    0 -0.16606137623E+03  0.11390631292E+03  0.62425453511E+02  0.21082686272E+03  0.00000000000E+00 0. -1.
        -14    1    4    4    0    0  0.70995048363E+01  0.19119060775E+02 -0.21593915704E+01  0.20508642709E+02  0.00000000000E+00 0.  1.
</event>
<event>
12    1  0.9966151E-001  0.1885764E+03  0.7818608E-02  0.1160216E+00
         21   -1    0    0  501  502  0.00000000000E+00  0.00000000000E+00  0.99379327069E+03  0.99379327069E+03  0.00000000000E+00 0.  1.
         21   -1    0    0  502  503 -0.00000000000E+00 -0.00000000000E+00 -0.35564199850E+02  0.35564199850E+02  0.00000000000E+00 0.  1.
         -6    2    1    2    0  503 -0.31235045867E+02  0.67573971685E+02  0.51673536790E+03  0.55006952498E+03  0.17326041710E+03 0.  0.
        -24    2    3    3    0    0 -0.67200061262E+02  0.66412372797E+02  0.23375612283E+03  0.26477288150E+03  0.80847401438E+02 0.  0.
          6    2    1    2  501    0  0.31235045867E+02 -0.67573971685E+02  0.44149370293E+03  0.47928794555E+03  0.17105079738E+03 0.  0.
         24    2    5    5    0    0  0.45001517859E+02 -0.22157675139E+02  0.41372744210E+03  0.42410451521E+03  0.78601172408E+02 0.  0.
          5    1    5    5  501    0 -0.13766471993E+02 -0.45416296546E+02  0.27766260835E+02  0.55183430338E+02  0.47000000000E+01 0. -1.
        -13    1    6    6    0    0  0.18814213454E+02  0.18764107494E+02  0.28946693228E+03  0.29068397143E+03  0.00000000000E+00 0.  1.
         14    1    6    6    0    0  0.26187304406E+02 -0.40921782633E+02  0.12426050981E+03  0.13342054379E+03  0.00000000000E+00 0. -1.
         -5    1    3    3    0  503  0.35965015395E+02  0.11615988884E+01  0.28297924507E+03  0.28529664349E+03  0.47000000000E+01 0.  1.
         13    1    4    4    0    0 -0.61018733945E+02  0.31084412863E+02  0.21209091612E+03  0.22287234758E+03  0.00000000000E+00 0. -1.
        -14    1    4    4    0    0 -0.61813273163E+01  0.35327959934E+02  0.21665206714E+02  0.41900533915E+02  0.00000000000E+00 0.  1.
</event>
<event>
12    1  0.9966151E-001  0.2752436E+03  0.7818608E-02  0.1098495E+00
         21   -1    0    0  503  502  0.00000000000E+00  0.00000000000E+00  0.30392636115E+03  0.30392636115E+03  0.00000000000E+00 0.  1.
         21   -1    0    0  501  503 -0.00000000000E+00 -0.00000000000E+00 -0.25263897327E+03  0.25263897327E+03  0.00000000000E+00 0.  1.
          6    2    1    2  501    0 -0.76643169788E+02 -0.20107240888E+03 -0.11674955720E+02  0.27421223007E+03  0.16956342011E+03 0.  0.
         24    2    3    3    0    0 -0.48406056940E+02 -0.22025355861E+03 -0.91244237675E+01  0.23966014966E+03  0.80616101361E+02 0.  0.
         -6    2    1    2    0  502  0.76643169788E+02  0.20107240888E+03  0.62962343600E+02  0.28235310435E+03  0.17162380294E+03 0.  0.
        -24    2    5    5    0    0 -0.13471697891E+02  0.87170048333E+02  0.65403597402E+02  0.13701733162E+03  0.81951294317E+02 0.  0.
          5    1    3    3  501    0 -0.28237112849E+02  0.19181149731E+02 -0.25505319528E+01  0.34552080404E+02  0.47000000000E+01 0. -1.
        -11    1    4    4    0    0 -0.39445154947E+02 -0.33008187216E+02 -0.89116258227E+01  0.52200361559E+02  0.00000000000E+00 0.  1.
         12    1    4    4    0    0 -0.89609019922E+01 -0.18724537139E+03 -0.21279794487E+00  0.18745978810E+03  0.00000000000E+00 0. -1.
         -5    1    5    5    0  502  0.90114867679E+02  0.11390236054E+03 -0.24412538016E+01  0.14533577273E+03  0.47000000000E+01 0.  1.
         13    1    6    6    0    0  0.31943868975E+02  0.57985938039E+02  0.40068112499E+02  0.77383676668E+02  0.00000000000E+00 0. -1.
        -14    1    6    6    0    0 -0.45415566867E+02  0.29184110293E+02  0.25335484903E+02  0.59633654950E+02  0.00000000000E+00 0.  1.
</event>
<event>
12    1  0.9966151E-001  0.2283388E+03  0.7818608E-02  0.1128056E+00
         21   -1    0    0  503  502  0.00000000000E+00  0.00000000000E+00  0.75312791713E+02  0.75312791713E+02  0.00000000000E+00 0.  1.
         21   -1    0    0  501  503 -0.00000000000E+00 -0.00000000000E+00 -0.11255934019E+04  0.11255934019E+04  0.00000000000E+00 0.  1.
          6    2    1    2  501    0 -0.54114309979E+02  0.13822827699E+03 -0.14987300285E+03  0.27199689403E+03  0.17171190487E+03 0.  0.
         24    2    3    3    0    0  0.15003048001E+02  0.13204583897E+02 -0.58652727913E+02  0.10243462946E+03  0.81567507838E+02 0.  0.
         -6    2    1    2    0  502  0.54114309979E+02 -0.13822827699E+03 -0.90040760734E+03  0.92890929959E+03  0.17350277346E+03 0.  0.
        -24    2    5    5    0    0  0.50882624830E+02 -0.20621998830E+02 -0.56979639725E+03  0.57795696281E+03  0.79699486808E+02 0.  0.
          5    1    3    3  501    0 -0.69117357980E+02  0.12502369309E+03 -0.91220274937E+02  0.16956226457E+03  0.47000000000E+01 0. -1.
        -11    1    4    4    0    0  0.11768503178E+02  0.47117448247E+02 -0.25302864749E+02  0.54761177497E+02  0.00000000000E+00 0.  1.
         12    1    4    4    0    0  0.32345448234E+01 -0.33912864350E+02 -0.33349863164E+02  0.47673451959E+02  0.00000000000E+00 0. -1.
         -5    1    5    5    0  502  0.32316851490E+01 -0.11760627816E+03 -0.33061121009E+03  0.35095233678E+03  0.47000000000E+01 0.  1.
         13    1    6    6    0    0 -0.71715780340E+01 -0.33478007964E+02 -0.14316953269E+03  0.14720639810E+03  0.00000000000E+00 0. -1.
        -14    1    6    6    0    0  0.58054202864E+02  0.12856009134E+02 -0.42662686455E+03  0.43075056471E+03  0.00000000000E+00 0.  1.
</event>
<event>
12    1  0.9966151E-001  0.1842253E+03  0.7818608E-02  0.1164784E+00
         21   -1    0    0  503  502  0.00000000000E+00  0.00000000000E+00  0.25827823923E+03  0.25827823923E+03  0.00000000000E+00 0. -1.
         21   -1    0    0  501  503 -0.00000000000E+00 -0.00000000000E+00 -0.13140507356E+03  0.13140507356E+03  0.00000000000E+00 0. -1.
          6    2    1    2  501    0 -0.63270213301E+02 -0.22880080770E+02  0.93648528888E+02  0.20666154563E+03  0.17150023175E+03 0.  0.
         24    2    3    3    0    0 -0.19816547536E+02 -0.20379563116E+02  0.12599100113E+03  0.15223178201E+03  0.80577670224E+02 0.  0.
         -6    2    1    2    0  502  0.63270213301E+02  0.22880080770E+02  0.33224636775E+02  0.18302176716E+03  0.16693253960E+03 0.  0.
        -24    2    5    5    0    0  0.10303019057E+03 -0.65021986007E+01  0.35060285018E+02  0.13332635753E+03  0.76741092449E+02 0.  0.
          5    1    3    3  501    0 -0.43453665765E+02 -0.25005176542E+01 -0.32342472243E+02  0.54429763620E+02  0.47000000000E+01 0. -1.
        -11    1    4    4    0    0 -0.21157010465E+02 -0.50415194863E+02  0.71648479544E+02  0.90126664122E+02  0.00000000000E+00 0.  1.
         12    1    4    4    0    0  0.13404629283E+01  0.30035631747E+02  0.54342521588E+02  0.62105117887E+02  0.00000000000E+00 0. -1.
         -5    1    5    5    0  502 -0.39759977271E+02  0.29382279371E+02 -0.18356482429E+01  0.49695409628E+02  0.47000000000E+01 0.  1.
         13    1    6    6    0    0  0.76140369529E+02  0.98196826997E+01  0.56446565298E+02  0.95289017071E+02  0.00000000000E+00 0. -1.
        -14    1    6    6    0    0  0.26889821044E+02 -0.16321881300E+02 -0.21386280280E+02  0.38037340458E+02  0.00000000000E+00 0.  1.
</event>
<event>
12    1  0.9966151E-001  0.2606885E+03  0.7818608E-02  0.1107122E+00
         21   -1    0    0  501  502  0.00000000000E+00  0.00000000000E+00  0.85288803457E+02  0.85288803457E+02  0.00000000000E+00 0.  1.
         21   -1    0    0  502  503 -0.00000000000E+00 -0.00000000000E+00 -0.79403413941E+03  0.79403413941E+03  0.00000000000E+00 0.  1.
         -6    2    1    2    0  503  0.15150418648E+03  0.12494912061E+03 -0.31711690115E+03  0.40886429955E+03  0.16745472579E+03 0.  0.
        -24    2    3    3    0    0  0.17965589007E+03  0.10387530499E+03 -0.26203619472E+03  0.34334637575E+03  0.78469411676E+02 0.  0.
          6    2    1    2  501    0 -0.15150418648E+03 -0.12494912061E+03 -0.39162843480E+03  0.47045864331E+03  0.17144300179E+03 0.  0.
         24    2    5    5    0    0 -0.12553009968E+03 -0.28915152028E+02 -0.29467513590E+03  0.33146508780E+03  0.80260680111E+02 0.  0.
          5    1    5    5  501    0 -0.25974086801E+02 -0.96033968578E+02 -0.96953298902E+02  0.13899355551E+03  0.47000000000E+01 0. -1.
        -11    1    6    6    0    0 -0.77348342829E+02 -0.44829837548E+02 -0.12045710320E+03  0.15000798040E+03  0.00000000000E+00 0.  1.
         12    1    6    6    0    0 -0.48181756853E+02  0.15914685520E+02 -0.17421803270E+03  0.18145710740E+03  0.00000000000E+00 0. -1.
         -5    1    3    3    0  503 -0.28151703586E+02  0.21073815611E+02 -0.55080706427E+02  0.65517923805E+02  0.47000000000E+01 0.  1.
         13    1    4    4    0    0  0.24254307480E+02  0.73556327500E+01 -0.20209610517E+01  0.25425598283E+02  0.00000000000E+00 0. -1.
        -14    1    4    4    0    0  0.15540158259E+03  0.96519672244E+02 -0.26001523367E+03  0.31792077746E+03  0.00000000000E+00 0.  1.
</event>
<event>
12    1  0.9966151E-001  0.2388096E+03  0.7818608E-02  0.1120600E+00
         21   -1    0    0  501  502  0.00000000000E+00  0.00000000000E+00  0.15904479433E+04  0.15904479433E+04  0.00000000000E+00 0. -1.
         21   -1    0    0  502  503 -0.00000000000E+00 -0.00000000000E+00 -0.36643970554E+02  0.36643970554E+02  0.00000000000E+00 0. -1.
         -6    2    1    2    0  503  0.14865641304E+02  0.16510769638E+03  0.65685788347E+03  0.69889886824E+03  0.17180165961E+03 0.  0.
        -24    2    3    3    0    0  0.26393787271E+02  0.10715261606E+03  0.22898244404E+03  0.26693686625E+03  0.81510832113E+02 0.  0.
          6    2    1    2  501    0 -0.14865641304E+02 -0.16510769638E+03  0.89694608929E+03  0.92819304564E+03  0.17189678351E+03 0.  0.
         24    2    5    5    0    0  0.31765820914E+02 -0.16149878084E+03  0.59656646324E+03  0.62415764098E+03  0.81180614303E+02 0.  0.
          5    1    5    5  501    0 -0.46631462218E+02 -0.36089155407E+01  0.30037962605E+03  0.30403540466E+03  0.47000000000E+01 0. -1.
        -11    1    6    6    0    0  0.17929542881E+02 -0.14030952223E+03  0.57070903254E+03  0.58797706618E+03  0.00000000000E+00 0.  1.
         12    1    6    6    0    0  0.13836278033E+02 -0.21189258606E+02  0.25857430707E+02  0.36180574800E+02  0.00000000000E+00 0. -1.
         -5    1    3    3    0  503 -0.11528145968E+02  0.57955080317E+02  0.42787543944E+03  0.43196200198E+03  0.47000000000E+01 0.  1.
         11    1    4    4    0    0 -0.44168475049E+01  0.44660894549E+01  0.95613839390E+02  0.95819939365E+02  0.00000000000E+00 0. -1.
        -12    1    4    4    0    0  0.30810634776E+02  0.10268652661E+03  0.13336860465E+03  0.17111692689E+03  0.00000000000E+00 0.  1.
</event>
<event>
12    1  0.9966151E-001  0.1911928E+03  0.7818608E-02  0.1158160E+00
         21   -1    0    0  503  502  0.00000000000E+00  0.00000000000E+00  0.34414820836E+03  0.34414820836E+03  0.00000000000E+00 0.  1.
         21   -1    0    0  501  503 -0.00000000000E+00 -0.00000000000E+00 -0.19301913220E+03  0.19301913220E+03  0.00000000000E+00 0.  1.
          6    2    1    2  501    0 -0.59013301334E+01  0.81565662507E+02 -0.10612134706E+03  0.21866968778E+03  0.17282045323E+03 0.  0.
         24    2    3    3    0    0 -0.53391611169E+02  0.73962443809E+02 -0.25889889327E+02  0.12500906351E+03  0.81460863937E+02 0.  0.
         -6    2    1    2    0  502  0.59013301334E+01 -0.81565662507E+02  0.25725042323E+03  0.31849765279E+03  0.16904198171E+03 0.  0.
        -24    2    5    5    0    0  0.38041161912E+02 -0.11139959304E+03  0.19522925222E+03  0.24239411902E+03  0.82361694299E+02 0.  0.
          5    1    3    3  501    0  0.47490281036E+02  0.76032186981E+01 -0.80231457735E+02  0.93660624265E+02  0.47000000000E+01 0. -1.
        -11    1    4    4    0    0 -0.11877042601E+02 -0.16802104984E+02 -0.13081641166E+02  0.24382456981E+02  0.00000000000E+00 0.  1.
         12    1    4    4    0    0 -0.41514568568E+02  0.90764548793E+02 -0.12808248161E+02  0.10062660653E+03  0.00000000000E+00 0. -1.
         -5    1    5    5    0  502 -0.32139831779E+02  0.29833930529E+02  0.62021171011E+02  0.76103533763E+02  0.47000000000E+01 0.  1.
         11    1    6    6    0    0  0.25944891615E+02 -0.10238050519E+03  0.98255086203E+02  0.14425313587E+03  0.00000000000E+00 0. -1.
        -12    1    6    6    0    0  0.12096270297E+02 -0.90190878513E+01  0.96974166013E+02  0.98140983155E+02  0.00000000000E+00 0.  1.
</event>
<event>
12    1  0.9966151E-001  0.3258411E+03  0.7818608E-02  0.1073149E+00
         21   -1    0    0  501  502  0.00000000000E+00  0.00000000000E+00  0.83446924766E+03  0.83446924766E+03  0.00000000000E+00 0. -1.
         21   -1    0    0  502  503 -0.00000000000E+00 -0.00000000000E+00 -0.16846291728E+03  0.16846291728E+03  0.00000000000E+00 0. -1.
         -6    2    1    2    0  503  0.27129435067E+03  0.51123675250E+02  0.58217550768E+03  0.66648004360E+03  0.17044961691E+03 0.  0.
        -24    2    3    3    0    0  0.10437319712E+03  0.79900280348E+02  0.30146591444E+03  0.33859175434E+03  0.80528625088E+02 0.  0.
          6    2    1    2  501    0 -0.27129435067E+03 -0.51123675250E+02  0.83830822703E+02  0.33645212133E+03  0.17308428073E+03 0.  0.
         24    2    5    5    0    0 -0.17162233541E+03 -0.58851531785E+02  0.11736287745E+03  0.23090251646E+03  0.81389178015E+02 0.  0.
          5    1    5    5  501    0 -0.99672015261E+02  0.77278565355E+01 -0.33532054749E+02  0.10554960487E+03  0.47000000000E+01 0. -1.
        -13    1    6    6    0    0 -0.99509161456E+02 -0.47326724024E+02  0.11286595110E+03  0.15773590250E+03  0.00000000000E+00 0.  1.
         14    1    6    6    0    0 -0.72113173953E+02 -0.11524807761E+02  0.44969263565E+01  0.73166613959E+02  0.00000000000E+00 0. -1.
         -5    1    3    3    0  503  0.16692115355E+03 -0.28776605099E+02  0.28070959324E+03  0.32788828926E+03  0.47000000000E+01 0.  1.
         11    1    4    4    0    0  0.25260563802E+02 -0.15075529238E+02  0.75465136138E+02  0.80996014950E+02  0.00000000000E+00 0. -1.
        -12    1    4    4    0    0  0.79112633322E+02  0.94975809586E+02  0.22600077831E+03  0.25759573939E+03  0.00000000000E+00 0.  1.
</event>
<event>
12    1  0.9966151E-001  0.5117167E+03  0.7818608E-02  0.1010873E+00
         21   -1    0    0  501  502  0.00000000000E+00  0.00000000000E+00  0.18516806837E+03  0.18516806837E+03  0.00000000000E+00 0.  1.
         21   -1    0    0  502  503 -0.00000000000E+00 -0.00000000000E+00 -0.15510454296E+04  0.15510454296E+04  0.00000000000E+00 0. -1.
         -6    2    1    2    0  503  0.97843413872E+02  0.47220485568E+03 -0.42167887252E+03  0.66307394037E+03  0.17118183167E+03 0.  0.
        -24    2    3    3    0    0 -0.11201367180E+02  0.13509438697E+03 -0.13386083975E+03  0.20657033427E+03  0.79853707267E+02 0.  0.
          6    2    1    2  501    0 -0.97843413872E+02 -0.47220485568E+03 -0.94419848871E+03  0.10731395576E+04  0.16603302273E+03 0.  0.
         24    2    5    5    0    0 -0.28173564365E+02 -0.15132098932E+03 -0.23977287939E+03  0.29592795663E+03  0.79940792368E+02 0.  0.
          5    1    5    5  501    0 -0.69669849507E+02 -0.32088386636E+03 -0.70442560931E+03  0.77721160097E+03  0.47000000000E+01 0. -1.
        -13    1    6    6    0    0 -0.33927831691E+00  0.65392743061E+01  0.10535622459E+01  0.66322855512E+01  0.00000000000E+00 0.  1.
         14    1    6    6    0    0 -0.27834286048E+02 -0.15786026363E+03 -0.24082644164E+03  0.28929567108E+03  0.00000000000E+00 0. -1.
         -5    1    3    3    0  503  0.10904478105E+03  0.33711046872E+03 -0.28781803277E+03  0.45650360610E+03  0.47000000000E+01 0.  1.
         11    1    4    4    0    0 -0.54804475094E+00  0.13405651559E+03 -0.14032312293E+03  0.19406707231E+03  0.00000000000E+00 0. -1.
        -12    1    4    4    0    0 -0.10653322429E+02  0.10378713752E+01  0.64622831785E+01  0.12503261960E+02  0.00000000000E+00 0.  1.
</event>
<event>
12    1  0.9966151E-001  0.3839399E+03  0.7818608E-02  0.1049508E+00
         21   -1    0    0  503  502  0.00000000000E+00  0.00000000000E+00  0.19484415885E+04  0.19484415885E+04  0.00000000000E+00 0. -1.
         21   -1    0    0  501  503 -0.00000000000E+00 -0.00000000000E+00 -0.94968651226E+02  0.94968651226E+02  0.00000000000E+00 0.  1.
          6    2    1    2  501    0  0.94274721250E+02  0.33006637073E+03  0.46567324581E+03  0.60354072550E+03  0.17198343908E+03 0.  0.
         24    2    3    3    0    0 -0.20662585344E+01  0.23636598342E+03  0.31111643672E+03  0.39867187915E+03  0.79200268220E+02 0.  0.
         -6    2    1    2    0  502 -0.94274721250E+02 -0.33006637073E+03  0.13877996915E+04  0.14398695143E+04  0.17147799342E+03 0.  0.
        -24    2    5    5    0    0 -0.12839065835E+03 -0.30276748692E+03  0.12673471630E+04  0.13116508423E+04  0.78145941835E+02 0.  0.
          5    1    3    3  501    0  0.96340979784E+02  0.93700387313E+02  0.15455680909E+03  0.20486884635E+03  0.47000000000E+01 0. -1.
        -13    1    4    4    0    0  0.14662853298E+02  0.20850015475E+03  0.29714607211E+03  0.36329478660E+03  0.00000000000E+00 0.  1.
         14    1    4    4    0    0 -0.16729111832E+02  0.27865828669E+02  0.13970364604E+02  0.35377092550E+02  0.00000000000E+00 0. -1.
         -5    1    5    5    0  502  0.34115937100E+02 -0.27298883805E+02  0.12045252853E+03  0.12821867200E+03  0.47000000000E+01 0.  1.
         11    1    6    6    0    0 -0.31034129925E+02 -0.16675512617E+02  0.15778772584E+03  0.16167299208E+03  0.00000000000E+00 0. -1.
        -12    1    6    6    0    0 -0.97356528425E+02 -0.28609197431E+03  0.11095594371E+04  0.11499778502E+04  0.00000000000E+00 0.  1.
</event>
<event>
12    1  0.9966151E-001  0.1964187E+03  0.7818608E-02  0.1152962E+00
         21   -1    0    0  501  502  0.00000000000E+00  0.00000000000E+00  0.14315809138E+03  0.14315809138E+03  0.00000000000E+00 0.  1.
         21   -1    0    0  502  503 -0.00000000000E+00 -0.00000000000E+00 -0.30940683069E+03  0.30940683069E+03  0.00000000000E+00 0. -1.
         -6    2    1    2    0  503  0.90182952661E+02 -0.22370287220E+02 -0.16531961115E+03  0.25614398620E+03  0.17217947943E+03 0.  0.
        -24    2    3    3    0    0  0.10558238693E+03 -0.56190451415E+02 -0.16496003031E+03  0.21868513704E+03  0.79412658328E+02 0.  0.
          6    2    1    2  501    0 -0.90182952661E+02  0.22370287220E+02 -0.92912816366E+00  0.19642093586E+03  0.17305180168E+03 0.  0.
         24    2    5    5    0    0 -0.70822722470E+02 -0.47688247838E+02  0.15417608852E+02  0.12177294421E+03  0.85445422802E+02 0.  0.
          5    1    5    5  501    0 -0.19360230191E+02  0.70058535058E+02 -0.16346737016E+02  0.74647991658E+02  0.47000000000E+01 0. -1.
        -13    1    6    6    0    0 -0.84575240148E+02 -0.15856220004E+02  0.12840254888E+02  0.87001512081E+02  0.00000000000E+00 0.  1.
         14    1    6    6    0    0  0.13752517678E+02 -0.31832027834E+02  0.25773539644E+01  0.34771432124E+02  0.00000000000E+00 0. -1.
         -5    1    3    3    0  503 -0.15399434272E+02  0.33820164195E+02 -0.35958084079E+00  0.37458849161E+02  0.47000000000E+01 0.  1.
         11    1    4    4    0    0  0.40324242425E+02 -0.63467144368E+02 -0.10895110808E+03  0.13238000942E+03  0.00000000000E+00 0. -1.
        -12    1    4    4    0    0  0.65258144508E+02  0.72766929529E+01 -0.56008922227E+02  0.86305127623E+02  0.00000000000E+00 0.  1.
</event>
<event>
12    1  0.9966151E-001  0.1895234E+03  0.7818608E-02  0.1159080E+00
         21   -1    0    0  501  502  0.00000000000E+00  0.00000000000E+00  0.78219228189E+02  0.78219228189E+02  0.00000000000E+00 0. -1.
         21   -1    0    0  502  503 -0.00000000000E+00 -0.00000000000E+00 -0.45736745936E+03  0.45736745936E+03  0.00000000000E+00 0.  1.
         -6    2    1    2    0  503  0.75398527450E+02 -0.18673641848E+02 -0.19514551183E+03  0.27203103774E+03  0.17287415036E+03 0.  0.
        -24    2    3    3    0    0 -0.28548528369E+02 -0.82418325300E+01 -0.88699550667E+02  0.12281091273E+03  0.79573637105E+02 0.  0.
          6    2    1    2  501    0 -0.75398527450E+02  0.18673641848E+02 -0.18400271933E+03  0.26355564981E+03  0.17196202191E+03 0.  0.
         24    2    5    5    0    0 -0.57547119573E+02  0.13531861123E+02 -0.20937969961E+03  0.23175640767E+03  0.79852311485E+02 0.  0.
          5    1    5    5  501    0 -0.17851407877E+02  0.51417807249E+01  0.25376980279E+02  0.31799242134E+02  0.47000000000E+01 0. -1.
        -13    1    6    6    0    0 -0.74127717323E+02  0.46053536880E+01 -0.12585748735E+03  0.14613772573E+03  0.00000000000E+00 0.  1.
         14    1    6    6    0    0  0.16580597750E+02  0.89265074348E+01 -0.83522212259E+02  0.85618681942E+02  0.00000000000E+00 0. -1.
         -5    1    3    3    0  503  0.10394705582E+03 -0.10431809318E+02 -0.10644596117E+03  0.14922012501E+03  0.47000000000E+01 0.  1.
         13    1    4    4    0    0 -0.27623933058E+02 -0.42489130065E+02 -0.52578338431E+02  0.73026635712E+02  0.00000000000E+00 0. -1.
        -14    1    4    4    0    0 -0.92459531053E+00  0.34247297535E+02 -0.36121212237E+02  0.49784277020E+02  0.00000000000E+00 0.  1.
</event>
<event>
12    1  0.9966151E-001  0.1896500E+03  0.7818608E-02  0.1159172E+00
         21   -1    0    0  501  502  0.00000000000E+00  0.00000000000E+00  0.35998354492E+03  0.35998354492E+03  0.00000000000E+00 0.  1.
         21   -1    0    0  502  503 -0.00000000000E+00 -0.00000000000E+00 -0.16267122416E+03  0.16267122416E+03  0.00000000000E+00 0.  1.
         -6    2    1    2    0  503  0.59159477469E+02  0.49802162684E+02 -0.64560533466E+02  0.20033763487E+03  0.17316756706E+03 0.  0.
        -24    2    3    3    0    0  0.54296377885E+00  0.55606834309E+02  0.29736539890E+02  0.89055929572E+02  0.62883081634E+02 0.  0.
          6    2    1    2  501    0 -0.59159477469E+02 -0.49802162684E+02  0.26187285422E+03  0.32231713422E+03  0.17126250042E+03 0.  0.
         24    2    5    5    0    0 -0.97738806032E+02 -0.37815204073E+02  0.24572536023E+03  0.27855775429E+03  0.78934187471E+02 0.  0.
          5    1    5    5  501    0  0.38579328563E+02 -0.11986958611E+02  0.16147493989E+02  0.43759379923E+02  0.47000000000E+01 0. -1.
        -11    1    6    6    0    0 -0.66335057529E+02  0.63220749830E+01  0.18770055456E+03  0.19917782675E+03  0.00000000000E+00 0.  1.
         12    1    6    6    0    0 -0.31403748503E+02 -0.44137279056E+02  0.58024805678E+02  0.79379927541E+02  0.00000000000E+00 0. -1.
         -5    1    3    3    0  503  0.58616513690E+02 -0.58046716250E+01 -0.94297073356E+02  0.11128170530E+03  0.47000000000E+01 0.  1.
         11    1    4    4    0    0  0.23844659831E+02  0.53842388033E+02  0.29087756440E+02  0.65678521042E+02  0.00000000000E+00 0. -1.
        -12    1    4    4    0    0 -0.23301696053E+02  0.17644462756E+01  0.64878345005E+00  0.23377408529E+02  0.00000000000E+00 0.  1.
</event>
<event>
12    1  0.9966151E-001  0.1914047E+03  0.7818608E-02  0.1157583E+00
         21   -1    0    0  503  502  0.00000000000E+00  0.00000000000E+00  0.50530242544E+02  0.50530242544E+02  0.00000000000E+00 0.  1.
         21   -1    0    0  501  503 -0.00000000000E+00 -0.00000000000E+00 -0.75987158664E+03  0.75987158664E+03  0.00000000000E+00 0.  1.
          6    2    1    2  501    0 -0.31406115713E+02  0.72671859327E+02 -0.45062111490E+03  0.48958672810E+03  0.17426483265E+03 0.  0.
         24    2    3    3    0    0 -0.80732790386E+02  0.58408016423E+02 -0.23001678297E+03  0.26303664685E+03  0.79694901422E+02 0.  0.
         -6    2    1    2    0  502  0.31406115713E+02 -0.72671859327E+02 -0.25872022920E+03  0.32081510109E+03  0.17239091869E+03 0.  0.
        -24    2    5    5    0    0  0.70725044979E+02 -0.58027659761E+00 -0.16092423959E+03  0.19302887302E+03  0.79756919601E+02 0.  0.
          5    1    3    3  501    0  0.49326674672E+02  0.14263842904E+02 -0.22060433193E+03  0.22655008125E+03  0.47000000000E+01 0. -1.
        -11    1    4    4    0    0 -0.78801083842E+02  0.50371274342E+02 -0.23531458530E+03  0.25321893719E+03  0.00000000000E+00 0.  1.
         12    1    4    4    0    0 -0.19317065436E+01  0.80367420813E+01  0.52978023345E+01  0.98177096631E+01  0.00000000000E+00 0. -1.
         -5    1    5    5    0  502 -0.39318929266E+02 -0.72091582729E+02 -0.97795989607E+02  0.12778622806E+03  0.47000000000E+01 0.  1.
         13    1    6    6    0    0 -0.83357825739E+00  0.63050321272E+01  0.75417843902E+01  0.98654343353E+01  0.00000000000E+00 0. -1.
        -14    1    6    6    0    0  0.71558623236E+02 -0.68853087248E+01 -0.16846602398E+03  0.18316343869E+03  0.00000000000E+00 0.  1.
</event>
<event>
12    1  0.9966151E-001  0.1983041E+03  0.7818608E-02  0.1151267E+00
         21   -1    0    0  503  502  0.00000000000E+00  0.00000000000E+00  0.53190766821E+02  0.53190766821E+02  0.00000000000E+00 0. -1.
         21   -1    0    0  501  503 -0.00000000000E+00 -0.00000000000E+00 -0.93773222546E+03  0.93773222546E+03  0.00000000000E+00 0. -1.
          6    2    1    2  501    0  0.81711337572E+02  0.54102605523E+02 -0.21310177136E+03  0.29081174577E+03  0.17191646783E+03 0.  0.
         24    2    3    3    0    0  0.92535410415E+02 -0.59345656127E+01 -0.18891489563E+03  0.22501875657E+03  0.79665436466E+02 0.  0.
         -6    2    1    2    0  502 -0.81711337572E+02 -0.54102605523E+02 -0.67143968728E+03  0.70011124651E+03  0.17239683646E+03 0.  0.
        -24    2    5    5    0    0  0.73745591107E+01  0.18951530781E+01 -0.16101477470E+03  0.17893207641E+03  0.77672096479E+02 0.  0.
          5    1    3    3  501    0 -0.10824072843E+02  0.60037171135E+02 -0.24186875729E+02  0.65792989204E+02  0.47000000000E+01 0. -1.
        -11    1    4    4    0    0  0.32187023934E+02  0.78481737416E+01 -0.83904645707E+01  0.34175989181E+02  0.00000000000E+00 0.  1.
         12    1    4    4    0    0  0.60348386481E+02 -0.13782739354E+02 -0.18052443106E+03  0.19084276739E+03  0.00000000000E+00 0. -1.
         -5    1    5    5    0  502 -0.89085896683E+02 -0.55997758601E+02 -0.51042491258E+03  0.52117917010E+03  0.47000000000E+01 0.  1.
         11    1    6    6    0    0 -0.26297641798E+02  0.23088357329E+02 -0.50220251046E+02  0.61210389832E+02  0.00000000000E+00 0. -1.
        -12    1    6    6    0    0  0.33672200908E+02 -0.21193204251E+02 -0.11079452365E+03  0.11772168658E+03  0.00000000000E+00 0.  1.
</event>
<event>
12    1  0.9966151E-001  0.1799232E+03  0.7818608E-02  0.1168707E+00
         21   -1    0    0  503  502  0.00000000000E+00  0.00000000000E+00  0.14281188690E+03  0.14281188690E+03  0.00000000000E+00 0.  1.
         21   -1    0    0  501  503 -0.00000000000E+00 -0.00000000000E+00 -0.26462906405E+03  0.26462906405E+03  0.00000000000E+00 0.  1.
          6    2    1    2  501    0 -0.27524778017E+02  0.11100272070E+02 -0.14177310053E+03  0.22641448623E+03  0.17402033816E+03 0.  0.
         24    2    3    3    0    0  0.11654785655E+02  0.15781975845E+02 -0.16169366604E+03  0.18196366520E+03  0.81123541743E+02 0.  0.
         -6    2    1    2    0  502  0.27524778017E+02 -0.11100272070E+02  0.19955923382E+02  0.18102646473E+03  0.17745848136E+03 0.  0.
        -24    2    5    5    0    0  0.46996512510E+02 -0.14798235835E+02 -0.50868581618E+02  0.10733098394E+03  0.80651519174E+02 0.  0.
          5    1    3    3  501    0 -0.39179563672E+02 -0.46817037753E+01  0.19920565507E+02  0.44450821026E+02  0.47000000000E+01 0. -1.
        -13    1    4    4    0    0 -0.14704232532E+02  0.39975394791E+02 -0.55865409235E+02  0.70250911681E+02  0.00000000000E+00 0.  1.
         14    1    4    4    0    0  0.26359018186E+02 -0.24193418946E+02 -0.10582825681E+03  0.11171275352E+03  0.00000000000E+00 0. -1.
         -5    1    5    5    0  502 -0.19471734493E+02  0.36979637655E+01  0.70824505000E+02  0.73695480789E+02  0.47000000000E+01 0.  1.
         13    1    6    6    0    0  0.67042627745E+02 -0.46149758816E+01 -0.21940052725E+02  0.70692134294E+02  0.00000000000E+00 0. -1.
        -14    1    6    6    0    0 -0.20046115235E+02 -0.10183259954E+02 -0.28928528892E+02  0.36638849643E+02  0.00000000000E+00 0.  1.
</event>
<event>
12    1  0.9966151E-001  0.2356431E+03  0.7818608E-02  0.1122815E+00
         21   -1    0    0  503  502  0.00000000000E+00  0.00000000000E+00  0.88561864445E+02  0.88561864445E+02  0.00000000000E+00 0. -1.
         21   -1    0    0  501  503 -0.00000000000E+00 -0.00000000000E+00 -0.70974667225E+03  0.70974667225E+03  0.00000000000E+00 0. -1.
          6    2    1    2  501    0  0.44002811527E+02 -0.15511616926E+03 -0.17291984064E+03  0.29188069954E+03  0.17116015333E+03 0.  0.
         24    2    3    3    0    0  0.83763512008E+02 -0.64339199126E+02 -0.74005462855E+02  0.15178246350E+03  0.80032800808E+02 0.  0.
         -6    2    1    2    0  502 -0.44002811527E+02  0.15511616926E+03 -0.44826496717E+03  0.50642783715E+03  0.17184411560E+03 0.  0.
        -24    2    5    5    0    0 -0.51562681685E+02  0.16052867910E+03 -0.28453698357E+03  0.34236873344E+03  0.88469699119E+02 0.  0.
          5    1    3    3  501    0 -0.39760700481E+02 -0.90776970134E+02 -0.98914377783E+02  0.14009823604E+03  0.47000000000E+01 0. -1.
        -13    1    4    4    0    0  0.96536412651E+02 -0.48158644914E+02 -0.74594217906E+02  0.13115956462E+03  0.00000000000E+00 0.  1.
         14    1    4    4    0    0 -0.12772900643E+02 -0.16180554212E+02  0.58875505151E+00  0.20622898874E+02  0.00000000000E+00 0. -1.
         -5    1    5    5    0  502  0.75598701580E+01 -0.54125098346E+01 -0.16372798360E+03  0.16405910372E+03  0.47000000000E+01 0.  1.
         13    1    6    6    0    0 -0.49632842131E+02  0.49899116440E+02 -0.61794689229E+02  0.93658552501E+02  0.00000000000E+00 0. -1.
        -14    1    6    6    0    0 -0.19298395540E+01  0.11062956265E+03 -0.22274229434E+03  0.24871018093E+03  0.00000000000E+00 0.  1.
</event>
<event>
12    1  0.9966151E-001  0.1991164E+03  0.7818608E-02  0.1150599E+00
         21   -1    0    0  503  502  0.00000000000E+00  0.00000000000E+00  0.12173417934E+03  0.12173417934E+03  0.00000000000E+00 0. -1.
         21   -1    0    0  501  503 -0.00000000000E+00 -0.00000000000E+00 -0.43865140068E+03  0.43865140068E+03  0.00000000000E+00 0. -1.
          6    2    1    2  501    0  0.73002424885E+02  0.69910034820E+02 -0.30134896795E+03  0.36119046605E+03  0.17155344728E+03 0.  0.
         24    2    3    3    0    0 -0.36588430265E+01  0.59704124922E+02 -0.24937994111E+03  0.26789534107E+03  0.77457014357E+02 0.  0.
         -6    2    1    2    0  502 -0.73002424885E+02 -0.69910034820E+02 -0.15568253390E+02  0.19919511397E+03  0.17093728647E+03 0.  0.
        -24    2    5    5    0    0  0.29336201154E+02 -0.20775556458E+02 -0.25528949893E+02  0.85139439761E+02  0.72833786638E+02 0.  0.
          5    1    3    3  501    0  0.76661267912E+02  0.10205909898E+02 -0.51969026841E+02  0.93295124983E+02  0.47000000000E+01 0. -1.
        -11    1    4    4    0    0  0.30850556649E+02  0.52294123674E+02 -0.18151641786E+03  0.19140178205E+03  0.00000000000E+00 0.  1.
         12    1    4    4    0    0 -0.34509399676E+02  0.74100012481E+01 -0.67863523250E+02  0.76493559026E+02  0.00000000000E+00 0. -1.
         -5    1    5    5    0  502 -0.10233862604E+03 -0.49134478362E+02  0.99606965030E+01  0.11405567420E+03  0.47000000000E+01 0.  1.
         11    1    6    6    0    0 -0.96908993751E+01 -0.34380222803E+02 -0.25363163239E+02  0.43808712605E+02  0.00000000000E+00 0. -1.
        -12    1    6    6    0    0  0.39027100529E+02  0.13604666345E+02 -0.16578665413E+00  0.41330727156E+02  0.00000000000E+00 0.  1.
</event>
<event>
12    1  0.9966151E-001  0.2078391E+03  0.7818608E-02  0.1143698E+00
         21   -1    0    0  503  502  0.00000000000E+00  0.00000000000E+00  0.78188519662E+02  0.78188519662E+02  0.00000000000E+00 0. -1.
         21   -1    0    0  501  503 -0.00000000000E+00 -0.00000000000E+00 -0.55775965216E+03  0.55775965216E+03  0.00000000000E+00 0. -1.
          6    2    1    2  501    0  0.11490786865E+03 -0.28524896632E+01 -0.19466815179E+03  0.28329140674E+03  0.17072309989E+03 0.  0.
         24    2    3    3    0    0  0.66685845038E+02 -0.65984051973E+02 -0.95582359515E+02  0.15620465703E+03  0.80392850329E+02 0.  0.
         -6    2    1    2    0  502 -0.11490786865E+03  0.28524896632E+01 -0.28490298071E+03  0.35265676509E+03  0.17316215108E+03 0.  0.
        -24    2    5    5    0    0 -0.49885022263E+02  0.67607405936E+02 -0.17699859297E+03  0.21092950367E+03  0.78124751658E+02 0.  0.
          5    1    3    3  501    0  0.48222023615E+02  0.63131562310E+02 -0.99085792271E+02  0.12708674971E+03  0.47000000000E+01 0. -1.
        -11    1    4    4    0    0  0.39257786087E+02 -0.74335206584E+02 -0.38784392098E+02  0.92580374685E+02  0.00000000000E+00 0.  1.
         12    1    4    4    0    0  0.27428058951E+02  0.83511546110E+01 -0.56797967417E+02  0.63624282344E+02  0.00000000000E+00 0. -1.
         -5    1    5    5    0  502 -0.65022846389E+02 -0.64754916273E+02 -0.10790438774E+03  0.14172726142E+03  0.47000000000E+01 0.  1.
         11    1    6    6    0    0  0.22139935170E+01 -0.34517567300E+01  0.63205313915E+01  0.75342888774E+01  0.00000000000E+00 0. -1.
        -12    1    6    6    0    0 -0.52099015780E+02  0.71059162666E+02 -0.18331912436E+03  0.20339521479E+03  0.00000000000E+00 0.  1.
</event>
<event>
12    1  0.9966151E-001  0.2372037E+03  0.7818608E-02  0.1121795E+00
         21   -1    0    0  501  502  0.00000000000E+00  0.00000000000E+00  0.41141211437E+03  0.41141211437E+03  0.00000000000E+00 0. -1.
         21   -1    0    0  502  503 -0.00000000000E+00 -0.00000000000E+00 -0.17408895431E+03  0.17408895431E+03  0.00000000000E+00 0. -1.
         -6    2    1    2    0  503  0.15665200819E+03 -0.47498031932E+02  0.25513168667E+03  0.34836445199E+03  0.17166740856E+03 0.  0.
        -24    2    3    3    0    0  0.14468649379E+03  0.27209219638E+02  0.18480901165E+03  0.24496369961E+03  0.64639927453E+02 0.  0.
          6    2    1    2  501    0 -0.15665200819E+03  0.47498031932E+02 -0.17808526608E+02  0.23713661669E+03  0.17064793185E+03 0.  0.
         24    2    5    5    0    0 -0.15238258336E+03  0.84024222628E+02 -0.39103640138E+02  0.19438193910E+03  0.77296325118E+02 0.  0.
          5    1    5    5  501    0 -0.42694248292E+01 -0.36526190696E+02  0.21295113530E+02  0.42754677585E+02  0.47000000000E+01 0. -1.
        -11    1    6    6    0    0 -0.66744516007E+02  0.10455294303E+02 -0.45254904601E+02  0.81315127660E+02  0.00000000000E+00 0.  1.
         12    1    6    6    0    0 -0.85638067355E+02  0.73568928325E+02  0.61512644625E+01  0.11306681144E+03  0.00000000000E+00 0. -1.
         -5    1    3    3    0  503  0.11965514404E+02 -0.74707251570E+02  0.70322675023E+02  0.10340075239E+03  0.47000000000E+01 0.  1.
         11    1    4    4    0    0  0.82057675244E+02  0.47651638573E+02  0.11084579748E+03  0.14591412387E+03  0.00000000000E+00 0. -1.
        -12    1    4    4    0    0  0.62628818544E+02 -0.20442418935E+02  0.73963214169E+02  0.99049575740E+02  0.00000000000E+00 0.  1.
</event>
<event>
12    1  0.9966151E-001  0.3039451E+03  0.7818608E-02  0.1084008E+00
         21   -1    0    0  503  502  0.00000000000E+00  0.00000000000E+00  0.25463435190E+03  0.25463435190E+03  0.00000000000E+00 0. -1.
         21   -1    0    0  501  503 -0.00000000000E+00 -0.00000000000E+00 -0.42549809976E+03  0.42549809976E+03  0.00000000000E+00 0. -1.
          6    2    1    2  501    0  0.18127227558E+03 -0.16194020292E+03  0.52805714529E+02  0.30275909955E+03  0.17259884605E+03 0.  0.
         24    2    3    3    0    0  0.72758711215E+02 -0.32147342988E+02 -0.26085368311E+02  0.11603129473E+03  0.80346332821E+02 0.  0.
         -6    2    1    2    0  502 -0.18127227558E+03  0.16194020292E+03 -0.22366946239E+03  0.37737335210E+03  0.18247835832E+03 0.  0.
        -24    2    5    5    0    0 -0.46185364988E+02  0.82596677340E+02 -0.54513457396E+02  0.14676608316E+03  0.98047269624E+02 0.  0.
          5    1    3    3  501    0  0.10851356437E+03 -0.12979285993E+03  0.78891082840E+02  0.18672780482E+03  0.47000000000E+01 0. -1.
        -13    1    4    4    0    0  0.70213947320E+02  0.36929662547E+01  0.21348394466E+01  0.70343400099E+02  0.00000000000E+00 0.  1.
         14    1    4    4    0    0  0.25447638953E+01 -0.35840309242E+02 -0.28220207757E+02  0.45687894630E+02  0.00000000000E+00 0. -1.
         -5    1    5    5    0  502 -0.13508691059E+03  0.79343525582E+02 -0.16915600499E+03  0.23060726895E+03  0.47000000000E+01 0.  1.
         11    1    6    6    0    0 -0.29548483278E+02  0.43843183425E+02  0.23674386827E+02  0.57929389678E+02  0.00000000000E+00 0. -1.
        -12    1    6    6    0    0 -0.16636881711E+02  0.38753493916E+02 -0.78187844223E+02  0.88836693477E+02  0.00000000000E+00 0.  1.
</event>
<event>
12    1  0.9966151E-001  0.2191219E+03  0.7818608E-02  0.1134621E+00
         21   -1    0    0  501  502  0.00000000000E+00  0.00000000000E+00  0.22974835955E+03  0.22974835955E+03  0.00000000000E+00 0.  1.
         21   -1    0    0  502  503 -0.00000000000E+00 -0.00000000000E+00 -0.24357934252E+03  0.24357934252E+03  0.00000000000E+00 0.  1.
         -6    2    1    2    0  503 -0.78945003873E+02  0.11292567188E+03  0.82812311049E+02  0.23384004496E+03  0.16981980673E+03 0.  0.
        -24    2    3    3    0    0 -0.91614696489E+02  0.14293438283E+03  0.82167191501E+02  0.20092272393E+03  0.69245961808E+02 0.  0.
          6    2    1    2  501    0  0.78945003873E+02 -0.11292567188E+03 -0.96643294010E+02  0.23948765712E+03  0.17038160296E+03 0.  0.
         24    2    5    5    0    0  0.10810977800E+03 -0.45843067269E+02 -0.87797870393E+02  0.16565682745E+03  0.77099983911E+02 0.  0.
          5    1    5    5  501    0 -0.29164774123E+02 -0.67082604608E+02 -0.88454236173E+01  0.73830829669E+02  0.47000000000E+01 0. -1.
        -11    1    6    6    0    0 -0.52822660042E+01 -0.23661033864E+02 -0.92685950005E+01  0.25954839836E+02  0.00000000000E+00 0.  1.
         12    1    6    6    0    0  0.11339204400E+03 -0.22182033406E+02 -0.78529275393E+02  0.13970198761E+03  0.00000000000E+00 0. -1.
         -5    1    3    3    0  503  0.12669692616E+02 -0.30008710951E+02  0.64511954791E+00  0.32917321021E+02  0.47000000000E+01 0.  1.
         13    1    4    4    0    0 -0.17718170652E+00 -0.63265251824E+01  0.94585029754E+01  0.11380667501E+02  0.00000000000E+00 0. -1.
        -14    1    4    4    0    0 -0.91437514783E+02  0.14926090801E+03  0.72708688526E+02  0.18954205643E+03  0.00000000000E+00 0.  1.
</event>
<event>
12    1  0.9966151E-001  0.2497935E+03  0.7818608E-02  0.1113529E+00
         21   -1    0    0  503  502  0.00000000000E+00  0.00000000000E+00  0.26727882312E+03  0.26727882312E+03  0.00000000000E+00 0.  1.
         21   -1    0    0  501  503 -0.00000000000E+00 -0.00000000000E+00 -0.26371991849E+03  0.26371991849E+03  0.00000000000E+00 0.  1.
          6    2    1    2  501    0 -0.15378391652E+02 -0.18009468280E+03 -0.88977777331E+02  0.26516754059E+03  0.17241284762E+03 0.  0.
         24    2    3    3    0    0 -0.63771537499E+02 -0.16942978849E+03 -0.86501437722E+02  0.21532921404E+03  0.78172306277E+02 0.  0.
         -6    2    1    2    0  502  0.15378391652E+02  0.18009468280E+03  0.92536681960E+02  0.26583120102E+03  0.17155931984E+03 0.  0.
        -24    2    5    5    0    0  0.41401545755E+02  0.10360832109E+03  0.11813539082E+03  0.18095039063E+03  0.79613448084E+02 0.  0.
          5    1    3    3  501    0  0.48393145848E+02 -0.10664894302E+02 -0.24763396089E+01  0.49838326551E+02  0.47000000000E+01 0. -1.
        -13    1    4    4    0    0  0.97428586899E+01 -0.20560553079E+02 -0.34533515035E+02  0.41354846137E+02  0.00000000000E+00 0.  1.
         14    1    4    4    0    0 -0.73514396189E+02 -0.14886923542E+03 -0.51967922687E+02  0.17397436791E+03  0.00000000000E+00 0. -1.
         -5    1    5    5    0  502 -0.26023154104E+02  0.76486361711E+02 -0.25598708856E+02  0.84880810389E+02  0.47000000000E+01 0.  1.
         11    1    6    6    0    0  0.40669902739E+02  0.80062168339E+02  0.38149055973E+02  0.97567116692E+02  0.00000000000E+00 0. -1.
        -12    1    6    6    0    0  0.73164301659E+00  0.23546152747E+02  0.79986334842E+02  0.83383273936E+02  0.00000000000E+00 0.  1.
</event>
<event>
12    1  0.9966151E-001  0.1762002E+03  0.7818608E-02  0.1172224E+00
         21   -1    0    0  503  502  0.00000000000E+00  0.00000000000E+00  0.40442231096E+03  0.40442231096E+03  0.00000000000E+00 0. -1.
         21   -1    0    0  501  503 -0.00000000000E+00 -0.00000000000E+00 -0.91352181052E+02  0.91352181052E+02  0.00000000000E+00 0. -1.
          6    2    1    2  501    0  0.12167203325E+02  0.30625338524E+02  0.52485308741E+02  0.18120976467E+03  0.17028305548E+03 0.  0.
         24    2    3    3    0    0 -0.14121992512E+02 -0.26493207621E+02  0.73051310252E+02  0.11488706457E+03  0.83433943647E+02 0.  0.
         -6    2    1    2    0  502 -0.12167203325E+02 -0.30625338524E+02  0.26058482116E+03  0.31456472733E+03  0.17309120852E+03 0.  0.
        -24    2    5    5    0    0 -0.71415468813E+02 -0.10150888668E+02  0.19561598619E+03  0.22416229607E+03  0.82340216181E+02 0.  0.
          5    1    3    3  501    0  0.26289195836E+02  0.57118546145E+02 -0.20566001511E+02  0.66322700108E+02  0.47000000000E+01 0. -1.
        -11    1    4    4    0    0 -0.12958645531E+02  0.17444673659E+02  0.67101820557E+02  0.70532952974E+02  0.00000000000E+00 0.  1.
         12    1    4    4    0    0 -0.11633469803E+01 -0.43937881280E+02  0.59494896946E+01  0.44354111593E+02  0.00000000000E+00 0. -1.
         -5    1    5    5    0  502  0.59248265488E+02 -0.20474449856E+02  0.64968834977E+02  0.90402431265E+02  0.47000000000E+01 0.  1.
         13    1    6    6    0    0 -0.77278897357E+02  0.16293715884E+02  0.11831650021E+03  0.14225437560E+03  0.00000000000E+00 0. -1.
        -14    1    6    6    0    0  0.58634285435E+01 -0.26444604552E+02  0.77299485974E+02  0.81907920472E+02  0.00000000000E+00 0.  1.
</event>
<event>
12    1  0.9966151E-001  0.1862049E+03  0.7818608E-02  0.1161987E+00
         21   -1    0    0  503  502  0.00000000000E+00  0.00000000000E+00  0.38181509282E+03  0.38181509282E+03  0.00000000000E+00 0. -1.
         21   -1    0    0  501  503 -0.00000000000E+00 -0.00000000000E+00 -0.90772309059E+02  0.90772309059E+02  0.00000000000E+00 0. -1.
          6    2    1    2  501    0  0.52079870534E+02 -0.49615865251E+02  0.13841564867E+03  0.23201538391E+03  0.17175039905E+03 0.  0.
         24    2    3    3    0    0  0.94833156170E+02 -0.21651976176E+02  0.12931945999E+03  0.17991305024E+03  0.78632355519E+02 0.  0.
         -6    2    1    2    0  502 -0.52079870534E+02  0.49615865251E+02  0.15262713509E+03  0.24057201797E+03  0.17148121315E+03 0.  0.
        -24    2    5    5    0    0 -0.88165645678E+02  0.46216500619E-01  0.76604141446E+02  0.14279206702E+03  0.82147408383E+02 0.  0.
          5    1    3    3  501    0 -0.42753285636E+02 -0.27963889075E+02  0.90961886858E+01  0.52102333666E+02  0.47000000000E+01 0. -1.
        -11    1    4    4    0    0  0.63659245925E+00  0.17259396165E+02  0.28757233168E+01  0.17508906035E+02  0.00000000000E+00 0.  1.
         12    1    4    4    0    0  0.94196563711E+02 -0.38911372341E+02  0.12644373667E+03  0.16240414421E+03  0.00000000000E+00 0. -1.
         -5    1    5    5    0  502  0.36085775144E+02  0.49569648750E+02  0.76022993639E+02  0.97779950945E+02  0.47000000000E+01 0.  1.
         11    1    6    6    0    0 -0.51805169804E+02  0.33794719336E+02  0.14907922935E+02  0.63624718778E+02  0.00000000000E+00 0. -1.
        -12    1    6    6    0    0 -0.36360475874E+02 -0.33748502835E+02  0.61696218511E+02  0.79167348244E+02  0.00000000000E+00 0.  1.
</event>
<event>
12    1  0.9966151E-001  0.1852441E+03  0.7818608E-02  0.1164142E+00
         21   -1    0    0  501  502  0.00000000000E+00  0.00000000000E+00  0.59926236949E+02  0.59926236949E+02  0.00000000000E+00 0. -1.
         21   -1    0    0  502  503 -0.00000000000E+00 -0.00000000000E+00 -0.59334651423E+03  0.59334651423E+03  0.00000000000E+00 0. -1.
         -6    2    1    2    0  503 -0.56881787889E+02  0.10901440604E+01 -0.35297481666E+03  0.39863092662E+03  0.17629142989E+03 0.  0.
        -24    2    3    3    0    0 -0.54478219649E+02  0.21735725068E+02 -0.65660896101E+02  0.11052782684E+03  0.66818628155E+02 0.  0.
          6    2    1    2  501    0  0.56881787889E+02 -0.10901440604E+01 -0.18044546062E+03  0.25464182456E+03  0.17042643090E+03 0.  0.
         24    2    5    5    0    0  0.57525366084E+02  0.37971967146E+02 -0.18730026805E+03  0.21470010314E+03  0.79143577405E+02 0.  0.
          5    1    5    5  501    0 -0.64357819470E+00 -0.39062111207E+02  0.68548074337E+01  0.39941721417E+02  0.47000000000E+01 0. -1.
        -13    1    6    6    0    0  0.45517545213E+02  0.25892773049E+02 -0.38670306187E+02  0.65097428513E+02  0.00000000000E+00 0.  1.
         14    1    6    6    0    0  0.12007820871E+02  0.12079194097E+02 -0.14862996186E+03  0.14960267463E+03  0.00000000000E+00 0. -1.
         -5    1    3    3    0  503 -0.24035682408E+01 -0.20645581007E+02 -0.28731392056E+03  0.28810309978E+03  0.47000000000E+01 0.  1.
         11    1    4    4    0    0  0.74899045885E+01  0.21294254152E+02 -0.34334541179E+02  0.41090201369E+02  0.00000000000E+00 0. -1.
        -12    1    4    4    0    0 -0.61968124237E+02  0.44147091597E+00 -0.31326354923E+02  0.69437625469E+02  0.00000000000E+00 0.  1.
</event>
<event>
12    1  0.9966151E-001  0.3745313E+03  0.7818608E-02  0.1053318E+00
         21   -1    0    0  501  502  0.00000000000E+00  0.00000000000E+00  0.99787803627E+03  0.99787803627E+03  0.00000000000E+00 0. -1.
         21   -1    0    0  502  503 -0.00000000000E+00 -0.00000000000E+00 -0.28459069503E+03  0.28459069503E+03  0.00000000000E+00 0.  1.
         -6    2    1    2    0  503  0.32258311675E+03  0.56679953098E+02 -0.10251650382E+03  0.38479976268E+03  0.17403660393E+03 0.  0.
        -24    2    3    3    0    0  0.18300589849E+03  0.27679222210E+02  0.10677874293E+02  0.20270665603E+03  0.81967512942E+02 0.  0.
          6    2    1    2  501    0 -0.32258311675E+03 -0.56679953098E+02  0.81580384507E+03  0.89766896862E+03  0.18166226715E+03 0.  0.
         24    2    5    5    0    0 -0.21336937777E+03 -0.40810625844E+02  0.35842582121E+03  0.42714136791E+03  0.82393448244E+02 0.  0.
          5    1    5    5  501    0 -0.10921373898E+03 -0.15869327254E+02  0.45737802386E+03  0.47052760072E+03  0.47000000000E+01 0. -1.
        -11    1    6    6    0    0 -0.19548647734E+02 -0.33004412329E+02  0.59382114005E+02  0.70694245347E+02  0.00000000000E+00 0.  1.
         12    1    6    6    0    0 -0.19382073004E+03 -0.78062135152E+01  0.29904370721E+03  0.35644712256E+03  0.00000000000E+00 0. -1.
         -5    1    3    3    0  503  0.13957721826E+03  0.29000730888E+02 -0.11319437812E+03  0.18209310664E+03  0.47000000000E+01 0.  1.
         11    1    4    4    0    0  0.13754714815E+02  0.21377932590E+02  0.21073182417E+02  0.33019497249E+02  0.00000000000E+00 0. -1.
        -12    1    4    4    0    0  0.16925118367E+03  0.63012896204E+01 -0.10395308124E+02  0.16968715879E+03  0.00000000000E+00 0.  1.
</event>
<event>
12    1  0.9966151E-001  0.2179014E+03  0.7818608E-02  0.1135681E+00
         21   -1    0    0  503  502  0.00000000000E+00  0.00000000000E+00  0.68652078258E+02  0.68652078258E+02  0.00000000000E+00 0.  1.
         21   -1    0    0  501  503 -0.00000000000E+00 -0.00000000000E+00 -0.80710552033E+03  0.80710552033E+03  0.00000000000E+00 0.  1.
          6    2    1    2  501    0 -0.93635306730E+02  0.94267393446E+02 -0.20007120341E+03  0.29495086789E+03  0.17121219554E+03 0.  0.
         24    2    3    3    0    0 -0.71430871112E+01  0.97302225096E+02 -0.93979005020E+02  0.15795539783E+03  0.81234891618E+02 0.  0.
         -6    2    1    2    0  502  0.93635306730E+02 -0.94267393446E+02 -0.53838223866E+03  0.58080673070E+03  0.17270527319E+03 0.  0.
        -24    2    5    5    0    0 -0.81598802150E+01 -0.33405521730E+01 -0.16844418289E+03  0.18646397921E+03  0.79483519407E+02 0.  0.
          5    1    3    3  501    0 -0.86492219619E+02 -0.30348316502E+01 -0.10609219839E+03  0.13699547006E+03  0.47000000000E+01 0. -1.
        -11    1    4    4    0    0 -0.18628633924E+02  0.69210659436E+02 -0.10372556285E+03  0.12607987060E+03  0.00000000000E+00 0.  1.
         12    1    4    4    0    0  0.11485546812E+02  0.28091565660E+02  0.97465578276E+01  0.31875527232E+02  0.00000000000E+00 0. -1.
         -5    1    5    5    0  502  0.10179518695E+03 -0.90926841273E+02 -0.36993805577E+03  0.39434275149E+03  0.47000000000E+01 0.  1.
         11    1    6    6    0    0  0.16647206275E+02 -0.61448625651E+01 -0.16609874535E+01  0.17822673538E+02  0.00000000000E+00 0. -1.
        -12    1    6    6    0    0 -0.24807086490E+02  0.28043103920E+01 -0.16678319544E+03  0.16864130567E+03  0.00000000000E+00 0.  1.
</event>
<event>
12    1  0.1230495E+000  0.2423247E+03  0.7818608E-02  0.1118257E+00
         21   -1    0    0  503  502  0.00000000000E+00  0.00000000000E+00  0.14262742346E+04  0.14262742346E+04  0.00000000000E+00 0. -1.
         21   -1    0    0  501  503 -0.00000000000E+00 -0.00000000000E+00 -0.24446095709E+03  0.24446095709E+03  0.00000000000E+00 0. -1.
          6    2    1    2  501    0 -0.16705243969E+03 -0.33463152780E+02  0.13526998621E+04  0.13742336629E+04  0.17232220745E+03 0.  0.
         24    2    3    3    0    0 -0.16079825655E+03 -0.74597994621E+02  0.99164315863E+03  0.10107570844E+04  0.82781576917E+02 0.  0.
         -6    2    1    2    0  502  0.16705243969E+03  0.33463152780E+02 -0.17088658458E+03  0.29650152878E+03  0.17229228531E+03 0.  0.
        -24    2    5    5    0    0  0.99389226773E+02 -0.29490596605E+02 -0.15441250511E+03  0.20250700639E+03  0.80112122786E+02 0.  0.
          5    1    3    3  501    0 -0.62541831397E+01  0.41134841841E+02  0.36105670349E+03  0.36347657855E+03  0.47000000000E+01 0. -1.
        -11    1    4    4    0    0 -0.11669823976E+03 -0.12254114455E+02  0.66792378933E+03  0.67815251296E+03  0.00000000000E+00 0.  1.
         12    1    4    4    0    0 -0.44100016792E+02 -0.62343880166E+02  0.32371936930E+03  0.33260457143E+03  0.00000000000E+00 0. -1.
         -5    1    5    5    0  502  0.67663212918E+02  0.62953749385E+02 -0.16474079471E+02  0.93994522386E+02  0.47000000000E+01 0.  1.
         11    1    6    6    0    0  0.25314437038E+01  0.21168896141E+02 -0.31318413195E+02  0.37886321755E+02  0.00000000000E+00 0. -1.
        -12    1    6    6    0    0  0.96857783069E+02 -0.50659492746E+02 -0.12309409192E+03  0.16462068464E+03  0.00000000000E+00 0.  1.
</event>
<event>
12    1  0.1009073E+000  0.1802135E+03  0.7818608E-02  0.1167651E+00
         21   -1    0    0  503  502  0.00000000000E+00  0.00000000000E+00  0.12039806598E+03  0.12039806598E+03  0.00000000000E+00 0. -1.
         21   -1    0    0  501  503 -0.00000000000E+00 -0.00000000000E+00 -0.39845865624E+03  0.39845865624E+03  0.00000000000E+00 0. -1.
          6    2    1    2  501    0 -0.40773777198E+02  0.37630571785E+02  0.86687735224E+01  0.18019667220E+03  0.17122246406E+03 0.  0.
         24    2    3    3    0    0 -0.19855239023E+02 -0.68536204024E+01 -0.55531880734E+02  0.99201347641E+02  0.79472730962E+02 0.  0.
         -6    2    1    2    0  502  0.40773777198E+02 -0.37630571785E+02 -0.28672936378E+03  0.33866005002E+03  0.17145944297E+03 0.  0.
        -24    2    5    5    0    0  0.86508507106E+02 -0.20923049562E+02 -0.14920748841E+03  0.19269716766E+03  0.83353632342E+02 0.  0.
          5    1    3    3  501    0 -0.20918538175E+02  0.44484192188E+02  0.64200654257E+02  0.80995324562E+02  0.47000000000E+01 0. -1.
        -11    1    4    4    0    0  0.18819897928E+02 -0.30967098854E+02 -0.19845806904E+02  0.41315926967E+02  0.00000000000E+00 0.  1.
         12    1    4    4    0    0 -0.38675136951E+02  0.24113478452E+02 -0.35686073830E+02  0.57885420674E+02  0.00000000000E+00 0. -1.
         -5    1    5    5    0  502 -0.45734729908E+02 -0.16707522224E+02 -0.13752187537E+03  0.14596288235E+03  0.47000000000E+01 0.  1.
         11    1    6    6    0    0  0.46601571453E+02 -0.30075641012E+02 -0.14020375395E+03  0.15077580464E+03  0.00000000000E+00 0. -1.
        -12    1    6    6    0    0  0.39906935653E+02  0.91525914508E+01 -0.90037344582E+01  0.41921363023E+02  0.00000000000E+00 0.  1.
</event>
<event>
12    1  0.9966151E-001  0.2062865E+03  0.7818608E-02  0.1144683E+00
         21   -1    0    0  503  502  0.00000000000E+00  0.00000000000E+00  0.29426474974E+02  0.29426474974E+02  0.00000000000E+00 0.  1.
         21   -1    0    0  501  503 -0.00000000000E+00 -0.00000000000E+00 -0.15596826476E+04  0.15596826476E+04  0.00000000000E+00 0.  1.
          6    2    1    2  501    0  0.79898070243E+02 -0.79148065903E+02 -0.54733945239E+03  0.58492271826E+03  0.17293349078E+03 0.  0.
         24    2    3    3    0    0  0.67893065153E+02  0.12337229253E+02 -0.35068322670E+03  0.36764538286E+03  0.86155246670E+02 0.  0.
         -6    2    1    2    0  502 -0.79898070243E+02  0.79148065903E+02 -0.98291672025E+03  0.10041864043E+04  0.17209572255E+03 0.  0.
        -24    2    5    5    0    0 -0.67077591375E+02 -0.17353954460E+02 -0.43734865495E+03  0.44998101957E+03  0.80053163518E+02 0.  0.
          5    1    3    3  501    0  0.12005005089E+02 -0.91485295155E+02 -0.19665622568E+03  0.21727733540E+03  0.47000000000E+01 0. -1.
        -11    1    4    4    0    0  0.14206567085E+01  0.23315684663E+02 -0.21863737452E+02  0.31994725068E+02  0.00000000000E+00 0.  1.
         12    1    4    4    0    0  0.66472408445E+02 -0.10978455411E+02 -0.32881948925E+03  0.33565065780E+03  0.00000000000E+00 0. -1.
         -5    1    5    5    0  502 -0.12820478867E+02  0.96502020362E+02 -0.54556806530E+03  0.55420538475E+03  0.47000000000E+01 0.  1.
         13    1    6    6    0    0 -0.14019405928E+02 -0.83692233957E+00 -0.63472870010E+01  0.15412080776E+02  0.00000000000E+00 0. -1.
        -14    1    6    6    0    0 -0.53058185447E+02 -0.16517032120E+02 -0.43100136795E+03  0.43456893880E+03  0.00000000000E+00 0.  1.
</event>
<event>
12    1  0.9966151E-001  0.2071663E+03  0.7818608E-02  0.1144350E+00
         21   -1    0    0  501  502  0.00000000000E+00  0.00000000000E+00  0.17433909996E+03  0.17433909996E+03  0.00000000000E+00 0.  1.
         21   -1    0    0  502  503 -0.00000000000E+00 -0.00000000000E+00 -0.27222380953E+03  0.27222380953E+03  0.00000000000E+00 0.  1.
         -6    2    1    2    0  503  0.58934600580E+02  0.96573974972E+02  0.24313075904E+02  0.20604224815E+03  0.17047716145E+03 0.  0.
        -24    2    3    3    0    0  0.48475806091E+02  0.54461529539E+02  0.80761791174E+02  0.13468825808E+03  0.79388273544E+02 0.  0.
          6    2    1    2  501    0 -0.58934600580E+02 -0.96573974972E+02 -0.12219778548E+03  0.24052066134E+03  0.17354558470E+03 0.  0.
         24    2    5    5    0    0 -0.10524094408E+03 -0.89315277262E+02 -0.99829639286E+02  0.18837288954E+03  0.80408417283E+02 0.  0.
          5    1    5    5  501    0  0.46306343496E+02 -0.72586977100E+01 -0.22368146189E+02  0.52147771806E+02  0.47000000000E+01 0. -1.
        -13    1    6    6    0    0 -0.62327973345E+02 -0.85466041615E+02 -0.36745871849E+02  0.11197981795E+03  0.00000000000E+00 0.  1.
         14    1    6    6    0    0 -0.42912970730E+02 -0.38492356465E+01 -0.63083767437E+02  0.76393071584E+02  0.00000000000E+00 0. -1.
         -5    1    3    3    0  503  0.10458794489E+02  0.42112445432E+02 -0.56448715270E+02  0.71353990064E+02  0.47000000000E+01 0.  1.
         13    1    4    4    0    0  0.44875695305E+01 -0.19814689015E+02  0.81663761131E+01  0.21896343985E+02  0.00000000000E+00 0. -1.
        -14    1    4    4    0    0  0.43988236560E+02  0.74276218555E+02  0.72595415061E+02  0.11279191410E+03  0.00000000000E+00 0.  1.
</event>
<event>
12    1  0.9966151E-001  0.2817398E+03  0.7818608E-02  0.1095637E+00
         21   -1    0    0  503  502  0.00000000000E+00  0.00000000000E+00  0.49290765876E+03  0.49290765876E+03  0.00000000000E+00 0.  1.
         21   -1    0    0  501  503 -0.00000000000E+00 -0.00000000000E+00 -0.15841732610E+03  0.15841732610E+03  0.00000000000E+00 0.  1.
          6    2    1    2  501    0 -0.22690947127E+03  0.12020281695E+02  0.13835993178E+03  0.30804016841E+03  0.15528322288E+03 0.  0.
         24    2    3    3    0    0 -0.11842093289E+03 -0.10581730648E+02  0.17955739259E+02  0.14433349934E+03  0.79838963480E+02 0.  0.
         -6    2    1    2    0  502  0.22690947127E+03 -0.12020281695E+02  0.19613040088E+03  0.34328481644E+03  0.16656811137E+03 0.  0.
        -24    2    5    5    0    0  0.79579238088E+02 -0.33716353287E+02  0.14242832869E+03  0.18490893542E+03  0.80223674627E+02 0.  0.
          5    1    3    3  501    0 -0.10848853838E+03  0.22602012343E+02  0.12040419252E+03  0.16370666907E+03  0.47000000000E+01 0. -1.
        -13    1    4    4    0    0 -0.55502578960E+02  0.24912572125E+02 -0.18267730097E+02  0.63520724838E+02  0.00000000000E+00 0.  1.
         14    1    4    4    0    0 -0.62918353934E+02 -0.35494302773E+02  0.36223469357E+02  0.80812774506E+02  0.00000000000E+00 0. -1.
         -5    1    5    5    0  502  0.14733023318E+03  0.21696071592E+02  0.53702072192E+02  0.15837588102E+03  0.47000000000E+01 0.  1.
         13    1    6    6    0    0  0.66914471073E+02 -0.42806929205E+01  0.41125354388E+02  0.78658537645E+02  0.00000000000E+00 0. -1.
        -14    1    6    6    0    0  0.12664767015E+02 -0.29435660366E+02  0.10130297430E+03  0.10625039777E+03  0.00000000000E+00 0.  1.
</event>
<event>
12    1  0.9966151E-001  0.2367874E+03  0.7818608E-02  0.1122448E+00
         21   -1    0    0  503  502  0.00000000000E+00  0.00000000000E+00  0.55798795370E+03  0.55798795370E+03  0.00000000000E+00 0.  1.
         21   -1    0    0  501  503 -0.00000000000E+00 -0.00000000000E+00 -0.32083954865E+03  0.32083954865E+03  0.00000000000E+00 0. -1.
          6    2    1    2  501    0  0.16170146338E+03 -0.22347161042E+01  0.48397613015E+03  0.53879605645E+03  0.17296224638E+03 0.  0.
         24    2    3    3    0    0  0.30400388542E+02 -0.91282179921E+01  0.21823514062E+03  0.24226974035E+03  0.10030225571E+03 0.  0.
         -6    2    1    2    0  502 -0.16170146338E+03  0.22347161042E+01 -0.24682772510E+03  0.34003144590E+03  0.16895295532E+03 0.  0.
        -24    2    5    5    0    0 -0.83207458071E+02  0.54446028294E+02 -0.19005002417E+03  0.22988097013E+03  0.82694604816E+02 0.  0.
          5    1    3    3  501    0  0.13130107484E+03  0.68935018879E+01  0.26574098953E+03  0.29652631610E+03  0.47000000000E+01 0. -1.
        -13    1    4    4    0    0  0.25712878535E+02 -0.21616150202E+02  0.22487475384E+03  0.22736988584E+03  0.00000000000E+00 0.  1.
         14    1    4    4    0    0  0.46875100066E+01  0.12487932210E+02 -0.66396132150E+01  0.14899854516E+02  0.00000000000E+00 0. -1.
         -5    1    5    5    0  502 -0.78494005307E+02 -0.52211312190E+02 -0.56777700929E+02  0.11015047577E+03  0.47000000000E+01 0.  1.
         11    1    6    6    0    0 -0.65832519261E+02  0.10878857434E+02 -0.16206293839E+03  0.17526170754E+03  0.00000000000E+00 0. -1.
        -12    1    6    6    0    0 -0.17374938810E+02  0.43567170860E+02 -0.27987085785E+02  0.54619262592E+02  0.00000000000E+00 0.  1.
</event>
<event>
12    1  0.9966151E-001  0.2019207E+03  0.7818608E-02  0.1148342E+00
         21   -1    0    0  503  502  0.00000000000E+00  0.00000000000E+00  0.65943887457E+03  0.65943887457E+03  0.00000000000E+00 0. -1.
         21   -1    0    0  501  503 -0.00000000000E+00 -0.00000000000E+00 -0.99288752587E+02  0.99288752587E+02  0.00000000000E+00 0. -1.
          6    2    1    2  501    0 -0.22148263924E+02  0.10134227980E+03  0.46526088562E+02  0.20721154964E+03  0.17323725384E+03 0.  0.
         24    2    3    3    0    0 -0.26621279903E+02  0.13951283590E+03  0.33893196593E+02  0.16648466436E+03  0.79974188138E+02 0.  0.
         -6    2    1    2    0  502  0.22148263924E+02 -0.10134227980E+03  0.51362403342E+03  0.55151607751E+03  0.17204514751E+03 0.  0.
        -24    2    5    5    0    0  0.67788725952E+02 -0.11387004766E+03  0.41832635397E+03  0.44500910849E+03  0.73989655325E+02 0.  0.
          5    1    3    3  501    0  0.44730159791E+01 -0.38170556099E+02  0.12632891969E+02  0.40726885277E+02  0.47000000000E+01 0. -1.
        -13    1    4    4    0    0  0.19965903251E+02  0.60952764874E+02  0.38897904742E+02  0.75012824448E+02  0.00000000000E+00 0.  1.
         14    1    4    4    0    0 -0.46587183154E+02  0.78560071027E+02 -0.50047081485E+01  0.91471839916E+02  0.00000000000E+00 0. -1.
         -5    1    5    5    0  502 -0.45640462027E+02  0.12527767860E+02  0.95297679447E+02  0.10650696902E+03  0.47000000000E+01 0.  1.
         13    1    6    6    0    0  0.62684642147E+01 -0.37486905273E+01 -0.76703810680E+00  0.73440228579E+01  0.00000000000E+00 0. -1.
        -14    1    6    6    0    0  0.61520261737E+02 -0.11012135714E+03  0.41909339208E+03  0.43766508564E+03  0.00000000000E+00 0.  1.
</event>
<event>
12    1  0.9966151E-001  0.8219170E+03  0.7818608E-02  0.9529129E-01
         21   -1    0    0  501  502  0.00000000000E+00  0.00000000000E+00  0.24620231769E+03  0.24620231769E+03  0.00000000000E+00 0. -1.
         21   -1    0    0  502  503 -0.00000000000E+00 -0.00000000000E+00 -0.27754626526E+04  0.27754626526E+04  0.00000000000E+00 0. -1.
         -6    2    1    2    0  503  0.76737428167E+03  0.23609079864E+03 -0.14324059306E+04  0.16510311067E+04  0.17179875475E+03 0.  0.
        -24    2    3    3    0    0  0.57431452992E+03  0.20723122419E+03 -0.11878845807E+04  0.13381130291E+04  0.81821402934E+02 0.  0.
          6    2    1    2  501    0 -0.76737428167E+03 -0.23609079864E+03 -0.10968544043E+04  0.13706338635E+04  0.17591318941E+03 0.  0.
         24    2    5    5    0    0 -0.37250422531E+03 -0.49652376969E+02 -0.47796326157E+03  0.61318420642E+03  0.79506195839E+02 0.  0.
          5    1    5    5  501    0 -0.39487005636E+03 -0.18643842167E+03 -0.61889114275E+03  0.75744965711E+03  0.47000000000E+01 0. -1.
        -13    1    6    6    0    0 -0.34792028672E+03 -0.63247835685E+02 -0.42207405265E+03  0.55063174677E+03  0.00000000000E+00 0.  1.
         14    1    6    6    0    0 -0.24583938587E+02  0.13595458716E+02 -0.55889208914E+02  0.62552459642E+02  0.00000000000E+00 0. -1.
         -5    1    3    3    0  503  0.19305975174E+03  0.28859574453E+02 -0.24452134982E+03  0.31291807762E+03  0.47000000000E+01 0.  1.
         13    1    4    4    0    0  0.28715958613E+03  0.75270275844E+02 -0.64290102437E+03  0.70812991003E+03  0.00000000000E+00 0. -1.
        -14    1    4    4    0    0  0.28715494379E+03  0.13196094834E+03 -0.54498355635E+03  0.62998311908E+03  0.00000000000E+00 0.  1.
</event>
<event>
12    1  0.9966151E-001  0.4571503E+03  0.7818608E-02  0.1025614E+00
         21   -1    0    0  501  502  0.00000000000E+00  0.00000000000E+00  0.27309479214E+03  0.27309479214E+03  0.00000000000E+00 0. -1.
         21   -1    0    0  502  503 -0.00000000000E+00 -0.00000000000E+00 -0.95377547511E+03  0.95377547511E+03  0.00000000000E+00 0.  1.
         -6    2    1    2    0  503 -0.40855829628E+03  0.11241857291E+03 -0.61310387095E+03  0.76475229739E+03  0.17144066846E+03 0.  0.
        -24    2    3    3    0    0 -0.13771664629E+03  0.12617113569E+02 -0.15131174105E+03  0.22015190087E+03  0.80290411986E+02 0.  0.
          6    2    1    2  501    0  0.40855829628E+03 -0.11241857291E+03 -0.67576812018E+02  0.46211796986E+03  0.17154758977E+03 0.  0.
         24    2    5    5    0    0  0.14165745350E+03 -0.54320503319E+02 -0.77728314197E+02  0.18873803542E+03  0.81011134855E+02 0.  0.
          5    1    5    5  501    0  0.26690084277E+03 -0.58098069590E+02  0.10151502179E+02  0.27337993445E+03  0.47000000000E+01 0. -1.
        -11    1    6    6    0    0  0.13732869516E+03 -0.40325166852E+02 -0.40523493921E+02  0.14875296016E+03  0.00000000000E+00 0.  1.
         12    1    6    6    0    0  0.43287583443E+01 -0.13995336467E+02 -0.37204820276E+02  0.39985075258E+02  0.00000000000E+00 0. -1.
         -5    1    3    3    0  503 -0.27084164999E+03  0.99801459340E+02 -0.46179212991E+03  0.54460039653E+03  0.47000000000E+01 0.  1.
         13    1    4    4    0    0 -0.10475422630E+03  0.41367664779E+02 -0.86722083414E+02  0.14214588059E+03  0.00000000000E+00 0. -1.
        -14    1    4    4    0    0 -0.32962419991E+02 -0.28750551210E+02 -0.64589657633E+02  0.78006020279E+02  0.00000000000E+00 0.  1.
</event>
<event>
12    1  0.9966151E-001  0.1927434E+03  0.7818608E-02  0.1160709E+00
         21   -1    0    0  503  502  0.00000000000E+00  0.00000000000E+00  0.68787280085E+03  0.68787280085E+03  0.00000000000E+00 0.  1.
         21   -1    0    0  501  503 -0.00000000000E+00 -0.00000000000E+00 -0.95328143751E+02  0.95328143751E+02  0.00000000000E+00 0.  1.
          6    2    1    2  501    0  0.24412650135E+02 -0.97646505829E+01  0.57867407955E+03  0.60992925435E+03  0.19094155933E+03 0.  0.
         24    2    3    3    0    0  0.17064655100E+02 -0.51303524509E+02  0.55109998611E+03  0.55931412117E+03  0.78726344794E+02 0.  0.
         -6    2    1    2    0  502 -0.24412650135E+02  0.97646505829E+01  0.13870577551E+02  0.17327169025E+03  0.17070254783E+03 0.  0.
        -24    2    5    5    0    0 -0.14014621550E+02  0.70683523273E+02 -0.16189645641E+01  0.10938707581E+03  0.82282083271E+02 0.  0.
          5    1    3    3  501    0  0.73479950345E+01  0.41538873926E+02  0.27574093441E+02  0.50615133184E+02  0.47000000000E+01 0. -1.
        -13    1    4    4    0    0 -0.51170078126E+01  0.11988216315E+02  0.27037927266E+03  0.27069328064E+03  0.00000000000E+00 0.  1.
         14    1    4    4    0    0  0.22181662913E+02 -0.63291740824E+02  0.28072071345E+03  0.28862084052E+03  0.00000000000E+00 0. -1.
         -5    1    5    5    0  502 -0.10398028584E+02 -0.60918872690E+02  0.15489542115E+02  0.63884614448E+02  0.47000000000E+01 0.  1.
         11    1    6    6    0    0 -0.11137003718E+02  0.82248250064E+02  0.19389745718E+02  0.85233618540E+02  0.00000000000E+00 0. -1.
        -12    1    6    6    0    0 -0.28776178324E+01 -0.11564726791E+02 -0.21008710282E+02  0.24153457265E+02  0.00000000000E+00 0.  1.
</event>
<event>
12    1  0.9966151E-001  0.1782413E+03  0.7818608E-02  0.1169798E+00
         21   -1    0    0  503  502  0.00000000000E+00  0.00000000000E+00  0.31670501061E+02  0.31670501061E+02  0.00000000000E+00 0.  1.
         21   -1    0    0  501  503 -0.00000000000E+00 -0.00000000000E+00 -0.10299364040E+04  0.10299364040E+04  0.00000000000E+00 0.  1.
          6    2    1    2  501    0  0.81243498807E+01  0.44288286102E+02 -0.59293339621E+03  0.61881529106E+03  0.17127432603E+03 0.  0.
         24    2    3    3    0    0 -0.31758796020E+02 -0.27899163755E+02 -0.37047512666E+03  0.38151492246E+03  0.80714510005E+02 0.  0.
         -6    2    1    2    0  502 -0.81243498807E+01 -0.44288286102E+02 -0.40533250671E+03  0.44279161399E+03  0.17246018402E+03 0.  0.
        -24    2    5    5    0    0  0.82440142194E+01  0.31995737461E+02 -0.28992745565E+03  0.30340871903E+03  0.83109748298E+02 0.  0.
          5    1    3    3  501    0  0.39883145901E+02  0.72187449857E+02 -0.22245826955E+03  0.23730036860E+03  0.47000000000E+01 0. -1.
        -13    1    4    4    0    0  0.11864930341E+02  0.60100702510E+00 -0.24964672050E+03  0.24992923566E+03  0.00000000000E+00 0.  1.
         14    1    4    4    0    0 -0.43623726361E+02 -0.28500170781E+02 -0.12082840616E+03  0.13158568680E+03  0.00000000000E+00 0. -1.
         -5    1    5    5    0  502 -0.16368364100E+02 -0.76284023562E+02 -0.11540505107E+03  0.13938289495E+03  0.47000000000E+01 0.  1.
         11    1    6    6    0    0  0.17209551773E+02  0.21123088306E+02 -0.28788223354E+03  0.28916869457E+03  0.00000000000E+00 0. -1.
        -12    1    6    6    0    0 -0.89655375536E+01  0.10872649155E+02 -0.20452221074E+01  0.14240024464E+02  0.00000000000E+00 0.  1.
</event>
<event>
12    1  0.9966151E-001  0.1787948E+03  0.7818608E-02  0.1169195E+00
         21   -1    0    0  503  502  0.00000000000E+00  0.00000000000E+00  0.26163765063E+02  0.26163765063E+02  0.00000000000E+00 0. -1.
         21   -1    0    0  501  503 -0.00000000000E+00 -0.00000000000E+00 -0.14923721866E+04  0.14923721866E+04  0.00000000000E+00 0. -1.
          6    2    1    2  501    0 -0.45223598376E+02  0.17765042570E+02 -0.10615540171E+04  0.10765057021E+04  0.17206633837E+03 0.  0.
         24    2    3    3    0    0 -0.59717241886E+02  0.69592292284E+02 -0.82857762797E+03  0.83734839526E+03  0.78754132209E+02 0.  0.
         -6    2    1    2    0  502  0.45223598376E+02 -0.17765042570E+02 -0.40465440438E+03  0.44203024953E+03  0.17112797528E+03 0.  0.
        -24    2    5    5    0    0  0.62497992825E+02 -0.31607605821E+02 -0.13454317284E+03  0.17097271197E+03  0.78897167431E+02 0.  0.
          5    1    3    3  501    0  0.14493643510E+02 -0.51827249714E+02 -0.23297638914E+03  0.23915730683E+03  0.47000000000E+01 0. -1.
        -13    1    4    4    0    0 -0.65026053007E+01  0.40422711203E+02 -0.58104036744E+03  0.58248106240E+03  0.00000000000E+00 0.  1.
         14    1    4    4    0    0 -0.53214636585E+02  0.29169581081E+02 -0.24753726053E+03  0.25486733286E+03  0.00000000000E+00 0. -1.
         -5    1    5    5    0  502 -0.17274394448E+02  0.13842563251E+02 -0.27011123154E+03  0.27105753755E+03  0.47000000000E+01 0.  1.
         13    1    6    6    0    0  0.77613194829E+01  0.15171534904E+02 -0.76823095059E+02  0.78690542545E+02  0.00000000000E+00 0. -1.
        -14    1    6    6    0    0  0.54736673342E+02 -0.46779140725E+02 -0.57720077783E+02  0.92282169430E+02  0.00000000000E+00 0.  1.
</event>
<event>
12    1  0.9966151E-001  0.2120215E+03  0.7818608E-02  0.1140075E+00
         21   -1    0    0  503  502  0.00000000000E+00  0.00000000000E+00  0.62733109532E+03  0.62733109532E+03  0.00000000000E+00 0.  1.
         21   -1    0    0  501  503 -0.00000000000E+00 -0.00000000000E+00 -0.18643451886E+03  0.18643451886E+03  0.00000000000E+00 0.  1.
          6    2    1    2  501    0  0.62189043574E+02  0.10600560566E+03  0.54004254730E+03  0.58017156902E+03  0.17276698481E+03 0.  0.
         24    2    3    3    0    0 -0.17432381176E+02  0.74422464601E+01  0.26262058510E+03  0.27514805818E+03  0.79859922725E+02 0.  0.
         -6    2    1    2    0  502 -0.62189043574E+02 -0.10600560566E+03 -0.99145970846E+02  0.23359404516E+03  0.17213828402E+03 0.  0.
        -24    2    5    5    0    0  0.30403542168E+01 -0.56231198048E+02 -0.11420187256E+03  0.15004085153E+03  0.79366227348E+02 0.  0.
          5    1    3    3  501    0  0.79621424750E+02  0.98563359199E+02  0.27742196220E+03  0.30502351084E+03  0.47000000000E+01 0. -1.
        -13    1    4    4    0    0  0.11137254213E+02  0.22792177460E+02  0.22066657355E+03  0.22211991912E+03  0.00000000000E+00 0.  1.
         14    1    4    4    0    0 -0.28569635389E+02 -0.15349931000E+02  0.41954011549E+02  0.53028139068E+02  0.00000000000E+00 0. -1.
         -5    1    5    5    0  502 -0.65229397791E+02 -0.49774407611E+02  0.15055901715E+02  0.83553193629E+02  0.47000000000E+01 0.  1.
         11    1    6    6    0    0 -0.18901167652E+02 -0.52796441776E+02 -0.31312140782E+02  0.64227475143E+02  0.00000000000E+00 0. -1.
        -12    1    6    6    0    0  0.21941521869E+02 -0.34347562722E+01 -0.82889731778E+02  0.85813376386E+02  0.00000000000E+00 0.  1.
</event>
<event>
12    1  0.9966151E-001  0.2111575E+03  0.7818608E-02  0.1140793E+00
         21   -1    0    0  501  502  0.00000000000E+00  0.00000000000E+00  0.49015506556E+03  0.49015506556E+03  0.00000000000E+00 0. -1.
         21   -1    0    0  502  503 -0.00000000000E+00 -0.00000000000E+00 -0.97974357525E+02  0.97974357525E+02  0.00000000000E+00 0. -1.
         -6    2    1    2    0  503  0.22021925861E+02 -0.11940865545E+03  0.11604446093E+03  0.24094353807E+03  0.17275439043E+03 0.  0.
        -24    2    3    3    0    0  0.23559381892E+02 -0.13967214033E+03  0.13579963801E+03  0.21221498759E+03  0.80810321219E+02 0.  0.
          6    2    1    2  501    0 -0.22021925861E+02  0.11940865545E+03  0.27613624710E+03  0.34718588501E+03  0.17188199316E+03 0.  0.
         24    2    5    5    0    0 -0.88045547655E+01  0.52719880104E+02  0.38447215985E+02  0.99920324997E+02  0.75159676607E+02 0.  0.
          5    1    5    5  501    0 -0.13217371096E+02  0.66688775341E+02  0.23768903112E+03  0.24726556001E+03  0.47000000000E+01 0. -1.
        -11    1    6    6    0    0 -0.21341705498E+01  0.30494968748E+02  0.60578239670E+02  0.67854409764E+02  0.00000000000E+00 0.  1.
         12    1    6    6    0    0 -0.66703842157E+01  0.22224911356E+02 -0.22131023685E+02  0.32065915233E+02  0.00000000000E+00 0. -1.
         -5    1    3    3    0  503 -0.15374560309E+01  0.20263484884E+02 -0.19755177086E+02  0.28728550475E+02  0.47000000000E+01 0.  1.
         11    1    4    4    0    0 -0.26301499034E+02 -0.85467785471E+02  0.75119653832E+02  0.11678815692E+03  0.00000000000E+00 0. -1.
        -12    1    4    4    0    0  0.49860880926E+02 -0.54204354859E+02  0.60679984182E+02  0.95426830675E+02  0.00000000000E+00 0.  1.
</event>
<event>
12    1  0.9966151E-001  0.4626445E+03  0.7818608E-02  0.1024054E+00
         21   -1    0    0  501  502  0.00000000000E+00  0.00000000000E+00  0.36694478549E+03  0.36694478549E+03  0.00000000000E+00 0.  1.
         21   -1    0    0  502  503 -0.00000000000E+00 -0.00000000000E+00 -0.58604975716E+03  0.58604975716E+03  0.00000000000E+00 0.  1.
         -6    2    1    2    0  503  0.29411539079E+03  0.31185071941E+03 -0.73382162992E+02  0.46842808517E+03  0.17402641995E+03 0.  0.
        -24    2    3    3    0    0  0.26210475803E+03  0.31568719114E+03 -0.96072403783E+02  0.42872498514E+03  0.78853657394E+02 0.  0.
          6    2    1    2  501    0 -0.29411539079E+03 -0.31185071941E+03 -0.14572280868E+03  0.48456645748E+03  0.17266957015E+03 0.  0.
         24    2    5    5    0    0 -0.55474023575E+02 -0.10916607302E+03 -0.72397503478E+02  0.16296195128E+03  0.79502202897E+02 0.  0.
          5    1    5    5  501    0 -0.23864136721E+03 -0.20268464639E+03 -0.73325305201E+02  0.32160450620E+03  0.47000000000E+01 0. -1.
        -11    1    6    6    0    0  0.59615756261E+01 -0.39311390767E+02  0.73465883163E+01  0.40433874263E+02  0.00000000000E+00 0.  1.
         12    1    6    6    0    0 -0.61435599201E+02 -0.69854682252E+02 -0.79744091794E+02  0.12252807702E+03  0.00000000000E+00 0. -1.
         -5    1    3    3    0  503  0.32010632759E+02 -0.38364717331E+01  0.22690240792E+02  0.39703100032E+02  0.47000000000E+01 0.  1.
         11    1    4    4    0    0  0.23822161120E+03  0.28983242892E+03 -0.62990813532E+02  0.38042110284E+03  0.00000000000E+00 0. -1.
        -12    1    4    4    0    0  0.23883146824E+02  0.25854762225E+02 -0.33081590251E+02  0.48303882302E+02  0.00000000000E+00 0.  1.
</event>
<event>
12    1  0.9966151E-001  0.1784548E+03  0.7818608E-02  0.1169332E+00
         21   -1    0    0  503  502  0.00000000000E+00  0.00000000000E+00  0.18494163944E+04  0.18494163944E+04  0.00000000000E+00 0.  1.
         21   -1    0    0  501  503 -0.00000000000E+00 -0.00000000000E+00 -0.17396292618E+02  0.17396292618E+02  0.00000000000E+00 0.  1.
          6    2    1    2  501    0  0.45352765170E+02 -0.87677715951E+01  0.10124296469E+04  0.10280191353E+04  0.17226666993E+03 0.  0.
         24    2    3    3    0    0  0.85032638103E+02 -0.10609614507E+02  0.49405568301E+03  0.50810419889E+03  0.82071587971E+02 0.  0.
         -6    2    1    2    0  502 -0.45352765170E+02  0.87677715951E+01  0.81959045490E+03  0.83879355170E+03  0.17237273996E+03 0.  0.
        -24    2    5    5    0    0 -0.11634756553E+01 -0.53539058483E+02  0.35592146393E+03  0.36885115356E+03  0.80643043947E+02 0.  0.
          5    1    3    3  501    0 -0.39679872933E+02  0.18418429122E+01  0.51837396388E+03  0.51991493643E+03  0.47000000000E+01 0. -1.
        -11    1    4    4    0    0  0.19013160842E+02  0.25860648777E+02  0.26531546883E+03  0.26725001673E+03  0.00000000000E+00 0.  1.
         12    1    4    4    0    0  0.66019477261E+02 -0.36470263284E+02  0.22874021418E+03  0.24085418216E+03  0.00000000000E+00 0. -1.
         -5    1    5    5    0  502 -0.44189289515E+02  0.62306830078E+02  0.46366899097E+03  0.46994239814E+03  0.47000000000E+01 0.  1.
         11    1    6    6    0    0  0.24185812288E+02 -0.45812490607E+02  0.32025055609E+03  0.32441355780E+03  0.00000000000E+00 0. -1.
        -12    1    6    6    0    0 -0.25349287943E+02 -0.77265678760E+01  0.35670907844E+02  0.44437595758E+02  0.00000000000E+00 0.  1.
</event>
<event>
12    1  0.9966151E-001  0.2097677E+03  0.7818608E-02  0.1141951E+00
         21   -1    0    0  503  502  0.00000000000E+00  0.00000000000E+00  0.17718113406E+03  0.17718113406E+03  0.00000000000E+00 0. -1.
         21   -1    0    0  501  503 -0.00000000000E+00 -0.00000000000E+00 -0.28139454220E+03  0.28139454220E+03  0.00000000000E+00 0.  1.
          6    2    1    2  501    0  0.38691715012E+02 -0.11264902598E+03  0.27769195892E+02  0.21159778664E+03  0.17267206840E+03 0.  0.
         24    2    3    3    0    0  0.28357162502E+02 -0.53741591136E+02 -0.51194324609E+02  0.11243016881E+03  0.79544935121E+02 0.  0.
         -6    2    1    2    0  502 -0.38691715012E+02  0.11264902598E+03 -0.13198260403E+03  0.24697788962E+03  0.17144042210E+03 0.  0.
        -24    2    5    5    0    0 -0.10316547043E+02  0.14451792418E+03 -0.11072942800E+03  0.19907627879E+03  0.79865493161E+02 0.  0.
          5    1    3    3  501    0  0.10334552511E+02 -0.58907434846E+02  0.78963520501E+02  0.99167617828E+02  0.47000000000E+01 0. -1.
        -11    1    4    4    0    0  0.43854611269E+02 -0.49547797380E+02 -0.63877169568E+02  0.91970125295E+02  0.00000000000E+00 0.  1.
         12    1    4    4    0    0 -0.15497448767E+02 -0.41937937556E+01  0.12682844959E+02  0.20460043515E+02  0.00000000000E+00 0. -1.
         -5    1    5    5    0  502 -0.28375167969E+02 -0.31868898196E+02 -0.21253176024E+02  0.47901610836E+02  0.47000000000E+01 0.  1.
         13    1    6    6    0    0 -0.26284472682E+02  0.13205400937E+03 -0.65950238041E+02  0.14992854562E+03  0.00000000000E+00 0. -1.
        -14    1    6    6    0    0  0.15967925639E+02  0.12463914810E+02 -0.44779189962E+02  0.49147733165E+02  0.00000000000E+00 0.  1.
</event>
<event>
12    1  0.9966151E-001  0.1853461E+03  0.7818608E-02  0.1163041E+00
         21   -1    0    0  501  502  0.00000000000E+00  0.00000000000E+00  0.16172575443E+03  0.16172575443E+03  0.00000000000E+00 0. -1.
         21   -1    0    0  502  503 -0.00000000000E+00 -0.00000000000E+00 -0.23030486861E+03  0.23030486861E+03  0.00000000000E+00 0. -1.
         -6    2    1    2    0  503 -0.60039005641E+02 -0.35188503835E+02  0.22749253661E+02  0.18540523500E+03  0.17033690035E+03 0.  0.
        -24    2    3    3    0    0 -0.71167305873E+02  0.32183008668E+02 -0.46413634320E+01  0.11168213368E+03  0.79692065205E+02 0.  0.
          6    2    1    2  501    0  0.60039005641E+02  0.35188503835E+02 -0.91328367844E+02  0.20662538805E+03  0.17178552678E+03 0.  0.
         24    2    5    5    0    0  0.45088890199E+02  0.68395124350E+02 -0.11560289684E+03  0.16260802380E+03  0.79789965474E+02 0.  0.
          5    1    5    5  501    0  0.14950115441E+02 -0.33206620515E+02  0.24274528997E+02  0.44017364253E+02  0.47000000000E+01 0. -1.
        -11    1    6    6    0    0  0.35489359561E+02 -0.66216286354E+01 -0.54537020616E+02  0.65403571963E+02  0.00000000000E+00 0.  1.
         12    1    6    6    0    0  0.95995306385E+01  0.75016752985E+02 -0.61065876225E+02  0.97204451833E+02  0.00000000000E+00 0. -1.
         -5    1    3    3    0  503  0.11128300232E+02 -0.67371512503E+02  0.27390617093E+02  0.73723101316E+02  0.47000000000E+01 0.  1.
         11    1    4    4    0    0 -0.24594409608E+02 -0.26593895975E+02  0.27476569243E+01  0.36327261192E+02  0.00000000000E+00 0. -1.
        -12    1    4    4    0    0 -0.46572896265E+02  0.58776904643E+02 -0.73890203563E+01  0.75354872488E+02  0.00000000000E+00 0.  1.
</event>
<event>
12    1  0.9966151E-001  0.2732625E+03  0.7818608E-02  0.1099662E+00
         21   -1    0    0  501  502  0.00000000000E+00  0.00000000000E+00  0.96122492783E+03  0.96122492783E+03  0.00000000000E+00 0. -1.
         21   -1    0    0  502  503 -0.00000000000E+00 -0.00000000000E+00 -0.91342202992E+02  0.91342202992E+02  0.00000000000E+00 0. -1.
         -6    2    1    2    0  503  0.20375176135E+03 -0.53680023030E+02  0.64306171292E+03  0.69871366027E+03  0.17400025085E+03 0.  0.
        -24    2    3    3    0    0  0.99704972016E+02 -0.84891588307E+02  0.30778833847E+03  0.34625058165E+03  0.89488215881E+02 0.  0.
          6    2    1    2  501    0 -0.20375176135E+03  0.53680023030E+02  0.22682101192E+03  0.35385347056E+03  0.17137147385E+03 0.  0.
         24    2    5    5    0    0 -0.20163796563E+03  0.83844095172E+02  0.22391529172E+03  0.32311469065E+03  0.81100825937E+02 0.  0.
          5    1    5    5  501    0 -0.21137957227E+01 -0.30164072142E+02  0.29057202058E+01  0.30738779912E+02  0.47000000000E+01 0. -1.
        -13    1    6    6    0    0 -0.18711771777E+03  0.87353594297E+02  0.17094452379E+03  0.26807782630E+03  0.00000000000E+00 0.  1.
         14    1    6    6    0    0 -0.14520247857E+02 -0.35094991246E+01  0.52970767928E+02  0.55036864344E+02  0.00000000000E+00 0. -1.
         -5    1    3    3    0  503  0.10404678934E+03  0.31211565277E+02  0.33527337444E+03  0.35246307862E+03  0.47000000000E+01 0.  1.
         13    1    4    4    0    0 -0.58046277701E+01 -0.10352621304E+02  0.10593973515E+03  0.10660252321E+03  0.00000000000E+00 0. -1.
        -14    1    4    4    0    0  0.10550959979E+03 -0.74538967003E+02  0.20184860332E+03  0.23964805844E+03  0.00000000000E+00 0.  1.
</event>
<event>
12    1  0.9966151E-001  0.3342535E+03  0.7818608E-02  0.1069363E+00
         21   -1    0    0  501  502  0.00000000000E+00  0.00000000000E+00  0.15773085620E+03  0.15773085620E+03  0.00000000000E+00 0.  1.
         21   -1    0    0  502  503 -0.00000000000E+00 -0.00000000000E+00 -0.93639485320E+03  0.93639485320E+03  0.00000000000E+00 0. -1.
         -6    2    1    2    0  503 -0.59312174491E+02 -0.28002784145E+03 -0.11790428335E+03  0.35363345460E+03  0.17094348231E+03 0.  0.
        -24    2    3    3    0    0 -0.65663390074E+02 -0.29402213767E+03 -0.12544775962E+03  0.33588036191E+03  0.79484456895E+02 0.  0.
          6    2    1    2  501    0  0.59312174491E+02  0.28002784145E+03 -0.66075971366E+03  0.74049225480E+03  0.17260316973E+03 0.  0.
         24    2    5    5    0    0  0.30439157517E+02  0.50404047485E+02 -0.16276038272E+03  0.19132364547E+03  0.81527202942E+02 0.  0.
          5    1    5    5  501    0  0.28873016975E+02  0.22962379397E+03 -0.49799933094E+03  0.54916860933E+03  0.47000000000E+01 0. -1.
        -11    1    6    6    0    0  0.32784645681E+01  0.40623713267E+01 -0.12629029092E+03  0.12639813595E+03  0.00000000000E+00 0.  1.
         12    1    6    6    0    0  0.27160692949E+02  0.46341676158E+02 -0.36470091799E+02  0.64925509520E+02  0.00000000000E+00 0. -1.
         -5    1    3    3    0  503  0.63512155830E+01  0.13994296212E+02  0.75434762652E+01  0.17753092689E+02  0.47000000000E+01 0.  1.
         11    1    4    4    0    0 -0.46402910014E+02 -0.28400866676E+03 -0.12603623278E+03  0.31416442323E+03  0.00000000000E+00 0. -1.
        -12    1    4    4    0    0 -0.19260480060E+02 -0.10013470906E+02  0.58847316458E+00  0.21715938672E+02  0.00000000000E+00 0.  1.
</event>
<event>
12    1  0.9966151E-001  0.2128994E+03  0.7818608E-02  0.1139379E+00
         21   -1    0    0  501  502  0.00000000000E+00  0.00000000000E+00  0.10276921071E+04  0.10276921071E+04  0.00000000000E+00 0.  1.
         21   -1    0    0  502  503 -0.00000000000E+00 -0.00000000000E+00 -0.44013912743E+02  0.44013912743E+02  0.00000000000E+00 0.  1.
         -6    2    1    2    0  503  0.82314592174E+01  0.12486368765E+03  0.49607946646E+03  0.53965464374E+03  0.17167876996E+03 0.  0.
        -24    2    3    3    0    0  0.28999378923E+02  0.11065883657E+03  0.20404355738E+03  0.24649914495E+03  0.77728457221E+02 0.  0.
          6    2    1    2  501    0 -0.82314592174E+01 -0.12486368765E+03  0.48759872793E+03  0.53205137614E+03  0.17224241623E+03 0.  0.
         24    2    5    5    0    0 -0.27462361293E+02 -0.15253873285E+03  0.44264929551E+03  0.47567516487E+03  0.79411695330E+02 0.  0.
          5    1    5    5  501    0  0.19230902076E+02  0.27675045194E+02  0.44949432425E+02  0.56376211264E+02  0.47000000000E+01 0. -1.
        -13    1    6    6    0    0 -0.31104820526E+01  0.14797881898E+01 -0.23346517026E+01  0.41611861601E+01  0.00000000000E+00 0.  1.
         14    1    6    6    0    0 -0.24351879241E+02 -0.15401852104E+03  0.44498394721E+03  0.47151397871E+03  0.00000000000E+00 0. -1.
         -5    1    3    3    0  503 -0.20767919705E+02  0.14204851080E+02  0.29203590907E+03  0.29315549879E+03  0.47000000000E+01 0.  1.
         13    1    4    4    0    0  0.97855794890E+01  0.51334146717E+02  0.16463938306E+03  0.17273412703E+03  0.00000000000E+00 0. -1.
        -14    1    4    4    0    0  0.19213799434E+02  0.59324689854E+02  0.39404174320E+02  0.73765017921E+02  0.00000000000E+00 0.  1.
</event>
<event>
12    1  0.9966151E-001  0.1863654E+03  0.7818608E-02  0.1162122E+00
         21   -1    0    0  503  502  0.00000000000E+00  0.00000000000E+00  0.35817413500E+02  0.35817413500E+02  0.00000000000E+00 0. -1.
         21   -1    0    0  501  503 -0.00000000000E+00 -0.00000000000E+00 -0.10181725849E+04  0.10181725849E+04  0.00000000000E+00 0. -1.
          6    2    1    2  501    0  0.65546304168E+02  0.17885035125E+02 -0.36564130443E+03  0.40973225663E+03  0.17196152520E+03 0.  0.
         24    2    3    3    0    0  0.22846181811E+02 -0.43728954286E+02 -0.11654409153E+03  0.14955713174E+03  0.79690908623E+02 0.  0.
         -6    2    1    2    0  502 -0.65546304168E+02 -0.17885035125E+02 -0.61671386697E+03  0.64425774176E+03  0.17353919338E+03 0.  0.
        -24    2    5    5    0    0 -0.44130814217E+02  0.21401247650E+02 -0.57586471830E+03  0.58348950853E+03  0.80214029996E+02 0.  0.
          5    1    3    3  501    0  0.42700122357E+02  0.61613989411E+02 -0.24909721289E+03  0.26017512489E+03  0.47000000000E+01 0. -1.
        -13    1    4    4    0    0  0.49970357621E+01 -0.82235768811E+01 -0.10860742398E+03  0.10903288553E+03  0.00000000000E+00 0.  1.
         14    1    4    4    0    0  0.17849146049E+02 -0.35505377405E+02 -0.79366675541E+01  0.40524246214E+02  0.00000000000E+00 0. -1.
         -5    1    5    5    0  502 -0.21415489950E+02 -0.39286282775E+02 -0.40849148664E+02  0.60768233237E+02  0.47000000000E+01 0.  1.
         13    1    6    6    0    0 -0.43928792697E+02 -0.22033368221E+02 -0.25436962631E+03  0.25907357050E+03  0.00000000000E+00 0. -1.
        -14    1    6    6    0    0 -0.20202152005E+00  0.43434615871E+02 -0.32149509200E+03  0.32441593803E+03  0.00000000000E+00 0.  1.
</event>
<event>
12    1  0.9966151E-001  0.1350754E+04  0.7818608E-02  0.8990308E-01
         21   -1    0    0  503  502  0.00000000000E+00  0.00000000000E+00  0.12931837126E+04  0.12931837126E+04  0.00000000000E+00 0.  1.
         21   -1    0    0  501  503 -0.00000000000E+00 -0.00000000000E+00 -0.18522446768E+04  0.18522446768E+04  0.00000000000E+00 0.  1.
          6    2    1    2  501    0 -0.13164254047E+04 -0.24708361081E+03  0.48839717557E+03  0.14363385654E+04  0.17467259815E+03 0.  0.
         24    2    3    3    0    0 -0.59887211925E+03 -0.92089342595E+02  0.16078498718E+03  0.63243696907E+03  0.83644757797E+02 0.  0.
         -6    2    1    2    0  502  0.13164254047E+04  0.24708361081E+03 -0.10474581398E+04  0.17090898240E+04  0.17260740110E+03 0.  0.
        -24    2    5    5    0    0  0.73298338443E+03  0.84311329236E+02 -0.52675737878E+03  0.91030901600E+03  0.82559835414E+02 0.  0.
          5    1    3    3  501    0 -0.71755328546E+03 -0.15499426821E+03  0.32761218840E+03  0.80390159637E+03  0.47000000000E+01 0. -1.
        -13    1    4    4    0    0 -0.98154529993E+02 -0.44302801903E+02  0.42138804074E+02  0.11564051549E+03  0.00000000000E+00 0.  1.
         14    1    4    4    0    0 -0.50071758925E+03 -0.47786540692E+02  0.11864618311E+03  0.51679645357E+03  0.00000000000E+00 0. -1.
         -5    1    5    5    0  502  0.58344202028E+03  0.16277228157E+03 -0.52070076100E+03  0.79878080797E+03  0.47000000000E+01 0.  1.
         13    1    6    6    0    0  0.38553394927E+03  0.73632467213E+02 -0.24347958967E+03  0.46188794837E+03  0.00000000000E+00 0. -1.
        -14    1    6    6    0    0  0.34744943516E+03  0.10678862022E+02 -0.28327778911E+03  0.44842106763E+03  0.00000000000E+00 0.  1.
</event>
<event>
12    1  0.9966151E-001  0.2385717E+03  0.7818608E-02  0.1120832E+00
         21   -1    0    0  503  502  0.00000000000E+00  0.00000000000E+00  0.90089667741E+03  0.90089667741E+03  0.00000000000E+00 0.  1.
         21   -1    0    0  501  503 -0.00000000000E+00 -0.00000000000E+00 -0.11430295794E+03  0.11430295794E+03  0.00000000000E+00 0.  1.
          6    2    1    2  501    0  0.10322348617E+03  0.13008510255E+03  0.53154013335E+02  0.24393426605E+03  0.17059119267E+03 0.  0.
         24    2    3    3    0    0  0.98069659976E+01  0.27287712415E+01  0.55152419877E+01  0.78895410316E+02  0.78041303809E+02 0.  0.
         -6    2    1    2    0  502 -0.10322348617E+03 -0.13008510255E+03  0.73343970613E+03  0.77126536930E+03  0.17128702619E+03 0.  0.
        -24    2    5    5    0    0 -0.95933705565E+02 -0.10475477096E+03  0.33541403925E+03  0.37234020326E+03  0.77186859856E+02 0.  0.
          5    1    3    3  501    0  0.93416520172E+02  0.12735633131E+03  0.47638771348E+02  0.16503885573E+03  0.47000000000E+01 0. -1.
        -13    1    4    4    0    0  0.13997020767E+02  0.42260595262E+01 -0.35107129624E+02  0.38030076517E+02  0.00000000000E+00 0.  1.
         14    1    4    4    0    0 -0.41900547696E+01 -0.14972882847E+01  0.40622371612E+02  0.40865333799E+02  0.00000000000E+00 0. -1.
         -5    1    5    5    0  502 -0.72897806045E+01 -0.25330331588E+02  0.39802566689E+03  0.39892516604E+03  0.47000000000E+01 0.  1.
         13    1    6    6    0    0 -0.80604335280E+01 -0.59591766956E+02  0.95205107091E+02  0.11260622405E+03  0.00000000000E+00 0. -1.
        -14    1    6    6    0    0 -0.87873272037E+02 -0.45163004009E+02  0.24020893216E+03  0.25973397921E+03  0.00000000000E+00 0.  1.
</event>
<event>
12    1  0.9966151E-001  0.2315584E+03  0.7818608E-02  0.1126137E+00
         21   -1    0    0  501  502  0.00000000000E+00  0.00000000000E+00  0.32117488626E+02  0.32117488626E+02  0.00000000000E+00 0.  1.
         21   -1    0    0  502  503 -0.00000000000E+00 -0.00000000000E+00 -0.23918979299E+04  0.23918979299E+04  0.00000000000E+00 0.  1.
         -6    2    1    2    0  503 -0.15436034221E+03  0.11236982169E+02 -0.49687966206E+03  0.54677846211E+03  0.16770182781E+03 0.  0.
        -24    2    3    3    0    0 -0.18283768999E+03  0.85755600001E+01 -0.42155157670E+03  0.46606630102E+03  0.77517120807E+02 0.  0.
          6    2    1    2  501    0  0.15436034221E+03 -0.11236982169E+02 -0.18629007792E+04  0.18772369564E+04  0.17223789452E+03 0.  0.
         24    2    5    5    0    0  0.15149889988E+03 -0.12363757298E+02 -0.18637491429E+04  0.18715565343E+04  0.77834533136E+02 0.  0.
          5    1    5    5  501    0  0.28614423319E+01  0.11267751293E+01  0.84836362035E+00  0.56804221008E+01  0.47000000000E+01 0. -1.
        -13    1    6    6    0    0  0.19592293233E+02 -0.26242992636E+02 -0.59315193984E+03  0.59405536472E+03  0.00000000000E+00 0.  1.
         14    1    6    6    0    0  0.13190660664E+03  0.13879235338E+02 -0.12705972030E+04  0.12775011696E+04  0.00000000000E+00 0. -1.
         -5    1    3    3    0  503  0.28477347782E+02  0.26614221688E+01 -0.75328085359E+02  0.80712161094E+02  0.47000000000E+01 0.  1.
         11    1    4    4    0    0 -0.12791792109E+02  0.16045025924E+02 -0.15292267348E+02  0.25591526779E+02  0.00000000000E+00 0. -1.
        -12    1    4    4    0    0 -0.17004589788E+03 -0.74694659237E+01 -0.40625930935E+03  0.44047477424E+03  0.00000000000E+00 0.  1.
</event>
<event>
12    1  0.9966151E-001  0.1963203E+03  0.7818608E-02  0.1155893E+00
         21   -1    0    0  501  502  0.00000000000E+00  0.00000000000E+00  0.84919610244E+02  0.84919610244E+02  0.00000000000E+00 0. -1.
         21   -1    0    0  502  503 -0.00000000000E+00 -0.00000000000E+00 -0.52672018432E+03  0.52672018432E+03  0.00000000000E+00 0. -1.
         -6    2    1    2    0  503  0.36394388536E+02  0.50568119345E+02 -0.91780576335E+02  0.21671484827E+03  0.18617186968E+03 0.  0.
        -24    2    3    3    0    0 -0.29957701022E+02  0.26041236239E+02  0.14300037700E+02  0.89124274728E+02  0.78505002594E+02 0.  0.
          6    2    1    2  501    0 -0.36394388536E+02 -0.50568119345E+02 -0.35001999774E+03  0.39492494629E+03  0.17195937943E+03 0.  0.
         24    2    5    5    0    0 -0.56317144942E+02 -0.42557598654E+02 -0.35872259298E+03  0.37128367246E+03  0.64706233905E+02 0.  0.
          5    1    5    5  501    0  0.19922756406E+02 -0.80105206911E+01  0.87025952337E+01  0.23641273831E+02  0.47000000000E+01 0. -1.
        -11    1    6    6    0    0 -0.13747015540E+02 -0.43405686988E+02 -0.11177916464E+03  0.12069637835E+03  0.00000000000E+00 0.  1.
         12    1    6    6    0    0 -0.42570129402E+02  0.84808833390E+00 -0.24694342834E+03  0.25058729411E+03  0.00000000000E+00 0. -1.
         -5    1    3    3    0  503  0.66352089558E+02  0.24526883106E+02 -0.10608061404E+03  0.12759057355E+03  0.47000000000E+01 0.  1.
         11    1    4    4    0    0  0.13370636522E+02  0.37819634066E+02 -0.46624420822E+01  0.40383623018E+02  0.00000000000E+00 0. -1.
        -12    1    4    4    0    0 -0.43328337543E+02 -0.11778397828E+02  0.18962479782E+02  0.48740651710E+02  0.00000000000E+00 0.  1.
</event>
<event>
12    1  0.9966151E-001  0.2393548E+03  0.7818608E-02  0.1120446E+00
         21   -1    0    0  501  502  0.00000000000E+00  0.00000000000E+00  0.61207360525E+03  0.61207360525E+03  0.00000000000E+00 0.  1.
         21   -1    0    0  502  503 -0.00000000000E+00 -0.00000000000E+00 -0.93675185113E+02  0.93675185113E+02  0.00000000000E+00 0.  1.
         -6    2    1    2    0  503 -0.16291021346E+03  0.33674558832E+02  0.28797141803E+03  0.37445729579E+03  0.17209594768E+03 0.  0.
        -24    2    3    3    0    0 -0.30799544097E+02  0.61316483582E+02  0.11345347506E+03  0.15378580380E+03  0.77910585736E+02 0.  0.
          6    2    1    2  501    0  0.16291021346E+03 -0.33674558832E+02  0.23042700211E+03  0.33129149457E+03  0.17024610866E+03 0.  0.
         24    2    5    5    0    0  0.12802810252E+03 -0.23607710760E+02  0.76513478630E+02  0.17308414391E+03  0.84588943835E+02 0.  0.
          5    1    5    5  501    0  0.34882110938E+02 -0.10066848073E+02  0.15391352348E+03  0.15820735066E+03  0.47000000000E+01 0. -1.
        -11    1    6    6    0    0  0.66281587934E+02  0.29425416502E+02  0.47413052238E+02  0.86643531541E+02  0.00000000000E+00 0.  1.
         12    1    6    6    0    0  0.61746514586E+02 -0.53033127262E+02  0.29100426392E+02  0.86440612370E+02  0.00000000000E+00 0. -1.
         -5    1    3    3    0  503 -0.13211066936E+03 -0.27641924749E+02  0.17451794297E+03  0.22067149200E+03  0.47000000000E+01 0.  1.
         13    1    4    4    0    0  0.16149108586E+02 -0.88378353939E+01  0.12808736199E+02  0.22426875965E+02  0.00000000000E+00 0. -1.
        -14    1    4    4    0    0 -0.46948652682E+02  0.70154318976E+02  0.10064473886E+03  0.13135892783E+03  0.00000000000E+00 0.  1.
</event>
<event>
12    1  0.9966151E-001  0.2473662E+03  0.7818608E-02  0.1115031E+00
         21   -1    0    0  501  502  0.00000000000E+00  0.00000000000E+00  0.99378907890E+03  0.99378907890E+03  0.00000000000E+00 0. -1.
         21   -1    0    0  502  503 -0.00000000000E+00 -0.00000000000E+00 -0.61496024474E+02  0.61496024474E+02  0.00000000000E+00 0. -1.
         -6    2    1    2    0  503 -0.17006561681E+03  0.48843988930E+02  0.46856390910E+03  0.52985110155E+03  0.17286411897E+03 0.  0.
        -24    2    3    3    0    0 -0.17481022687E+03 -0.42101913512E+01  0.37832975774E+03  0.42496283032E+03  0.82967827686E+02 0.  0.
          6    2    1    2  501    0  0.17006561681E+03 -0.48843988930E+02  0.46372914533E+03  0.52543400183E+03  0.17241844674E+03 0.  0.
         24    2    5    5    0    0  0.17098742920E+03 -0.43905412582E+02  0.47457901529E+03  0.51258686391E+03  0.79722425298E+02 0.  0.
          5    1    5    5  501    0 -0.92181238851E+00 -0.49385763480E+01 -0.10849869967E+02  0.12847137920E+02  0.47000000000E+01 0. -1.
        -11    1    6    6    0    0  0.99417206144E+02 -0.45384732163E+02  0.19044890145E+03  0.21957763742E+03  0.00000000000E+00 0.  1.
         12    1    6    6    0    0  0.71570223051E+02  0.14793195811E+01  0.28413011384E+03  0.29300922649E+03  0.00000000000E+00 0. -1.
         -5    1    3    3    0  503  0.47446100646E+01  0.53054180281E+02  0.90234151359E+02  0.10488827123E+03  0.47000000000E+01 0.  1.
         13    1    4    4    0    0 -0.34725159715E+02  0.90008944903E+01  0.22555162427E+02  0.42374381069E+02  0.00000000000E+00 0. -1.
        -14    1    4    4    0    0 -0.14008506716E+03 -0.13211085841E+02  0.35577459532E+03  0.38258844925E+03  0.00000000000E+00 0.  1.
</event>
<event>
12    1  0.9966151E-001  0.1895573E+03  0.7818608E-02  0.1159206E+00
         21   -1    0    0  503  502  0.00000000000E+00  0.00000000000E+00  0.28603408329E+03  0.28603408329E+03  0.00000000000E+00 0. -1.
         21   -1    0    0  501  503 -0.00000000000E+00 -0.00000000000E+00 -0.15721822213E+03  0.15721822213E+03  0.00000000000E+00 0. -1.
          6    2    1    2  501    0 -0.62787958743E+02  0.48751189409E+02 -0.36307822543E+02  0.19300320546E+03  0.17208420354E+03 0.  0.
         24    2    3    3    0    0 -0.13121172851E+02 -0.38337561010E+02 -0.21621670790E+02  0.91568432704E+02  0.79217090700E+02 0.  0.
         -6    2    1    2    0  502  0.62787958743E+02 -0.48751189409E+02  0.16512368370E+03  0.25024909997E+03  0.17041060672E+03 0.  0.
        -24    2    5    5    0    0  0.99869920173E+02 -0.81763045070E+01  0.84987860440E+02  0.15295966931E+03  0.78312649693E+02 0.  0.
          5    1    3    3  501    0 -0.49666785893E+02  0.87088750420E+02 -0.14686151754E+02  0.10143477276E+03  0.47000000000E+01 0. -1.
        -13    1    4    4    0    0 -0.48386876622E+01 -0.41558177042E+02  0.21847866711E+02  0.47199833232E+02  0.00000000000E+00 0.  1.
         14    1    4    4    0    0 -0.82824851884E+01  0.32206160314E+01 -0.43469537501E+02  0.44368599472E+02  0.00000000000E+00 0. -1.
         -5    1    5    5    0  502 -0.37081961429E+02 -0.40574884902E+02  0.80135823258E+02  0.97289430657E+02  0.47000000000E+01 0.  1.
         13    1    6    6    0    0  0.26928073757E+02  0.30498220402E+02  0.46749261661E+02  0.61973833751E+02  0.00000000000E+00 0. -1.
        -14    1    6    6    0    0  0.72941846415E+02 -0.38674524909E+02  0.38238598779E+02  0.90985835557E+02  0.00000000000E+00 0.  1.
</event>
<event>
12    1  0.9966151E-001  0.2028710E+03  0.7818608E-02  0.1147703E+00
         21   -1    0    0  503  502  0.00000000000E+00  0.00000000000E+00  0.99684864880E+02  0.99684864880E+02  0.00000000000E+00 0.  1.
         21   -1    0    0  501  503 -0.00000000000E+00 -0.00000000000E+00 -0.58784966037E+03  0.58784966037E+03  0.00000000000E+00 0.  1.
          6    2    1    2  501    0  0.10470337635E+03  0.98813307387E+00 -0.43426839615E+03  0.47931794729E+03  0.17376098893E+03 0.  0.
         24    2    3    3    0    0  0.44081262886E+02  0.27503306188E+02 -0.38306310034E+03  0.39551957401E+03  0.83658860824E+02 0.  0.
         -6    2    1    2    0  502 -0.10470337635E+03 -0.98813307387E+00 -0.53896399333E+02  0.20821657795E+03  0.17171356396E+03 0.  0.
        -24    2    5    5    0    0 -0.13678007865E+03 -0.47219255882E+01 -0.70016169027E+02  0.17181887181E+03  0.76735743229E+02 0.  0.
          5    1    3    3  501    0  0.60622113460E+02 -0.26515173114E+02 -0.51205295819E+02  0.83798373287E+02  0.47000000000E+01 0. -1.
        -13    1    4    4    0    0 -0.21702575788E+02  0.23578351994E+02 -0.10673760217E+03  0.11144440854E+03  0.00000000000E+00 0.  1.
         14    1    4    4    0    0  0.65783838675E+02  0.39249541942E+01 -0.27632549816E+03  0.28407516546E+03  0.00000000000E+00 0. -1.
         -5    1    5    5    0  502  0.32076702305E+02  0.37337925144E+01  0.16119769695E+02  0.36397706141E+02  0.47000000000E+01 0.  1.
         13    1    6    6    0    0 -0.63796640592E+02 -0.74316963854E+01  0.82663119504E+01  0.64757805516E+02  0.00000000000E+00 0. -1.
        -14    1    6    6    0    0 -0.72983438059E+02  0.27097707971E+01 -0.78282480978E+02  0.10706106630E+03  0.00000000000E+00 0.  1.
</event>
<event>
12    1  0.9966151E-001  0.2856840E+03  0.7818608E-02  0.1093026E+00
         21   -1    0    0  503  502  0.00000000000E+00  0.00000000000E+00  0.64623455672E+03  0.64623455672E+03  0.00000000000E+00 0.  1.
         21   -1    0    0  501  503 -0.00000000000E+00 -0.00000000000E+00 -0.12641467854E+03  0.12641467854E+03  0.00000000000E+00 0.  1.
          6    2    1    2  501    0  0.11350034683E+01 -0.22849897854E+03  0.21995948074E+03  0.36055168229E+03  0.17147090426E+03 0.  0.
         24    2    3    3    0    0  0.17526161956E+02 -0.17769386819E+03  0.23426020184E+03  0.30508610793E+03  0.79482161161E+02 0.  0.
         -6    2    1    2    0  502 -0.11350034683E+01  0.22849897854E+03  0.29986039744E+03  0.41209755297E+03  0.16641833971E+03 0.  0.
        -24    2    5    5    0    0 -0.25870892597E+01  0.10809741239E+03  0.68551693013E+02  0.15128257559E+03  0.80593668901E+02 0.  0.
          5    1    3    3  501    0 -0.16391158488E+02 -0.50805110348E+02 -0.14300721104E+02  0.55465574352E+02  0.47000000000E+01 0. -1.
        -11    1    4    4    0    0  0.34259220017E+02 -0.29100879776E+02  0.41976808018E+02  0.61502908641E+02  0.00000000000E+00 0.  1.
         12    1    4    4    0    0 -0.16733058061E+02 -0.14859298841E+03  0.19228339382E+03  0.24358319929E+03  0.00000000000E+00 0. -1.
         -5    1    5    5    0  502  0.14520857914E+01  0.12040156615E+03  0.23130870443E+03  0.26081497738E+03  0.47000000000E+01 0.  1.
         13    1    6    6    0    0  0.32023964456E+02  0.68628353131E+02  0.16812857106E+02  0.77576138838E+02  0.00000000000E+00 0. -1.
        -14    1    6    6    0    0 -0.34611053716E+02  0.39469059258E+02  0.51738835906E+02  0.73706436754E+02  0.00000000000E+00 0.  1.
</event>
<event>
12    1  0.9966151E-001  0.2604163E+03  0.7818608E-02  0.1106927E+00
         21   -1    0    0  501  502  0.00000000000E+00  0.00000000000E+00  0.29199918857E+03  0.29199918857E+03  0.00000000000E+00 0. -1.
         21   -1    0    0  502  503 -0.00000000000E+00 -0.00000000000E+00 -0.33926120915E+03  0.33926120915E+03  0.00000000000E+00 0.  1.
         -6    2    1    2    0  503  0.14894229352E+03 -0.12679442977E+03  0.15379291721E+03  0.30243827913E+03  0.17191863506E+03 0.  0.
        -24    2    3    3    0    0  0.24849893652E+02 -0.39321114891E+02  0.12956802791E+02  0.95297250732E+02  0.82158505145E+02 0.  0.
          6    2    1    2  501    0 -0.14894229352E+03  0.12679442977E+03 -0.20105493779E+03  0.32882211859E+03  0.17158165241E+03 0.  0.
         24    2    5    5    0    0 -0.72280632257E+02  0.12624725040E+03 -0.76448149226E+02  0.18244503203E+03  0.79240218061E+02 0.  0.
          5    1    5    5  501    0 -0.76661661262E+02  0.54717936570E+00 -0.12460678857E+03  0.14637708656E+03  0.47000000000E+01 0. -1.
        -11    1    6    6    0    0  0.59366939281E+01 -0.46553542575E+01  0.54937160736E+01  0.93326081219E+01  0.00000000000E+00 0.  1.
         12    1    6    6    0    0 -0.78217326186E+02  0.13090260466E+03 -0.81941865300E+02  0.17311242391E+03  0.00000000000E+00 0. -1.
         -5    1    3    3    0  503  0.12409239987E+03 -0.87473314876E+02  0.14083611442E+03  0.20714102840E+03  0.47000000000E+01 0.  1.
         13    1    4    4    0    0  0.52940549490E+02 -0.37198710044E+02  0.16844774900E+02  0.66859496339E+02  0.00000000000E+00 0. -1.
        -14    1    4    4    0    0 -0.28090655839E+02 -0.21224048470E+01 -0.38879721082E+01  0.28437754393E+02  0.00000000000E+00 0.  1.
</event>
<event>
12    1  0.9966151E-001  0.2746341E+03  0.7818608E-02  0.1098747E+00
         21   -1    0    0  501  502  0.00000000000E+00  0.00000000000E+00  0.10254083287E+04  0.10254083287E+04  0.00000000000E+00 0.  1.
         21   -1    0    0  502  503 -0.00000000000E+00 -0.00000000000E+00 -0.73387137198E+02  0.73387137198E+02  0.00000000000E+00 0.  1.
         -6    2    1    2    0  503 -0.18906735941E+03 -0.99609697674E+02  0.48015549495E+03  0.55282738467E+03  0.17146503914E+03 0.  0.
        -24    2    3    3    0    0 -0.15893362211E+03 -0.11355868269E+02  0.28097738977E+03  0.33284832178E+03  0.80317244517E+02 0.  0.
          6    2    1    2  501    0  0.18906735941E+03  0.99609697674E+02  0.47186569657E+03  0.54596808125E+03  0.17249739672E+03 0.  0.
         24    2    5    5    0    0  0.53105630667E+02  0.47161615237E+02  0.31032679459E+03  0.32835994747E+03  0.80455638091E+02 0.  0.
          5    1    5    5  501    0  0.13596172874E+03  0.52448082437E+02  0.16153890198E+03  0.21760813378E+03  0.47000000000E+01 0. -1.
        -13    1    6    6    0    0  0.57301200908E+01 -0.19526990722E+02  0.11184825016E+03  0.11368451393E+03  0.00000000000E+00 0.  1.
         14    1    6    6    0    0  0.47375510577E+02  0.66688605959E+02  0.19847854443E+03  0.21467543354E+03  0.00000000000E+00 0. -1.
         -5    1    3    3    0  503 -0.30133737296E+02 -0.88253829405E+02  0.19917810518E+03  0.21997906289E+03  0.47000000000E+01 0.  1.
         13    1    4    4    0    0 -0.82314516484E+02 -0.41255320010E+02  0.18353402303E+03  0.20533489392E+03  0.00000000000E+00 0. -1.
        -14    1    4    4    0    0 -0.76619105627E+02  0.29899451740E+02  0.97443366740E+02  0.12751342785E+03  0.00000000000E+00 0.  1.
</event>
<event>
12    1  0.9966151E-001  0.1987700E+03  0.7818608E-02  0.1150933E+00
         21   -1    0    0  503  502  0.00000000000E+00  0.00000000000E+00  0.21387528647E+03  0.21387528647E+03  0.00000000000E+00 0.  1.
         21   -1    0    0  501  503 -0.00000000000E+00 -0.00000000000E+00 -0.20833557917E+03  0.20833557917E+03  0.00000000000E+00 0.  1.
          6    2    1    2  501    0  0.17272448735E+02  0.96683573590E+02 -0.69274599628E+02  0.21049580439E+03  0.17281048182E+03 0.  0.
         24    2    3    3    0    0 -0.25696542325E+02  0.11998006633E+03 -0.68249523352E+02  0.16138163589E+03  0.79564479266E+02 0.  0.
         -6    2    1    2    0  502 -0.17272448735E+02 -0.96683573590E+02  0.74814306927E+02  0.21171506125E+03  0.17198847563E+03 0.  0.
        -24    2    5    5    0    0  0.35426667204E+02 -0.74256089360E+02 -0.21874489333E+01  0.11563410957E+03  0.81224668712E+02 0.  0.
          5    1    3    3  501    0  0.42968991059E+02 -0.23296492738E+02 -0.10250762753E+01  0.49114168505E+02  0.47000000000E+01 0. -1.
        -11    1    4    4    0    0 -0.96851994831E+01  0.61624325229E+01  0.15413525266E+02  0.19218621822E+02  0.00000000000E+00 0.  1.
         12    1    4    4    0    0 -0.16011342842E+02  0.11381763381E+03 -0.83663048618E+02  0.14216301407E+03  0.00000000000E+00 0. -1.
         -5    1    5    5    0  502 -0.52699115939E+02 -0.22427484231E+02  0.77001755860E+02  0.96080951677E+02  0.47000000000E+01 0.  1.
         13    1    6    6    0    0  0.42466805284E+02 -0.14761995949E+01 -0.53327635577E+00  0.42495800969E+02  0.00000000000E+00 0. -1.
        -14    1    6    6    0    0 -0.70401380804E+01 -0.72779889765E+02 -0.16541725776E+01  0.73138308603E+02  0.00000000000E+00 0.  1.
</event>
<event>
12    1  0.9966151E-001  0.2094427E+03  0.7818608E-02  0.1142154E+00
         21   -1    0    0  503  502  0.00000000000E+00  0.00000000000E+00  0.57143784019E+03  0.57143784019E+03  0.00000000000E+00 0.  1.
         21   -1    0    0  501  503 -0.00000000000E+00 -0.00000000000E+00 -0.76633319124E+02  0.76633319124E+02  0.00000000000E+00 0.  1.
          6    2    1    2  501    0 -0.10407939384E+03  0.56131246103E+02  0.26154283793E+03  0.33506851157E+03  0.17286704245E+03 0.  0.
         24    2    3    3    0    0 -0.14126640297E+03  0.34456510062E+02  0.19784803827E+03  0.25805042712E+03  0.79389728501E+02 0.  0.
         -6    2    1    2    0  502  0.10407939384E+03 -0.56131246103E+02  0.23326168314E+03  0.31300264774E+03  0.17197792783E+03 0.  0.
        -24    2    5    5    0    0  0.11466345774E+03  0.61833255096E+01  0.19181225741E+03  0.23727106161E+03  0.79496368043E+02 0.  0.
          5    1    3    3  501    0  0.37187009132E+02  0.21674736041E+02  0.63694799652E+02  0.77018084456E+02  0.47000000000E+01 0. -1.
        -13    1    4    4    0    0 -0.11673830387E+02 -0.10092344679E+02 -0.21789882651E+01  0.15584663194E+02  0.00000000000E+00 0.  1.
         14    1    4    4    0    0 -0.12959257258E+03  0.44548854741E+02  0.20002702654E+03  0.24246576392E+03  0.00000000000E+00 0. -1.
         -5    1    5    5    0  502 -0.10584063904E+02 -0.62314571612E+02  0.41449425731E+02  0.75731586128E+02  0.47000000000E+01 0.  1.
         11    1    6    6    0    0  0.74316737665E+02 -0.30816103696E+02  0.83740991935E+02  0.11612563659E+03  0.00000000000E+00 0. -1.
        -12    1    6    6    0    0  0.40346720078E+02  0.36999429205E+02  0.10807126547E+03  0.12114542502E+03  0.00000000000E+00 0.  1.
</event>
<event>
12    1  0.9966151E-001  0.2061926E+03  0.7818608E-02  0.1144618E+00
         21   -1    0    0  503  502  0.00000000000E+00  0.00000000000E+00  0.28803204355E+04  0.28803204355E+04  0.00000000000E+00 0.  1.
         21   -1    0    0  501  503 -0.00000000000E+00 -0.00000000000E+00 -0.16873742200E+02  0.16873742200E+02  0.00000000000E+00 0. -1.
          6    2    1    2  501    0 -0.86931740202E+02 -0.73722384900E+02  0.91905933906E+03  0.94190454211E+03  0.17181961545E+03 0.  0.
         24    2    3    3    0    0 -0.94876605175E+01  0.20864671717E+02  0.41843207524E+03  0.42654637149E+03  0.79567928262E+02 0.  0.
         -6    2    1    2    0  502  0.86931740202E+02  0.73722384900E+02  0.19443873542E+04  0.19552896356E+04  0.17182333429E+03 0.  0.
        -24    2    5    5    0    0  0.90501847733E+02  0.10327295197E+03  0.18349484281E+04  0.18417777409E+04  0.79079871114E+02 0.  0.
          5    1    3    3  501    0 -0.77444079684E+02 -0.94587056617E+02  0.50062726382E+03  0.51535817063E+03  0.47000000000E+01 0. -1.
        -11    1    4    4    0    0  0.17317496730E+02 -0.61980154190E+01  0.32673852719E+03  0.32725582690E+03  0.00000000000E+00 0.  1.
         12    1    4    4    0    0 -0.26805157248E+02  0.27062687136E+02  0.91693548049E+02  0.99290544584E+02  0.00000000000E+00 0. -1.
         -5    1    5    5    0  502 -0.35701075308E+01 -0.29550567067E+02  0.10943892616E+03  0.11351189471E+03  0.47000000000E+01 0.  1.
         13    1    6    6    0    0  0.25021411079E+02  0.84131623169E+02  0.86834596352E+03  0.87277082524E+03  0.00000000000E+00 0. -1.
        -14    1    6    6    0    0  0.65480436653E+02  0.19141328798E+02  0.96660246455E+03  0.96900691563E+03  0.00000000000E+00 0.  1.
</event>
<event>
12    1  0.9966151E-001  0.3631114E+03  0.7818608E-02  0.1057433E+00
         21   -1    0    0  503  502  0.00000000000E+00  0.00000000000E+00  0.16034493019E+04  0.16034493019E+04  0.00000000000E+00 0.  1.
         21   -1    0    0  501  503 -0.00000000000E+00 -0.00000000000E+00 -0.10667836862E+03  0.10667836862E+03  0.00000000000E+00 0. -1.
          6    2    1    2  501    0  0.25516574969E+02 -0.31880896837E+03  0.33699399496E+03  0.49483658344E+03  0.17031746171E+03 0.  0.
         24    2    3    3    0    0  0.22286036849E+02 -0.25919834094E+03  0.33952694362E+03  0.43490020794E+03  0.78607875189E+02 0.  0.
         -6    2    1    2    0  502 -0.25516574969E+02  0.31880896837E+03  0.11597769383E+04  0.12152910870E+04  0.17192913010E+03 0.  0.
        -24    2    5    5    0    0 -0.27585464234E+02  0.31300231568E+03  0.11633748518E+04  0.12067451816E+04  0.63729742183E+02 0.  0.
          5    1    3    3  501    0  0.32305381200E+01 -0.59610627430E+02 -0.25329486575E+01  0.59936375500E+02  0.47000000000E+01 0. -1.
        -11    1    4    4    0    0 -0.11812719561E+02 -0.59453693951E+02  0.12989369174E+03  0.14334103817E+03  0.00000000000E+00 0.  1.
         12    1    4    4    0    0  0.34098756410E+02 -0.19974464699E+03  0.20963325188E+03  0.29155916978E+03  0.00000000000E+00 0. -1.
         -5    1    5    5    0  502  0.20688892645E+01  0.58066526846E+01 -0.35979135243E+01  0.85459054474E+01  0.47000000000E+01 0.  1.
         13    1    6    6    0    0  0.13545574347E+02  0.69618644761E+02  0.19821259468E+03  0.21051952634E+03  0.00000000000E+00 0. -1.
        -14    1    6    6    0    0 -0.41131038581E+02  0.24338367092E+03  0.96516225713E+03  0.99622565526E+03  0.00000000000E+00 0.  1.
</event>
<event>
12    1  0.9966151E-001  0.1939934E+03  0.7818608E-02  0.1154952E+00
         21   -1    0    0  501  502  0.00000000000E+00  0.00000000000E+00  0.43771205889E+03  0.43771205889E+03  0.00000000000E+00 0.  1.
         21   -1    0    0  502  503 -0.00000000000E+00 -0.00000000000E+00 -0.10962436978E+03  0.10962436978E+03  0.00000000000E+00 0.  1.
         -6    2    1    2    0  503  0.75233916862E+02  0.49255288561E+02  0.29145150133E+03  0.35011060265E+03  0.17189307945E+03 0.  0.
        -24    2    3    3    0    0  0.40637819111E+02  0.77115756271E+02  0.10303413957E+03  0.15647102030E+03  0.79176221610E+02 0.  0.
          6    2    1    2  501    0 -0.75233916862E+02 -0.49255288561E+02  0.36636187776E+02  0.19722582601E+03  0.17166709205E+03 0.  0.
         24    2    5    5    0    0 -0.39940594566E+02  0.11449530880E+02  0.75214930269E+02  0.11696934295E+03  0.79361190781E+02 0.  0.
          5    1    5    5  501    0 -0.35293322296E+02 -0.60704819440E+02 -0.38578742493E+02  0.80256483067E+02  0.47000000000E+01 0. -1.
        -11    1    6    6    0    0 -0.41750268147E+02 -0.27693751162E+02  0.37471422823E+02  0.62563058366E+02  0.00000000000E+00 0.  1.
         12    1    6    6    0    0  0.18096735811E+01  0.39143282041E+02  0.37743507446E+02  0.54406284580E+02  0.00000000000E+00 0. -1.
         -5    1    3    3    0  503  0.34596097751E+02 -0.27860467711E+02  0.18841736176E+03  0.19363958235E+03  0.47000000000E+01 0.  1.
         13    1    4    4    0    0 -0.13848221070E+02  0.46913331077E+02  0.71544958992E+02  0.86667843037E+02  0.00000000000E+00 0. -1.
        -14    1    4    4    0    0  0.54486040181E+02  0.30202425194E+02  0.31489180582E+02  0.69803177263E+02  0.00000000000E+00 0.  1.
</event>
<event>
12    1  0.9966151E-001  0.3304599E+03  0.7818608E-02  0.1071026E+00
         21   -1    0    0  503  502  0.00000000000E+00  0.00000000000E+00  0.27144114741E+04  0.27144114741E+04  0.00000000000E+00 0.  1.
         21   -1    0    0  501  503 -0.00000000000E+00 -0.00000000000E+00 -0.45119272460E+02  0.45119272460E+02  0.00000000000E+00 0.  1.
          6    2    1    2  501    0 -0.10599996576E+02  0.28131411309E+03  0.17919942939E+04  0.18220578748E+04  0.17146824619E+03 0.  0.
         24    2    3    3    0    0  0.44004669058E+02  0.16018105032E+03  0.12689203095E+04  0.12823511289E+04  0.81677941139E+02 0.  0.
         -6    2    1    2    0  502  0.10599996576E+02 -0.28131411309E+03  0.87729790770E+03  0.93747287176E+03  0.17307159295E+03 0.  0.
        -24    2    5    5    0    0  0.41803083182E+01 -0.41181015752E+02  0.26370913514E+03  0.27852037830E+03  0.79484225692E+02 0.  0.
          5    1    3    3  501    0 -0.54604665634E+02  0.12113306276E+03  0.52307398442E+03  0.53970674591E+03  0.47000000000E+01 0. -1.
        -11    1    4    4    0    0  0.25133836961E+02  0.14700282615E+03  0.86397024206E+03  0.87674746639E+03  0.00000000000E+00 0.  1.
         12    1    4    4    0    0  0.18870832098E+02  0.13178224170E+02  0.40495006742E+03  0.40560366246E+03  0.00000000000E+00 0. -1.
         -5    1    5    5    0  502  0.64196882575E+01 -0.24013309734E+03  0.61358877256E+03  0.65895249347E+03  0.47000000000E+01 0.  1.
         13    1    6    6    0    0 -0.29445204686E+02 -0.25982122853E+02  0.61473577825E+02  0.72945812474E+02  0.00000000000E+00 0. -1.
        -14    1    6    6    0    0  0.33625513004E+02 -0.15198892898E+02  0.20223555732E+03  0.20557456583E+03  0.00000000000E+00 0.  1.
</event>
<event>
12    1  0.9966151E-001  0.2441719E+03  0.7818608E-02  0.1118310E+00
         21   -1    0    0  501  502  0.00000000000E+00  0.00000000000E+00  0.32721587097E+03  0.32721587097E+03  0.00000000000E+00 0.  1.
         21   -1    0    0  502  503 -0.00000000000E+00 -0.00000000000E+00 -0.18316713816E+03  0.18316713816E+03  0.00000000000E+00 0.  1.
         -6    2    1    2    0  503 -0.15139724775E+03 -0.61601636144E+02  0.24626360184E+02  0.24541058463E+03  0.18139462294E+03 0.  0.
        -24    2    3    3    0    0 -0.10834812538E+03  0.34960502502E+02  0.19195768793E+02  0.13944334970E+03  0.78194739124E+02 0.  0.
          6    2    1    2  501    0  0.15139724775E+03  0.61601636144E+02  0.11942237263E+03  0.26497242450E+03  0.17097600552E+03 0.  0.
         24    2    5    5    0    0  0.64685148926E+02 -0.23878837779E+02  0.91725087718E+02  0.14001191436E+03  0.80221425195E+02 0.  0.
          5    1    5    5  501    0  0.86712098823E+02  0.85480473923E+02  0.27697284909E+02  0.12496051015E+03  0.47000000000E+01 0. -1.
        -13    1    6    6    0    0  0.57487609227E+02 -0.39347480708E+02  0.29783277432E+02  0.75763401899E+02  0.00000000000E+00 0.  1.
         14    1    6    6    0    0  0.71975396982E+01  0.15468642929E+02  0.61941810286E+02  0.64248512460E+02  0.00000000000E+00 0. -1.
         -5    1    3    3    0  503 -0.43049122371E+02 -0.96562138647E+02  0.54305913902E+01  0.10596723493E+03  0.47000000000E+01 0.  1.
         13    1    4    4    0    0 -0.33926101498E+02 -0.20210648464E+02 -0.12672749953E+02  0.41473476651E+02  0.00000000000E+00 0. -1.
        -14    1    4    4    0    0 -0.74422023880E+02  0.55171150966E+02  0.31868518746E+02  0.97969873045E+02  0.00000000000E+00 0.  1.
</event>
<event>
12    1  0.9966151E-001  0.2439110E+03  0.7818608E-02  0.1117619E+00
         21   -1    0    0  503  502  0.00000000000E+00  0.00000000000E+00  0.31020091304E+03  0.31020091304E+03  0.00000000000E+00 0.  1.
         21   -1    0    0  501  503 -0.00000000000E+00 -0.00000000000E+00 -0.20753621107E+03  0.20753621107E+03  0.00000000000E+00 0.  1.
          6    2    1    2  501    0 -0.20003382143E+02  0.16814954454E+03 -0.24467177992E+02  0.24268245796E+03  0.17210963941E+03 0.  0.
         24    2    3    3    0    0  0.10821253823E+02  0.11820616140E+03  0.44117556734E+02  0.15229188578E+03  0.84597065765E+02 0.  0.
         -6    2    1    2    0  502  0.20003382143E+02 -0.16814954454E+03  0.12713187996E+03  0.27505466614E+03  0.17555098929E+03 0.  0.
        -24    2    5    5    0    0  0.78915970719E+02 -0.93173280635E+02  0.94658610458E+02  0.17421451306E+03  0.80507473993E+02 0.  0.
          5    1    3    3  501    0 -0.30824635966E+02  0.49943383141E+02 -0.68584734726E+02  0.90390572182E+02  0.47000000000E+01 0. -1.
        -13    1    4    4    0    0  0.33880988195E+02  0.64265193924E+02 -0.89356407093E+01  0.73196872788E+02  0.00000000000E+00 0.  1.
         14    1    4    4    0    0 -0.23059734372E+02  0.53940967473E+02  0.53053197443E+02  0.79095012992E+02  0.00000000000E+00 0. -1.
         -5    1    5    5    0  502 -0.58912588576E+02 -0.74976263903E+02  0.32473269501E+02  0.10084015308E+03  0.47000000000E+01 0.  1.
         13    1    6    6    0    0  0.75686882920E+02 -0.34855447754E+02  0.33969239798E+02  0.89985086190E+02  0.00000000000E+00 0. -1.
        -14    1    6    6    0    0  0.32290877995E+01 -0.58317832881E+02  0.60689370661E+02  0.84229426872E+02  0.00000000000E+00 0.  1.
</event>
<event>
12    1  0.9966151E-001  0.2553978E+03  0.7818608E-02  0.1110007E+00
         21   -1    0    0  503  502  0.00000000000E+00  0.00000000000E+00  0.28021773899E+03  0.28021773899E+03  0.00000000000E+00 0. -1.
         21   -1    0    0  501  503 -0.00000000000E+00 -0.00000000000E+00 -0.23511883614E+03  0.23511883614E+03  0.00000000000E+00 0.  1.
          6    2    1    2  501    0 -0.13679180726E+01 -0.18917696351E+03 -0.52326563644E+01  0.25545141239E+03  0.17157578115E+03 0.  0.
         24    2    3    3    0    0 -0.51159467400E+02 -0.55894833486E+02  0.17588680219E+02  0.11127711520E+03  0.79572050244E+02 0.  0.
         -6    2    1    2    0  502  0.13679180726E+01  0.18917696351E+03  0.50331559214E+02  0.25988516273E+03  0.17093050409E+03 0.  0.
        -24    2    5    5    0    0  0.58861036318E+02  0.80537451214E+02  0.11761847288E+02  0.13097544643E+03  0.84055480911E+02 0.  0.
          5    1    3    3  501    0  0.49791549327E+02 -0.13328213002E+03 -0.22821336583E+02  0.14417429720E+03  0.47000000000E+01 0. -1.
        -11    1    4    4    0    0 -0.43365524745E+02 -0.49591381714E+02 -0.22762595054E+02  0.69699423314E+02  0.00000000000E+00 0.  1.
         12    1    4    4    0    0 -0.77939426552E+01 -0.63034517718E+01  0.40351275273E+02  0.41577691885E+02  0.00000000000E+00 0. -1.
         -5    1    5    5    0  502 -0.57493118246E+02  0.10863951230E+03  0.38569711927E+02  0.12890971630E+03  0.47000000000E+01 0.  1.
         11    1    6    6    0    0  0.32743851655E+02  0.22732215452E+02  0.44376346899E+02  0.59650428370E+02  0.00000000000E+00 0. -1.
        -12    1    6    6    0    0  0.26117184663E+02  0.57805235763E+02 -0.32614499612E+02  0.71325018060E+02  0.00000000000E+00 0.  1.
</event>
<event>
12    1  0.9966151E-001  0.1793268E+03  0.7818608E-02  0.1169308E+00
         21   -1    0    0  503  502  0.00000000000E+00  0.00000000000E+00  0.26574862138E+02  0.26574862138E+02  0.00000000000E+00 0.  1.
         21   -1    0    0  501  503 -0.00000000000E+00 -0.00000000000E+00 -0.12218481144E+04  0.12218481144E+04  0.00000000000E+00 0.  1.
          6    2    1    2  501    0 -0.77016368104E+01 -0.35886377010E+02 -0.49761428389E+03  0.52894053094E+03  0.17553051722E+03 0.  0.
         24    2    3    3    0    0  0.37439041969E+00  0.13354925387E+02 -0.10301908363E+03  0.13117503452E+03  0.80096590992E+02 0.  0.
         -6    2    1    2    0  502  0.77016368104E+01  0.35886377010E+02 -0.69765896840E+03  0.71948244563E+03  0.17198780802E+03 0.  0.
        -24    2    5    5    0    0  0.52367050205E+02 -0.13180791662E+01 -0.59511136667E+03  0.60151096037E+03  0.70098868912E+02 0.  0.
          5    1    3    3  501    0 -0.80760272301E+01 -0.49241302397E+02 -0.39459520025E+03  0.39776549642E+03  0.47000000000E+01 0. -1.
        -11    1    4    4    0    0  0.25529727388E+02 -0.24346836198E+02 -0.53093498186E+02  0.63745234826E+02  0.00000000000E+00 0.  1.
         12    1    4    4    0    0 -0.25155336968E+02  0.37701761585E+02 -0.49925585448E+02  0.67429799695E+02  0.00000000000E+00 0. -1.
         -5    1    5    5    0  502 -0.44665413395E+02  0.37204456176E+02 -0.10254760173E+03  0.11797148526E+03  0.47000000000E+01 0.  1.
         13    1    6    6    0    0  0.14828953195E+02  0.33011844838E+02 -0.27795957912E+03  0.28030556073E+03  0.00000000000E+00 0. -1.
        -14    1    6    6    0    0  0.37538097011E+02 -0.34329924004E+02 -0.31715178755E+03  0.32120539964E+03  0.00000000000E+00 0.  1.
</event>
<event>
12    1  0.9966151E-001  0.1809513E+03  0.7818608E-02  0.1167614E+00
         21   -1    0    0  503  502  0.00000000000E+00  0.00000000000E+00  0.47322977366E+02  0.47322977366E+02  0.00000000000E+00 0.  1.
         21   -1    0    0  501  503 -0.00000000000E+00 -0.00000000000E+00 -0.76204184360E+03  0.76204184360E+03  0.00000000000E+00 0.  1.
          6    2    1    2  501    0  0.31041241879E+01  0.45456707229E+02 -0.22763227397E+03  0.29079169245E+03  0.17512112502E+03 0.  0.
         24    2    3    3    0    0  0.34281886242E+02  0.68808879936E+02 -0.71621588485E+02  0.12992279924E+03  0.76422327524E+02 0.  0.
         -6    2    1    2    0  502 -0.31041241879E+01 -0.45456707229E+02 -0.48708659227E+03  0.51857312852E+03  0.17201393383E+03 0.  0.
        -24    2    5    5    0    0 -0.35657557897E+01  0.40901703862E+02 -0.29873857648E+03  0.31131711939E+03  0.77381830887E+02 0.  0.
          5    1    3    3  501    0 -0.31177762054E+02 -0.23352172706E+02 -0.15601068549E+03  0.16086889321E+03  0.47000000000E+01 0. -1.
        -13    1    4    4    0    0  0.20025008046E+01  0.75008235436E+02 -0.55386723241E+02  0.93262717653E+02  0.00000000000E+00 0.  1.
         14    1    4    4    0    0  0.32279385437E+02 -0.61993555001E+01 -0.16234865243E+02  0.36660081591E+02  0.00000000000E+00 0. -1.
         -5    1    5    5    0  502  0.46163160175E+00 -0.86358411092E+02 -0.18834801579E+03  0.20725600913E+03  0.47000000000E+01 0.  1.
         13    1    6    6    0    0  0.35887694353E+02  0.93650280227E+01 -0.12579638586E+03  0.13115014698E+03  0.00000000000E+00 0. -1.
        -14    1    6    6    0    0 -0.39453450143E+02  0.31536675839E+02 -0.17294219062E+03  0.18016697241E+03  0.00000000000E+00 0.  1.
</event>
<event>
12    1  0.9966151E-001  0.1939076E+03  0.7818608E-02  0.1155104E+00
         21   -1    0    0  501  502  0.00000000000E+00  0.00000000000E+00  0.18924077465E+03  0.18924077465E+03  0.00000000000E+00 0. -1.
         21   -1    0    0  502  503 -0.00000000000E+00 -0.00000000000E+00 -0.25608324316E+03  0.25608324316E+03  0.00000000000E+00 0. -1.
         -6    2    1    2    0  503  0.50579563737E+02  0.73523274251E+02 -0.13930872922E+03  0.23831795651E+03  0.17153589197E+03 0.  0.
        -24    2    3    3    0    0  0.29559625796E+02  0.98723311114E+02 -0.15576470293E+03  0.20130756986E+03  0.75113456668E+02 0.  0.
          6    2    1    2  501    0 -0.50579563737E+02 -0.73523274251E+02  0.72466260709E+02  0.20700606129E+03  0.17215163765E+03 0.  0.
         24    2    5    5    0    0 -0.80986203491E+02 -0.58411737426E+02  0.10039478229E+03  0.16279051421E+03  0.80317762540E+02 0.  0.
          5    1    5    5  501    0  0.30406639754E+02 -0.15111536825E+02 -0.27928521584E+02  0.44215547087E+02  0.47000000000E+01 0. -1.
        -13    1    6    6    0    0 -0.72538318492E+01 -0.34343861963E+02  0.72169907076E+02  0.80253438670E+02  0.00000000000E+00 0.  1.
         14    1    6    6    0    0 -0.73732371642E+02 -0.24067875463E+02  0.28224875216E+02  0.82537075538E+02  0.00000000000E+00 0. -1.
         -5    1    3    3    0  503  0.21019937941E+02 -0.25200036862E+02  0.16455973706E+02  0.37010386644E+02  0.47000000000E+01 0.  1.
         11    1    4    4    0    0  0.10289257534E+02  0.69763808698E+02 -0.41407089651E+02  0.81776554697E+02  0.00000000000E+00 0. -1.
        -12    1    4    4    0    0  0.19270368263E+02  0.28959502415E+02 -0.11435761327E+03  0.11953101517E+03  0.00000000000E+00 0.  1.
</event>
<event>
12    1  0.9966151E-001  0.1808366E+03  0.7818608E-02  0.1167478E+00
         21   -1    0    0  501  502  0.00000000000E+00  0.00000000000E+00  0.26662088349E+02  0.26662088349E+02  0.00000000000E+00 0. -1.
         21   -1    0    0  502  503 -0.00000000000E+00 -0.00000000000E+00 -0.16426095201E+04  0.16426095201E+04  0.00000000000E+00 0. -1.
         -6    2    1    2    0  503  0.54352444409E+02 -0.14699186584E+02 -0.37786508924E+03  0.41805230121E+03  0.16975113130E+03 0.  0.
        -24    2    3    3    0    0 -0.35895322707E+02 -0.10633249125E+01 -0.17150145423E+03  0.19235640836E+03  0.79363935017E+02 0.  0.
          6    2    1    2  501    0 -0.54352444409E+02  0.14699186584E+02 -0.12380823425E+04  0.12512193072E+04  0.17184764673E+03 0.  0.
         24    2    5    5    0    0 -0.43417480169E+02  0.14014296940E+02 -0.12357341083E+04  0.12390683105E+04  0.78549433566E+02 0.  0.
          5    1    5    5  501    0 -0.10934964240E+02  0.68488964368E+00 -0.23482341199E+01  0.12150996676E+02  0.47000000000E+01 0. -1.
        -13    1    6    6    0    0 -0.46528756173E+02 -0.19357085879E+02 -0.95707467250E+03  0.95840051684E+03  0.00000000000E+00 0.  1.
         14    1    6    6    0    0  0.31112760037E+01  0.33371382819E+02 -0.27865943583E+03  0.28066779368E+03  0.00000000000E+00 0. -1.
         -5    1    3    3    0  503  0.90247767116E+02 -0.13635861671E+02 -0.20636363501E+03  0.22569589285E+03  0.47000000000E+01 0.  1.
         13    1    4    4    0    0 -0.46641169242E+02  0.72523197953E+01 -0.45289258825E+02  0.65414920129E+02  0.00000000000E+00 0. -1.
        -14    1    4    4    0    0  0.10745846535E+02 -0.83156447077E+01 -0.12621219541E+03  0.12694148823E+03  0.00000000000E+00 0.  1.
</event>
<event>
12    1  0.9966151E-001  0.1768152E+03  0.7818608E-02  0.1171876E+00
         21   -1    0    0  501  502  0.00000000000E+00  0.00000000000E+00  0.80217418875E+03  0.80217418875E+03  0.00000000000E+00 0.  1.
         21   -1    0    0  502  503 -0.00000000000E+00 -0.00000000000E+00 -0.38778509722E+02  0.38778509722E+02  0.00000000000E+00 0.  1.
         -6    2    1    2    0  503 -0.41944974723E+02  0.17066962209E+02  0.32358818852E+03  0.36693346481E+03  0.16697361989E+03 0.  0.
        -24    2    3    3    0    0 -0.66750095432E+02 -0.34169622806E+02  0.16169436154E+03  0.19525882232E+03  0.79735831198E+02 0.  0.
          6    2    1    2  501    0  0.41944974723E+02 -0.17066962209E+02  0.43980749050E+03  0.47401923366E+03  0.17091794253E+03 0.  0.
         24    2    5    5    0    0  0.61362328795E+02  0.35462087892E+02  0.36761811169E+03  0.38253299887E+03  0.78520851426E+02 0.  0.
          5    1    5    5  501    0 -0.19417354072E+02 -0.52529050101E+02  0.72189378813E+02  0.91486234796E+02  0.47000000000E+01 0. -1.
        -11    1    6    6    0    0  0.21888324293E+02  0.43841985874E+02  0.94495589439E+02  0.10644545500E+03  0.00000000000E+00 0.  1.
         12    1    6    6    0    0  0.39474004502E+02 -0.83798979822E+01  0.27312252225E+03  0.27608754387E+03  0.00000000000E+00 0. -1.
         -5    1    3    3    0  503  0.24805120709E+02  0.51236585015E+02  0.16189382698E+03  0.17167464249E+03  0.47000000000E+01 0.  1.
         11    1    4    4    0    0 -0.11720115072E+02 -0.49660256022E+02  0.91133814266E+02  0.10444555629E+03  0.00000000000E+00 0. -1.
        -12    1    4    4    0    0 -0.55029980360E+02  0.15490633216E+02  0.70560547276E+02  0.90813266034E+02  0.00000000000E+00 0.  1.
</event>
<event>
12    1  0.9966151E-001  0.1775802E+03  0.7818608E-02  0.1170370E+00
         21   -1    0    0  503  502  0.00000000000E+00  0.00000000000E+00  0.26246452728E+03  0.26246452728E+03  0.00000000000E+00 0. -1.
         21   -1    0    0  501  503 -0.00000000000E+00 -0.00000000000E+00 -0.12980423037E+03  0.12980423037E+03  0.00000000000E+00 0. -1.
          6    2    1    2  501    0 -0.35708756007E+01 -0.40375222861E+02  0.12120862745E+03  0.21431968936E+03  0.17204211143E+03 0.  0.
         24    2    3    3    0    0  0.26668735624E+01 -0.61906973502E+02  0.86228376079E+01  0.99427671039E+02  0.77278217222E+02 0.  0.
         -6    2    1    2    0  502  0.35708756007E+01  0.40375222861E+02  0.11451669461E+02  0.17794906829E+03  0.17289251111E+03 0.  0.
        -24    2    5    5    0    0 -0.17062386971E+02 -0.41959882840E+02 -0.70864155468E+01  0.90940150640E+02  0.78537487202E+02 0.  0.
          5    1    3    3  501    0 -0.62377491631E+01  0.21531750641E+02  0.11258578984E+03  0.11489201832E+03  0.47000000000E+01 0. -1.
        -11    1    4    4    0    0 -0.17925571218E+02  0.12417808095E+02  0.39505020236E+01  0.22161555171E+02  0.00000000000E+00 0.  1.
         12    1    4    4    0    0  0.20592444780E+02 -0.74324781597E+02  0.46723355844E+01  0.77266115868E+02  0.00000000000E+00 0. -1.
         -5    1    5    5    0  502  0.20633262572E+02  0.82335105701E+02  0.18538085008E+02  0.87008917651E+02  0.47000000000E+01 0.  1.
         13    1    6    6    0    0  0.11106049511E+02 -0.12415137379E+02 -0.36837003991E+02  0.40428267771E+02  0.00000000000E+00 0. -1.
        -14    1    6    6    0    0 -0.28168436482E+02 -0.29544745461E+02  0.29750588444E+02  0.50511882869E+02  0.00000000000E+00 0.  1.
</event>
<event>
12    1  0.9966151E-001  0.2046349E+03  0.7818608E-02  0.1147689E+00
         21   -1    0    0  501  502  0.00000000000E+00  0.00000000000E+00  0.57595737000E+02  0.57595737000E+02  0.00000000000E+00 0.  1.
         21   -1    0    0  502  503 -0.00000000000E+00 -0.00000000000E+00 -0.69681271696E+03  0.69681271696E+03  0.00000000000E+00 0.  1.
         -6    2    1    2    0  503 -0.39548805518E+02  0.86829678235E+02 -0.31269290754E+03  0.36906001545E+03  0.17124526137E+03 0.  0.
        -24    2    3    3    0    0  0.21264305781E+02  0.59388997364E+02 -0.11711664653E+03  0.16236364552E+03  0.93093613016E+02 0.  0.
          6    2    1    2  501    0  0.39548805518E+02 -0.86829678235E+02 -0.32652407242E+03  0.38534843851E+03  0.18103024098E+03 0.  0.
         24    2    5    5    0    0  0.35275754262E+02  0.26770526390E+02 -0.12782987807E+03  0.15638394710E+03  0.78450119569E+02 0.  0.
          5    1    5    5  501    0  0.42730512566E+01 -0.11360020463E+03 -0.19869419435E+03  0.22896449141E+03  0.47000000000E+01 0. -1.
        -11    1    6    6    0    0  0.15033397084E+02  0.30332939791E+02 -0.13125188658E+03  0.13554758572E+03  0.00000000000E+00 0.  1.
         12    1    6    6    0    0  0.20242357178E+02 -0.35624134006E+01  0.34220085048E+01  0.20836361380E+02  0.00000000000E+00 0. -1.
         -5    1    3    3    0  503 -0.60813111299E+02  0.27440680871E+02 -0.19557626100E+03  0.20669636993E+03  0.47000000000E+01 0.  1.
         13    1    4    4    0    0 -0.95356032574E+01  0.28177049410E+02  0.71442109467E+01  0.30592704898E+02  0.00000000000E+00 0. -1.
        -14    1    4    4    0    0  0.30799909038E+02  0.31211947954E+02 -0.12426085748E+03  0.13177094062E+03  0.00000000000E+00 0.  1.
</event>
<event>
12    1  0.9966151E-001  0.3585046E+03  0.7818608E-02  0.1059224E+00
         21   -1    0    0  501  502  0.00000000000E+00  0.00000000000E+00  0.49952835650E+03  0.49952835650E+03  0.00000000000E+00 0.  1.
         21   -1    0    0  502  503 -0.00000000000E+00 -0.00000000000E+00 -0.39316940543E+03  0.39316940543E+03  0.00000000000E+00 0.  1.
         -6    2    1    2    0  503 -0.29133842013E+03  0.11795237225E+03  0.31587767596E+03  0.47745853796E+03  0.17145586062E+03 0.  0.
        -24    2    3    3    0    0 -0.22231182555E+03  0.15155397956E+03  0.25593079797E+03  0.37994209343E+03  0.80400649941E+02 0.  0.
          6    2    1    2  501    0  0.29133842013E+03 -0.11795237225E+03 -0.20951872489E+03  0.41523922397E+03  0.17243746659E+03 0.  0.
         24    2    5    5    0    0  0.52825529207E+02 -0.28481139268E+02 -0.81582838253E+02  0.13013716899E+03  0.81720324431E+02 0.  0.
          5    1    5    5  501    0  0.23851289092E+03 -0.89471232982E+02 -0.12793588664E+03  0.28510205499E+03  0.47000000000E+01 0. -1.
        -13    1    6    6    0    0  0.39013007197E+02  0.11150646417E+00  0.36478713668E+01  0.39183339952E+02  0.00000000000E+00 0.  1.
         14    1    6    6    0    0  0.13812522010E+02 -0.28592645732E+02 -0.85230709620E+02  0.90953829038E+02  0.00000000000E+00 0. -1.
         -5    1    3    3    0  503 -0.69026594580E+02 -0.33601607315E+02  0.59946877993E+02  0.97516444534E+02  0.47000000000E+01 0.  1.
         13    1    4    4    0    0 -0.21672813371E+03  0.13151144736E+03  0.25429606696E+03  0.35907218549E+03  0.00000000000E+00 0. -1.
        -14    1    4    4    0    0 -0.55836918420E+01  0.20042532204E+02  0.16347310118E+01  0.20869907935E+02  0.00000000000E+00 0.  1.
</event>
<event>
12    1  0.9966151E-001  0.2597471E+03  0.7818608E-02  0.1107461E+00
         21   -1    0    0  501  502  0.00000000000E+00  0.00000000000E+00  0.13438827371E+03  0.13438827371E+03  0.00000000000E+00 0.  1.
         21   -1    0    0  502  503 -0.00000000000E+00 -0.00000000000E+00 -0.50396245698E+03  0.50396245698E+03  0.00000000000E+00 0. -1.
         -6    2    1    2    0  503  0.94605555909E+02  0.16854924008E+03 -0.21378152432E+03  0.33640911125E+03  0.17352087036E+03 0.  0.
        -24    2    3    3    0    0 -0.18087506403E+02  0.91795949937E+02 -0.93641697353E+02  0.15462225291E+03  0.79910070077E+02 0.  0.
          6    2    1    2  501    0 -0.94605555909E+02 -0.16854924008E+03 -0.15579265895E+03  0.30194161944E+03  0.17186719124E+03 0.  0.
         24    2    5    5    0    0 -0.25988183018E+02 -0.55475240155E+02 -0.33809624813E+01  0.10008650173E+03  0.79075843311E+02 0.  0.
          5    1    5    5  501    0 -0.68617372891E+02 -0.11307399993E+03 -0.15241169647E+03  0.20185511770E+03  0.47000000000E+01 0. -1.
        -13    1    6    6    0    0 -0.54238527862E+02 -0.42644047588E+02 -0.28583540468E+01  0.69054347344E+02  0.00000000000E+00 0.  1.
         14    1    6    6    0    0  0.28250344844E+02 -0.12831192567E+02 -0.52260843445E+00  0.31032154390E+02  0.00000000000E+00 0. -1.
         -5    1    3    3    0  503  0.11269306231E+03  0.76753290147E+02 -0.12013982697E+03  0.18178685834E+03  0.47000000000E+01 0.  1.
         13    1    4    4    0    0  0.21247967816E+02  0.73288377063E+02 -0.76030097048E+02  0.10771832716E+03  0.00000000000E+00 0. -1.
        -14    1    4    4    0    0 -0.39335474219E+02  0.18507572873E+02 -0.17611600305E+02  0.46903925753E+02  0.00000000000E+00 0.  1.
</event>
<event>
12    1  0.9966151E-001  0.4438942E+03  0.7818608E-02  0.1029588E+00
         21   -1    0    0  501  502  0.00000000000E+00  0.00000000000E+00  0.26290296046E+03  0.26290296046E+03  0.00000000000E+00 0.  1.
         21   -1    0    0  502  503 -0.00000000000E+00 -0.00000000000E+00 -0.85798792275E+03  0.85798792275E+03  0.00000000000E+00 0.  1.
         -6    2    1    2    0  503 -0.35501565017E+03 -0.20245208521E+03 -0.97748055634E+02  0.45452913995E+03  0.17326020319E+03 0.  0.
        -24    2    3    3    0    0 -0.28266769044E+03 -0.21768771908E+03 -0.56961382071E+02  0.36995967408E+03  0.79602733234E+02 0.  0.
          6    2    1    2  501    0  0.35501565017E+03  0.20245208521E+03 -0.49733690665E+03  0.66636174326E+03  0.17225276628E+03 0.  0.
         24    2    5    5    0    0  0.12949201376E+03  0.10314822696E+03 -0.13472100345E+03  0.22791613649E+03  0.79926704849E+02 0.  0.
          5    1    5    5  501    0  0.22552363641E+03  0.99303858243E+02 -0.36261590320E+03  0.43844560677E+03  0.47000000000E+01 0. -1.
        -11    1    6    6    0    0  0.28386136972E+02  0.67133941649E+02 -0.32885213187E+02  0.79963592590E+02  0.00000000000E+00 0.  1.
         12    1    6    6    0    0  0.10110587679E+03  0.36014285316E+02 -0.10183579026E+03  0.14795254390E+03  0.00000000000E+00 0. -1.
         -5    1    3    3    0  503 -0.72347959731E+02  0.15235633876E+02 -0.40786673563E+02  0.84569465868E+02  0.47000000000E+01 0.  1.
         13    1    4    4    0    0 -0.16256980438E+03 -0.12989140712E+03 -0.72561558654E+02  0.22037672004E+03  0.00000000000E+00 0. -1.
        -14    1    4    4    0    0 -0.12009788606E+03 -0.87796311962E+02  0.15600176583E+02  0.14958295404E+03  0.00000000000E+00 0.  1.
</event>
<event>
12    1  0.9966151E-001  0.2580901E+03  0.7818608E-02  0.1108917E+00
         21   -1    0    0  503  502  0.00000000000E+00  0.00000000000E+00  0.14793126150E+03  0.14793126150E+03  0.00000000000E+00 0. -1.
         21   -1    0    0  501  503 -0.00000000000E+00 -0.00000000000E+00 -0.46812361303E+03  0.46812361303E+03  0.00000000000E+00 0. -1.
          6    2    1    2  501    0 -0.15258447826E+03  0.10755287027E+03 -0.90257838743E+02  0.27341721143E+03  0.17821574325E+03 0.  0.
         24    2    3    3    0    0 -0.10945862756E+03 -0.73237449853E+01 -0.54285628413E+02  0.14546188467E+03  0.78596450621E+02 0.  0.
         -6    2    1    2    0  502  0.15258447826E+03 -0.10755287027E+03 -0.22993451279E+03  0.34263766310E+03  0.17228187687E+03 0.  0.
        -24    2    5    5    0    0  0.93458912742E+01 -0.19587832501E+02 -0.59507330721E+02  0.10321616227E+03  0.81494937753E+02 0.  0.
          5    1    3    3  501    0 -0.43125850701E+02  0.11487661525E+03 -0.35972210330E+02  0.12795532676E+03  0.47000000000E+01 0. -1.
        -13    1    4    4    0    0 -0.57000494171E+02 -0.30815580675E+02  0.22543734899E+01  0.64836244091E+02  0.00000000000E+00 0.  1.
         14    1    4    4    0    0 -0.52458133393E+02  0.23491835690E+02 -0.56540001902E+02  0.80625640576E+02  0.00000000000E+00 0. -1.
         -5    1    5    5    0  502  0.14323858699E+03 -0.87965037766E+02 -0.17042718207E+03  0.23942150083E+03  0.47000000000E+01 0.  1.
         13    1    6    6    0    0  0.30433327789E+01 -0.82735220845E+01 -0.79176615968E+02  0.79665861938E+02  0.00000000000E+00 0. -1.
        -14    1    6    6    0    0  0.63025584953E+01 -0.11314310416E+02  0.19669285248E+02  0.23550300336E+02  0.00000000000E+00 0.  1.
</event>
<event>
12    1  0.9966151E-001  0.2290697E+03  0.7818608E-02  0.1127361E+00
         21   -1    0    0  501  502  0.00000000000E+00  0.00000000000E+00  0.23844043359E+03  0.23844043359E+03  0.00000000000E+00 0.  1.
         21   -1    0    0  502  503 -0.00000000000E+00 -0.00000000000E+00 -0.22874742795E+03  0.22874742795E+03  0.00000000000E+00 0.  1.
         -6    2    1    2    0  503 -0.14600481567E+03  0.38800731922E+02 -0.41562380308E+02  0.23280974699E+03  0.17219188087E+03 0.  0.
        -24    2    3    3    0    0 -0.73870596330E+02 -0.28619885867E+02  0.23667461818E+02  0.11437872231E+03  0.79034046450E+02 0.  0.
          6    2    1    2  501    0  0.14600481567E+03 -0.38800731922E+02  0.51255385951E+02  0.23437811455E+03  0.17170638600E+03 0.  0.
         24    2    5    5    0    0  0.17315264501E+03 -0.53007572984E+02  0.54004057318E+02  0.20325763632E+03  0.74870469802E+02 0.  0.
          5    1    5    5  501    0 -0.27147829341E+02  0.14206841062E+02 -0.27486713661E+01  0.31120478228E+02  0.47000000000E+01 0. -1.
        -13    1    6    6    0    0  0.19152545834E+02 -0.35458765995E+02  0.45196734367E+01  0.40553317322E+02  0.00000000000E+00 0.  1.
         14    1    6    6    0    0  0.15400009918E+03 -0.17548806989E+02  0.49484383881E+02  0.16270431900E+03  0.00000000000E+00 0. -1.
         -5    1    3    3    0  503 -0.72134219339E+02  0.67420617790E+02 -0.65229842127E+02  0.11843102468E+03  0.47000000000E+01 0.  1.
         13    1    4    4    0    0 -0.27593646494E+02  0.23872324844E+02 -0.83395182406E+01  0.37427861077E+02  0.00000000000E+00 0. -1.
        -14    1    4    4    0    0 -0.46276949836E+02 -0.52492210711E+02  0.32006980059E+02  0.76950861230E+02  0.00000000000E+00 0.  1.
</event>
<event>
12    1  0.9966151E-001  0.1866800E+03  0.7818608E-02  0.1161528E+00
         21   -1    0    0  501  502  0.00000000000E+00  0.00000000000E+00  0.16470025623E+03  0.16470025623E+03  0.00000000000E+00 0.  1.
         21   -1    0    0  502  503 -0.00000000000E+00 -0.00000000000E+00 -0.41030217099E+03  0.41030217099E+03  0.00000000000E+00 0.  1.
         -6    2    1    2    0  503  0.85218151619E+01  0.73520550649E+02 -0.32294259983E+03  0.37293559922E+03  0.17120498147E+03 0.  0.
        -24    2    3    3    0    0  0.72219961536E+01  0.34821657728E+02 -0.32250839077E+03  0.33392826170E+03  0.78941223535E+02 0.  0.
          6    2    1    2  501    0 -0.85218151619E+01 -0.73520550649E+02  0.77340685075E+02  0.20206682801E+03  0.17138123792E+03 0.  0.
         24    2    5    5    0    0 -0.61418674756E+02 -0.55775443788E+02  0.88102102245E+02  0.14505047358E+03  0.79965653424E+02 0.  0.
          5    1    5    5  501    0  0.52896859594E+02 -0.17745106861E+02 -0.10761417171E+02  0.57016354425E+02  0.47000000000E+01 0. -1.
        -11    1    6    6    0    0 -0.27765250917E+02  0.87668008124E+01 -0.20415609632E+01  0.29187907190E+02  0.00000000000E+00 0.  1.
         12    1    6    6    0    0 -0.33653423840E+02 -0.64542244600E+02  0.90143663208E+02  0.11586256639E+03  0.00000000000E+00 0. -1.
         -5    1    3    3    0  503  0.12998190083E+01  0.38698892921E+02 -0.43420906496E+00  0.39007337518E+02  0.47000000000E+01 0.  1.
         11    1    4    4    0    0 -0.19065816354E+02 -0.17387725042E+02 -0.66489173687E+02  0.71320744198E+02  0.00000000000E+00 0. -1.
        -12    1    4    4    0    0  0.26287812507E+02  0.52209382770E+02 -0.25601921708E+03  0.26260751750E+03  0.00000000000E+00 0.  1.
</event>
<event>
12    1  0.9966151E-001  0.1806105E+03  0.7818608E-02  0.1167604E+00
         21   -1    0    0  503  502  0.00000000000E+00  0.00000000000E+00  0.11783808138E+03  0.11783808138E+03  0.00000000000E+00 0.  1.
         21   -1    0    0  501  503 -0.00000000000E+00 -0.00000000000E+00 -0.34210468373E+03  0.34210468373E+03  0.00000000000E+00 0.  1.
          6    2    1    2  501    0  0.29831775189E+02  0.41755235947E+02 -0.93888895561E+01  0.17924262553E+03  0.17148274846E+03 0.  0.
         24    2    3    3    0    0 -0.10262765436E+02  0.86751334604E+02 -0.63725959184E+01  0.11871652282E+03  0.80136660781E+02 0.  0.
         -6    2    1    2    0  502 -0.29831775189E+02 -0.41755235947E+02 -0.21487771280E+03  0.28070013957E+03  0.17316668952E+03 0.  0.
        -24    2    5    5    0    0 -0.73277441956E+02  0.12812369417E+02 -0.15026288237E+03  0.18550394308E+03  0.79366483919E+02 0.  0.
          5    1    3    3  501    0  0.40094540625E+02 -0.44996098657E+02 -0.30162936377E+01  0.60526102713E+02  0.47000000000E+01 0. -1.
        -13    1    4    4    0    0  0.19497940096E+02 -0.44266755907E+01 -0.10757247319E+02  0.22704261596E+02  0.00000000000E+00 0.  1.
         14    1    4    4    0    0 -0.29760705532E+02  0.91178010195E+02  0.43846514006E+01  0.96012261221E+02  0.00000000000E+00 0. -1.
         -5    1    5    5    0  502  0.43445666767E+02 -0.54567605364E+02 -0.64614830422E+02  0.95196196491E+02  0.47000000000E+01 0.  1.
         11    1    6    6    0    0  0.18127441043E+01 -0.43770826078E+01 -0.83301530001E+02  0.83436142012E+02  0.00000000000E+00 0. -1.
        -12    1    6    6    0    0 -0.75090186060E+02  0.17189452025E+02 -0.66961352372E+02  0.10206780107E+03  0.00000000000E+00 0.  1.
</event>
<event>
12    1  0.9966151E-001  0.1788577E+03  0.7818608E-02  0.1169182E+00
         21   -1    0    0  501  502  0.00000000000E+00  0.00000000000E+00  0.12210331021E+03  0.12210331021E+03  0.00000000000E+00 0.  1.
         21   -1    0    0  502  503 -0.00000000000E+00 -0.00000000000E+00 -0.65775460965E+03  0.65775460965E+03  0.00000000000E+00 0.  1.
         -6    2    1    2    0  503  0.30110747855E+02 -0.37562988312E+02 -0.57057436330E+03  0.59762260887E+03  0.17111412374E+03 0.  0.
        -24    2    3    3    0    0 -0.44549113967E+02  0.24256883742E+01 -0.25296915494E+03  0.26888510323E+03  0.79468848427E+02 0.  0.
          6    2    1    2  501    0 -0.30110747855E+02  0.37562988312E+02  0.34923063866E+02  0.18223531100E+03  0.17225693878E+03 0.  0.
         24    2    5    5    0    0  0.46885081351E+02  0.23989491620E+02 -0.49619143375E+01  0.94340493095E+02  0.78114028714E+02 0.  0.
          5    1    5    5  501    0 -0.76995829206E+02  0.13573496692E+02  0.39884978203E+02  0.87894817901E+02  0.47000000000E+01 0. -1.
        -13    1    6    6    0    0  0.47756425289E+02  0.10634823859E+02  0.29665207464E+02  0.57217131777E+02  0.00000000000E+00 0.  1.
         14    1    6    6    0    0 -0.87134393774E+00  0.13354667762E+02 -0.34627121802E+02  0.37123361318E+02  0.00000000000E+00 0. -1.
         -5    1    3    3    0  503  0.74659861822E+02 -0.39988676686E+02 -0.31760520837E+03  0.32873750564E+03  0.47000000000E+01 0.  1.
         11    1    4    4    0    0 -0.18227129576E+02 -0.38421268672E+02 -0.12067247982E+03  0.12794635409E+03  0.00000000000E+00 0. -1.
        -12    1    4    4    0    0 -0.26321984390E+02  0.40846957047E+02 -0.13229667512E+03  0.14093874914E+03  0.00000000000E+00 0.  1.
</event>
<event>
12    1  0.9966151E-001  0.1870395E+03  0.7818608E-02  0.1163557E+00
         21   -1    0    0  503  502  0.00000000000E+00  0.00000000000E+00  0.10850042503E+04  0.10850042503E+04  0.00000000000E+00 0. -1.
         21   -1    0    0  501  503 -0.00000000000E+00 -0.00000000000E+00 -0.11973568724E+03  0.11973568724E+03  0.00000000000E+00 0.  1.
          6    2    1    2  501    0  0.40635681110E+02  0.17903265738E+02  0.10059566506E+04  0.10231972196E+04  0.18169199738E+03 0.  0.
         24    2    3    3    0    0  0.87153348018E+02  0.14145072842E+02  0.89197650130E+03  0.89994308470E+03  0.80496507168E+02 0.  0.
         -6    2    1    2    0  502 -0.40635681110E+02 -0.17903265738E+02 -0.40688087461E+02  0.18154271797E+03  0.17126135724E+03 0.  0.
        -24    2    5    5    0    0 -0.77512485049E+02 -0.40709553047E+02  0.91623130072E+00  0.12126805705E+03  0.83902616962E+02 0.  0.
          5    1    3    3  501    0 -0.46517666907E+02  0.37581928969E+01  0.11398014927E+03  0.12325413492E+03  0.47000000000E+01 0. -1.
        -13    1    4    4    0    0  0.61549156404E+02  0.42701387221E+02  0.71171093851E+03  0.71564248555E+03  0.00000000000E+00 0.  1.
         14    1    4    4    0    0  0.25604191614E+02 -0.28556314380E+02  0.18026556279E+03  0.18430059915E+03  0.00000000000E+00 0. -1.
         -5    1    5    5    0  502  0.36876803938E+02  0.22806287309E+02 -0.41604318762E+02  0.60274660921E+02  0.47000000000E+01 0.  1.
         11    1    6    6    0    0 -0.44829322657E+02 -0.50119820553E+02  0.32650747222E+02  0.74751159699E+02  0.00000000000E+00 0. -1.
        -12    1    6    6    0    0 -0.32683162392E+02  0.94102675052E+01 -0.31734515921E+02  0.46516897351E+02  0.00000000000E+00 0.  1.
</event>
<event>
12    1  0.9966151E-001  0.1933916E+03  0.7818608E-02  0.1155635E+00
         21   -1    0    0  501  502  0.00000000000E+00  0.00000000000E+00  0.25318841755E+03  0.25318841755E+03  0.00000000000E+00 0. -1.
         21   -1    0    0  502  503 -0.00000000000E+00 -0.00000000000E+00 -0.14951818372E+03  0.14951818372E+03  0.00000000000E+00 0. -1.
         -6    2    1    2    0  503 -0.90453257149E+02 -0.19285216879E+02  0.77667569545E+02  0.20757476091E+03  0.16882333573E+03 0.  0.
        -24    2    3    3    0    0 -0.25645088125E+02 -0.62138507536E+02  0.42888305257E+02  0.12232107760E+03  0.92758690344E+02 0.  0.
          6    2    1    2  501    0  0.90453257149E+02  0.19285216879E+02  0.26002664281E+02  0.19513184037E+03  0.16984282515E+03 0.  0.
         24    2    5    5    0    0  0.10071890345E+03  0.43767266736E+02  0.62944418639E+02  0.14939851035E+03  0.79360216160E+02 0.  0.
          5    1    5    5  501    0 -0.10265646296E+02 -0.24482049857E+02 -0.36941754357E+02  0.45733330013E+02  0.47000000000E+01 0. -1.
        -11    1    6    6    0    0  0.69723633379E+02 -0.10459412253E+02  0.18969547872E+02  0.73011150537E+02  0.00000000000E+00 0.  1.
         12    1    6    6    0    0  0.30995270066E+02  0.54226678989E+02  0.43974870767E+02  0.76387359816E+02  0.00000000000E+00 0. -1.
         -5    1    3    3    0  503 -0.64808169024E+02  0.42853290657E+02  0.34779264288E+02  0.85253683304E+02  0.47000000000E+01 0.  1.
         13    1    4    4    0    0 -0.53755624547E+02 -0.67087219197E+02  0.30692873520E+02  0.91282060861E+02  0.00000000000E+00 0. -1.
        -14    1    4    4    0    0  0.28110536422E+02  0.49487116616E+01  0.12195431737E+02  0.31039016742E+02  0.00000000000E+00 0.  1.
</event>
<event>
12    1  0.9966151E-001  0.3670352E+03  0.7818608E-02  0.1055856E+00
         21   -1    0    0  501  502  0.00000000000E+00  0.00000000000E+00  0.93188761560E+03  0.93188761560E+03  0.00000000000E+00 0. -1.
         21   -1    0    0  502  503 -0.00000000000E+00 -0.00000000000E+00 -0.24571134635E+03  0.24571134635E+03  0.00000000000E+00 0. -1.
         -6    2    1    2    0  503 -0.29210874229E+03  0.14002651445E+03  0.72110999537E+03  0.80914429464E+03  0.17256860101E+03 0.  0.
        -24    2    3    3    0    0 -0.51106387137E+02  0.64850674075E+02  0.22462611023E+03  0.25214170904E+03  0.79379338020E+02 0.  0.
          6    2    1    2  501    0  0.29210874229E+03 -0.14002651445E+03 -0.34933726123E+02  0.36845466730E+03  0.17205677715E+03 0.  0.
         24    2    5    5    0    0  0.30854873675E+03 -0.12877794407E+03 -0.43008048417E+02  0.34645265754E+03  0.79960426831E+02 0.  0.
          5    1    5    5  501    0 -0.16439994455E+02 -0.11248570379E+02  0.80743222933E+01  0.22002009766E+02  0.47000000000E+01 0. -1.
        -11    1    6    6    0    0  0.25156345015E+03 -0.13068651697E+03 -0.53472747046E+02  0.28848304949E+03  0.00000000000E+00 0.  1.
         12    1    6    6    0    0  0.56985286600E+02  0.19085729025E+01  0.10464698629E+02  0.57969608044E+02  0.00000000000E+00 0. -1.
         -5    1    3    3    0  503 -0.24100235515E+03  0.75175840370E+02  0.49648388514E+03  0.55700258560E+03  0.47000000000E+01 0.  1.
         13    1    4    4    0    0 -0.33403515655E+01 -0.73183646152E+01  0.10051053486E+03  0.10083195935E+03  0.00000000000E+00 0. -1.
        -14    1    4    4    0    0 -0.47766035571E+02  0.72169038690E+02  0.12411557537E+03  0.15130974968E+03  0.00000000000E+00 0.  1.
</event>
<event>
12    1  0.9966151E-001  0.3284654E+03  0.7818608E-02  0.1071849E+00
         21   -1    0    0  503  502  0.00000000000E+00  0.00000000000E+00  0.75126099339E+03  0.75126099339E+03  0.00000000000E+00 0.  1.
         21   -1    0    0  501  503 -0.00000000000E+00 -0.00000000000E+00 -0.18764188458E+03  0.18764188458E+03  0.00000000000E+00 0.  1.
          6    2    1    2  501    0 -0.41639907715E+02 -0.27671184731E+03  0.50943876094E+03  0.60599893138E+03  0.17147456176E+03 0.  0.
         24    2    3    3    0    0  0.19319703935E+02 -0.23537580139E+03  0.34855629327E+03  0.42899610274E+03  0.82286984067E+02 0.  0.
         -6    2    1    2    0  502  0.41639907715E+02  0.27671184731E+03  0.54180347882E+02  0.33290394659E+03  0.17200639291E+03 0.  0.
        -24    2    5    5    0    0  0.90725547754E+02  0.22494352727E+03  0.57042520570E+02  0.26135227959E+03  0.78869825778E+02 0.  0.
          5    1    3    3  501    0 -0.60959611649E+02 -0.41336045926E+02  0.16088246766E+03  0.17700282864E+03  0.47000000000E+01 0. -1.
        -13    1    4    4    0    0  0.36926773855E+01 -0.35674004017E+02  0.12903383481E+02  0.38115190333E+02  0.00000000000E+00 0.  1.
         14    1    4    4    0    0  0.15627026549E+02 -0.19970179737E+03  0.33565290979E+03  0.39088091241E+03  0.00000000000E+00 0. -1.
         -5    1    5    5    0  502 -0.49085640039E+02  0.51768320048E+02 -0.28621726882E+01  0.71551667004E+02  0.47000000000E+01 0.  1.
         13    1    6    6    0    0 -0.50894189732E+01  0.82608639926E+02  0.27724718883E+02  0.87285449034E+02  0.00000000000E+00 0. -1.
        -14    1    6    6    0    0  0.95814966727E+02  0.14233488734E+03  0.29317801687E+02  0.17406683055E+03  0.00000000000E+00 0.  1.
</event>
<event>
12    1  0.9966151E-001  0.2942812E+03  0.7818608E-02  0.1088229E+00
         21   -1    0    0  503  502  0.00000000000E+00  0.00000000000E+00  0.44140317546E+03  0.44140317546E+03  0.00000000000E+00 0.  1.
         21   -1    0    0  501  503 -0.00000000000E+00 -0.00000000000E+00 -0.28280634687E+03  0.28280634687E+03  0.00000000000E+00 0.  1.
          6    2    1    2  501    0 -0.11429487901E+03  0.20940609227E+03 -0.12158943341E+03  0.31841077152E+03  0.17229973376E+03 0.  0.
         24    2    3    3    0    0  0.35155245956E+00  0.37083684077E+02 -0.53796971853E+02  0.10056512787E+03  0.76445454725E+02 0.  0.
         -6    2    1    2    0  502  0.11429487901E+03 -0.20940609227E+03  0.28018626199E+03  0.40579875081E+03  0.17103816504E+03 0.  0.
        -24    2    5    5    0    0  0.11544180592E+03 -0.11026496478E+03  0.23827891141E+03  0.29805556246E+03  0.81087025352E+02 0.  0.
          5    1    3    3  501    0 -0.11464643147E+03  0.17232240820E+03 -0.67792461555E+02  0.21784564365E+03  0.47000000000E+01 0. -1.
        -13    1    4    4    0    0  0.16433026000E+02  0.13573029485E+02 -0.66163714790E+02  0.69511931549E+02  0.00000000000E+00 0.  1.
         14    1    4    4    0    0 -0.16081473540E+02  0.23510654592E+02  0.12366742937E+02  0.31053196316E+02  0.00000000000E+00 0. -1.
         -5    1    5    5    0  502 -0.11469269106E+01 -0.99141127492E+02  0.41907350582E+02  0.10774318834E+03  0.47000000000E+01 0.  1.
         13    1    6    6    0    0 -0.12294066395E+02 -0.14441743927E+02  0.31917340861E+02  0.37127142144E+02  0.00000000000E+00 0. -1.
        -14    1    6    6    0    0  0.12773587231E+03 -0.95823220854E+02  0.20636157055E+03  0.26092842032E+03  0.00000000000E+00 0.  1.
</event>
<event>
12    1  0.9966151E-001  0.2645991E+03  0.7818608E-02  0.1104907E+00
         21   -1    0    0  503  502  0.00000000000E+00  0.00000000000E+00  0.30976329156E+03  0.30976329156E+03  0.00000000000E+00 0. -1.
         21   -1    0    0  501  503 -0.00000000000E+00 -0.00000000000E+00 -0.22677960463E+03  0.22677960463E+03  0.00000000000E+00 0. -1.
          6    2    1    2  501    0 -0.12801413624E+03  0.14989245726E+03  0.78819725559E+01  0.26471651624E+03  0.17651442054E+03 0.  0.
         24    2    3    3    0    0 -0.10684860197E+03  0.84710160021E+02  0.69323756699E+02  0.17255418905E+03  0.79854429820E+02 0.  0.
         -6    2    1    2    0  502  0.12801413624E+03 -0.14989245726E+03  0.75101714378E+02  0.27182637996E+03  0.17144662586E+03 0.  0.
        -24    2    5    5    0    0  0.14835026571E+03 -0.12358598104E+03  0.99064923374E+02  0.23057211669E+03  0.77899588595E+02 0.  0.
          5    1    3    3  501    0 -0.21165534269E+02  0.65182297238E+02 -0.61441784143E+02  0.92162327188E+02  0.47000000000E+01 0. -1.
        -11    1    4    4    0    0 -0.11467805070E+03  0.74711767486E+02  0.77657714044E+02  0.15736462139E+03  0.00000000000E+00 0.  1.
         12    1    4    4    0    0  0.78294487320E+01  0.99983925344E+01 -0.83339573458E+01  0.15189567662E+02  0.00000000000E+00 0. -1.
         -5    1    5    5    0  502 -0.20336129473E+02 -0.26306476214E+02 -0.23963208996E+02  0.41254263273E+02  0.47000000000E+01 0.  1.
         11    1    6    6    0    0  0.11564121987E+03 -0.10562659401E+03  0.41593154602E+02  0.16204894201E+03  0.00000000000E+00 0. -1.
        -12    1    6    6    0    0  0.32709045838E+02 -0.17959387031E+02  0.57471768772E+02  0.68523174678E+02  0.00000000000E+00 0.  1.
</event>
<event>
12    1  0.9966151E-001  0.3317146E+03  0.7818608E-02  0.1070388E+00
         21   -1    0    0  501  502  0.00000000000E+00  0.00000000000E+00  0.88120222743E+03  0.88120222743E+03  0.00000000000E+00 0.  1.
         21   -1    0    0  502  503 -0.00000000000E+00 -0.00000000000E+00 -0.16256473175E+03  0.16256473175E+03  0.00000000000E+00 0.  1.
         -6    2    1    2    0  503  0.18651392318E+03  0.21341978340E+03  0.10795045794E+03  0.34883787077E+03  0.17233430079E+03 0.  0.
        -24    2    3    3    0    0  0.14475868631E+03  0.22060816752E+03  0.12804368622E+03  0.30171037884E+03  0.70787896451E+02 0.  0.
          6    2    1    2  501    0 -0.18651392318E+03 -0.21341978340E+03  0.61068703773E+03  0.69492908841E+03  0.17219852606E+03 0.  0.
         24    2    5    5    0    0 -0.84682711103E+02 -0.18852665787E+03  0.34421368864E+03  0.40853879663E+03  0.75547485827E+02 0.  0.
          5    1    5    5  501    0 -0.10183121208E+03 -0.24893125528E+02  0.26647334909E+03  0.28639029178E+03  0.47000000000E+01 0. -1.
        -13    1    6    6    0    0  0.93358774159E+01 -0.13667899344E+01  0.77486819606E+01  0.12209373202E+02  0.00000000000E+00 0.  1.
         14    1    6    6    0    0 -0.94018588519E+02 -0.18715986793E+03  0.33646500668E+03  0.39632942343E+03  0.00000000000E+00 0. -1.
         -5    1    3    3    0  503  0.41755236876E+02 -0.71883841245E+01 -0.20093228277E+02  0.47127491929E+02  0.47000000000E+01 0.  1.
         11    1    4    4    0    0  0.61142355688E+02  0.37895293866E+02  0.40275990196E+02  0.82441472224E+02  0.00000000000E+00 0. -1.
        -12    1    4    4    0    0  0.83616330620E+02  0.18271287365E+03  0.87767696024E+02  0.21926890662E+03  0.00000000000E+00 0.  1.
</event>
<event>
12    1  0.9966151E-001  0.2324190E+03  0.7818608E-02  0.1125089E+00
         21   -1    0    0  503  502  0.00000000000E+00  0.00000000000E+00  0.12149513162E+03  0.12149513162E+03  0.00000000000E+00 0.  1.
         21   -1    0    0  501  503 -0.00000000000E+00 -0.00000000000E+00 -0.57119284137E+03  0.57119284137E+03  0.00000000000E+00 0.  1.
          6    2    1    2  501    0 -0.14299242246E+03  0.61437245251E+02 -0.61123561571E+02  0.24032199486E+03  0.17261866483E+03 0.  0.
         24    2    3    3    0    0 -0.14439009150E+03  0.24576161676E+02  0.22137599865E+01  0.16687542065E+03  0.79937594635E+02 0.  0.
         -6    2    1    2    0  502  0.14299242246E+03 -0.61437245251E+02 -0.38857414818E+03  0.45236597814E+03  0.17153349982E+03 0.  0.
        -24    2    5    5    0    0  0.65557241023E+02 -0.97340356104E+02 -0.19629105678E+03  0.24193756292E+03  0.78934837709E+02 0.  0.
          5    1    3    3  501    0  0.13976690419E+01  0.36861083575E+02 -0.63337321558E+02  0.73446574210E+02  0.47000000000E+01 0. -1.
        -13    1    4    4    0    0 -0.20834981448E+02 -0.12694804397E+02  0.25992105159E+02  0.35648899579E+02  0.00000000000E+00 0.  1.
         14    1    4    4    0    0 -0.12355511005E+03  0.37270966072E+02 -0.23778345172E+02  0.13122652107E+03  0.00000000000E+00 0. -1.
         -5    1    5    5    0  502  0.77435181437E+02  0.35903110853E+02 -0.19228309139E+03  0.21042841521E+03  0.47000000000E+01 0.  1.
         13    1    6    6    0    0 -0.72130581789E+01 -0.10383327495E+02  0.26816024043E+01  0.12924112721E+02  0.00000000000E+00 0. -1.
        -14    1    6    6    0    0  0.72770299202E+02 -0.86957028608E+02 -0.19897265919E+03  0.22901345020E+03  0.00000000000E+00 0.  1.
</event>
<event>
12    1  0.9966151E-001  0.3266014E+03  0.7818608E-02  0.1072812E+00
         21   -1    0    0  503  502  0.00000000000E+00  0.00000000000E+00  0.74087904170E+03  0.74087904170E+03  0.00000000000E+00 0. -1.
         21   -1    0    0  501  503 -0.00000000000E+00 -0.00000000000E+00 -0.29143566172E+03  0.29143566172E+03  0.00000000000E+00 0. -1.
          6    2    1    2  501    0  0.63294508180E+02 -0.26984314480E+03  0.59241874763E+03  0.67578922034E+03  0.17002817479E+03 0.  0.
         24    2    3    3    0    0  0.90280623758E+02 -0.19031787485E+03  0.30451044571E+03  0.37584622691E+03  0.64515813727E+02 0.  0.
         -6    2    1    2    0  502 -0.63294508180E+02  0.26984314480E+03 -0.14297536764E+03  0.35652548308E+03  0.17276268917E+03 0.  0.
        -24    2    5    5    0    0 -0.10351212454E+03  0.23273059491E+03 -0.14261783242E+03  0.30159811415E+03  0.75784474693E+02 0.  0.
          5    1    3    3  501    0 -0.26986115577E+02 -0.79525269952E+02  0.28790830191E+03  0.29994299342E+03  0.47000000000E+01 0. -1.
        -11    1    4    4    0    0  0.23951638988E+02 -0.19937306839E+02  0.82802687884E+02  0.88472946910E+02  0.00000000000E+00 0.  1.
         12    1    4    4    0    0  0.66328984769E+02 -0.17038056801E+03  0.22170775783E+03  0.28737328000E+03  0.00000000000E+00 0. -1.
         -5    1    5    5    0  502  0.40217616361E+02  0.37112549897E+02 -0.35753522489E+00  0.54927368925E+02  0.47000000000E+01 0.  1.
         13    1    6    6    0    0  0.35113173097E+01 -0.24844207040E+01 -0.10538582349E+02  0.11382592561E+02  0.00000000000E+00 0. -1.
        -14    1    6    6    0    0 -0.10702344185E+03  0.23521501561E+03 -0.13207925007E+03  0.29021552159E+03  0.00000000000E+00 0.  1.
</event>
<event>
12    1  0.9966151E-001  0.1917835E+03  0.7818608E-02  0.1156964E+00
         21   -1    0    0  503  502  0.00000000000E+00  0.00000000000E+00  0.74926057743E+02  0.74926057743E+02  0.00000000000E+00 0.  1.
         21   -1    0    0  501  503 -0.00000000000E+00 -0.00000000000E+00 -0.52876251977E+03  0.52876251977E+03  0.00000000000E+00 0.  1.
          6    2    1    2  501    0 -0.69487450171E+02  0.48404525254E+02 -0.14466454408E+03  0.23986418295E+03  0.17156774799E+03 0.  0.
         24    2    3    3    0    0 -0.87638598078E+02  0.66752447467E+01 -0.15338041427E+03  0.19329323261E+03  0.78176975688E+02 0.  0.
         -6    2    1    2    0  502  0.69487450171E+02 -0.48404525254E+02 -0.30917191794E+03  0.36382439456E+03  0.17207385461E+03 0.  0.
        -24    2    5    5    0    0  0.90663519395E+02  0.22332468773E+02 -0.19798575213E+03  0.23027065370E+03  0.71467496082E+02 0.  0.
          5    1    3    3  501    0  0.18151147907E+02  0.41729280508E+02  0.87158701839E+01  0.46570950335E+02  0.47000000000E+01 0. -1.
        -11    1    4    4    0    0 -0.41491918496E+02 -0.35577644783E+02 -0.63560546265E+02  0.83828939813E+02  0.00000000000E+00 0.  1.
         12    1    4    4    0    0 -0.46146679582E+02  0.42252889530E+02 -0.89819868004E+02  0.10946429280E+03  0.00000000000E+00 0. -1.
         -5    1    5    5    0  502 -0.21176069224E+02 -0.70736994027E+02 -0.11118616581E+03  0.13355374086E+03  0.47000000000E+01 0.  1.
         13    1    6    6    0    0 -0.51872606812E+01 -0.92078583632E+01 -0.34426535949E+01  0.11115043535E+02  0.00000000000E+00 0. -1.
        -14    1    6    6    0    0  0.95850780076E+02  0.31540327136E+02 -0.19454309854E+03  0.21915561016E+03  0.00000000000E+00 0.  1.
</event>
<event>
12    1  0.9966151E-001  0.1953236E+03  0.7818608E-02  0.1153783E+00
         21   -1    0    0  503  502  0.00000000000E+00  0.00000000000E+00  0.19236427970E+04  0.19236427970E+04  0.00000000000E+00 0. -1.
         21   -1    0    0  501  503 -0.00000000000E+00 -0.00000000000E+00 -0.19892032611E+02  0.19892032611E+02  0.00000000000E+00 0. -1.
          6    2    1    2  501    0 -0.80901838160E+02  0.46789991497E+02  0.89117363536E+03  0.91229103667E+03  0.17131864026E+03 0.  0.
         24    2    3    3    0    0 -0.11192531411E+03  0.53504532517E+02  0.54640362002E+03  0.56603102657E+03  0.80275750519E+02 0.  0.
         -6    2    1    2    0  502  0.80901838160E+02 -0.46789991497E+02  0.10125771290E+04  0.10312437930E+04  0.17151357826E+03 0.  0.
        -24    2    5    5    0    0  0.17339612028E+02 -0.74678555542E+02  0.39890029849E+03  0.41363609308E+03  0.78075736027E+02 0.  0.
          5    1    3    3  501    0  0.31023475949E+02 -0.67145410197E+01  0.34477001534E+03  0.34626001010E+03  0.47000000000E+01 0. -1.
        -13    1    4    4    0    0 -0.22622371118E+02  0.15871907278E+02  0.30719966348E+02  0.41320762917E+02  0.00000000000E+00 0.  1.
         14    1    4    4    0    0 -0.89302942990E+02  0.37632625238E+02  0.51568365368E+03  0.52471026365E+03  0.00000000000E+00 0. -1.
         -5    1    5    5    0  502  0.63562226132E+02  0.27888564045E+02  0.61367683055E+03  0.61760769988E+03  0.47000000000E+01 0.  1.
         11    1    6    6    0    0 -0.15341576875E+02  0.10166304032E+02  0.60861989977E+02  0.63583799373E+02  0.00000000000E+00 0. -1.
        -12    1    6    6    0    0  0.32681188902E+02 -0.84844859575E+02  0.33803830852E+03  0.35005229371E+03  0.00000000000E+00 0.  1.
</event>
<event>
12    1  0.9966151E-001  0.2569168E+03  0.7818608E-02  0.1109468E+00
         21   -1    0    0  503  502  0.00000000000E+00  0.00000000000E+00  0.88725433870E+02  0.88725433870E+02  0.00000000000E+00 0.  1.
         21   -1    0    0  501  503 -0.00000000000E+00 -0.00000000000E+00 -0.75907162987E+03  0.75907162987E+03  0.00000000000E+00 0.  1.
          6    2    1    2  501    0  0.35905744142E+02  0.18341218637E+03 -0.40826595527E+03  0.48079257879E+03  0.17190451133E+03 0.  0.
         24    2    3    3    0    0  0.77004197896E+02  0.15188919346E+03 -0.25228180312E+03  0.31636652336E+03  0.86265261446E+02 0.  0.
         -6    2    1    2    0  502 -0.35905744142E+02 -0.18341218637E+03 -0.26208024072E+03  0.36700448494E+03  0.17628666092E+03 0.  0.
        -24    2    5    5    0    0 -0.69601409007E+02 -0.10022242746E+03 -0.11919214740E+03  0.19819977224E+03  0.10093309968E+03 0.  0.
          5    1    3    3  501    0 -0.41098453755E+02  0.31522992910E+02 -0.15598415215E+03  0.16442605543E+03  0.47000000000E+01 0. -1.
        -11    1    4    4    0    0  0.80116920228E+02  0.78535188466E+02 -0.11484819497E+03  0.16055094089E+03  0.00000000000E+00 0.  1.
         12    1    4    4    0    0 -0.31127223322E+01  0.73354004996E+02 -0.13743360816E+03  0.15581558247E+03  0.00000000000E+00 0. -1.
         -5    1    5    5    0  502  0.33695664865E+02 -0.83189758909E+02 -0.14288809332E+03  0.16880471270E+03  0.47000000000E+01 0.  1.
         11    1    6    6    0    0  0.95594643706E+01 -0.71526157724E+02 -0.39500410215E+02  0.82265770554E+02  0.00000000000E+00 0. -1.
        -12    1    6    6    0    0 -0.79160873377E+02 -0.28696269739E+02 -0.79691737190E+02  0.11593400169E+03  0.00000000000E+00 0.  1.
</event>
<event>
12    1  0.9966151E-001  0.2314819E+03  0.7818608E-02  0.1125745E+00
         21   -1    0    0  503  502  0.00000000000E+00  0.00000000000E+00  0.15334533815E+04  0.15334533815E+04  0.00000000000E+00 0.  1.
         21   -1    0    0  501  503 -0.00000000000E+00 -0.00000000000E+00 -0.39217727856E+02  0.39217727856E+02  0.00000000000E+00 0. -1.
          6    2    1    2  501    0  0.73457068342E+02 -0.13640421838E+03  0.10092855062E+04  0.10353067101E+04  0.17088212104E+03 0.  0.
         24    2    3    3    0    0  0.84276778458E+02 -0.67097984717E+02  0.39818693053E+03  0.42017747219E+03  0.79947242321E+02 0.  0.
         -6    2    1    2    0  502 -0.73457068342E+02  0.13640421838E+03  0.48495014741E+03  0.53736439921E+03  0.17199360566E+03 0.  0.
        -24    2    5    5    0    0 -0.32812081438E+02  0.14125398315E+03  0.46087841069E+03  0.48964570594E+03  0.79465007790E+02 0.  0.
          5    1    3    3  501    0 -0.10819710116E+02 -0.69306233660E+02  0.61109857567E+03  0.61512923792E+03  0.47000000000E+01 0. -1.
        -11    1    4    4    0    0  0.94111014536E+01 -0.13626421326E+02  0.64335033666E+01  0.17766208213E+02  0.00000000000E+00 0.  1.
         12    1    4    4    0    0  0.74865677004E+02 -0.53471563391E+02  0.39175342716E+03  0.40241126398E+03  0.00000000000E+00 0. -1.
         -5    1    5    5    0  502 -0.40644986904E+02 -0.48497647695E+01  0.24071736717E+02  0.47718693269E+02  0.47000000000E+01 0.  1.
         11    1    6    6    0    0 -0.44165083074E+02  0.63679224946E+02  0.31088224806E+03  0.32039564668E+03  0.00000000000E+00 0. -1.
        -12    1    6    6    0    0  0.11353001636E+02  0.77574758200E+02  0.14999616263E+03  0.16925005926E+03  0.00000000000E+00 0.  1.
</event>
<event>
12    1  0.9966151E-001  0.3117391E+03  0.7818608E-02  0.1079524E+00
         21   -1    0    0  501  502  0.00000000000E+00  0.00000000000E+00  0.23029353574E+04  0.23029353574E+04  0.00000000000E+00 0. -1.
         21   -1    0    0  502  503 -0.00000000000E+00 -0.00000000000E+00 -0.62551535488E+02  0.62551535488E+02  0.00000000000E+00 0. -1.
         -6    2    1    2    0  503 -0.55528374801E+02 -0.25333915813E+03  0.17950896113E+04  0.18219571888E+04  0.17296576479E+03 0.  0.
        -24    2    3    3    0    0  0.45307307693E+02 -0.10288427380E+03  0.71631122144E+03  0.72806989502E+03  0.65924806731E+02 0.  0.
          6    2    1    2  501    0  0.55528374801E+02  0.25333915813E+03  0.44529421055E+03  0.54352970402E+03  0.17283945081E+03 0.  0.
         24    2    5    5    0    0  0.23207180136E+02  0.25265003420E+03  0.43321366664E+03  0.50869919932E+03  0.82037683014E+02 0.  0.
          5    1    5    5  501    0  0.32321194665E+02  0.68912392109E+00  0.12080543909E+02  0.34830504698E+02  0.47000000000E+01 0. -1.
        -11    1    6    6    0    0  0.43543020088E+02  0.10599216630E+03  0.14628708866E+03  0.18582315847E+03  0.00000000000E+00 0.  1.
         12    1    6    6    0    0 -0.20335839952E+02  0.14665786790E+03  0.28692657798E+03  0.32287604085E+03  0.00000000000E+00 0. -1.
         -5    1    3    3    0  503 -0.10083568249E+03 -0.15045488432E+03  0.10787783899E+04  0.10938872938E+04  0.47000000000E+01 0.  1.
         11    1    4    4    0    0  0.19266906376E+02 -0.26983611311E+02  0.78277313934E+02  0.85009804360E+02  0.00000000000E+00 0. -1.
        -12    1    4    4    0    0  0.26040401316E+02 -0.75900662492E+02  0.63803390751E+03  0.64306009066E+03  0.00000000000E+00 0.  1.
</event>
<event>
12    1  0.9966151E-001  0.2119405E+03  0.7818608E-02  0.1140307E+00
         21   -1    0    0  503  502  0.00000000000E+00  0.00000000000E+00  0.42864142475E+02  0.42864142475E+02  0.00000000000E+00 0.  1.
         21   -1    0    0  501  503 -0.00000000000E+00 -0.00000000000E+00 -0.11780503310E+04  0.11780503310E+04  0.00000000000E+00 0.  1.
          6    2    1    2  501    0  0.43638632117E+02  0.11364304619E+03 -0.77404184483E+03  0.80217351159E+03  0.17182110752E+03 0.  0.
         24    2    3    3    0    0  0.56489778805E+02  0.12358616086E+03 -0.43323991479E+03  0.46095208346E+03  0.79469272107E+02 0.  0.
         -6    2    1    2    0  502 -0.43638632117E+02 -0.11364304619E+03 -0.36114434371E+03  0.41874096190E+03  0.17349260508E+03 0.  0.
        -24    2    5    5    0    0 -0.66090676974E+01  0.11078705045E+02 -0.15491967060E+03  0.17486105360E+03  0.80061640294E+02 0.  0.
          5    1    3    3  501    0 -0.12851146688E+02 -0.99431146693E+01 -0.34080193004E+03  0.34122142814E+03  0.47000000000E+01 0. -1.
        -11    1    4    4    0    0 -0.56473282793E+01  0.11884229467E+01  0.70533781063E+00  0.58139631253E+01  0.00000000000E+00 0.  1.
         12    1    4    4    0    0  0.62137107085E+02  0.12239773791E+03 -0.43394525260E+03  0.45513812033E+03  0.00000000000E+00 0. -1.
         -5    1    5    5    0  502 -0.37029564420E+02 -0.12472175123E+03 -0.20622467311E+03  0.24387990830E+03  0.47000000000E+01 0.  1.
         13    1    6    6    0    0  0.21129221340E+02 -0.13296379392E+02 -0.12863433824E+02  0.28083903381E+02  0.00000000000E+00 0. -1.
        -14    1    6    6    0    0 -0.27738289037E+02  0.24375084437E+02 -0.14205623678E+03  0.14677715022E+03  0.00000000000E+00 0.  1.
</event>
<event>
12    1  0.9966151E-001  0.1788019E+03  0.7818608E-02  0.1169340E+00
         21   -1    0    0  503  502  0.00000000000E+00  0.00000000000E+00  0.46346913908E+03  0.46346913908E+03  0.00000000000E+00 0. -1.
         21   -1    0    0  501  503 -0.00000000000E+00 -0.00000000000E+00 -0.69472148445E+02  0.69472148445E+02  0.00000000000E+00 0. -1.
          6    2    1    2  501    0 -0.16069156179E+02 -0.39443909765E+02  0.16466078363E+03  0.24307058563E+03  0.17365510685E+03 0.  0.
         24    2    3    3    0    0 -0.72867857344E+02 -0.46194778111E+02  0.88086874745E+02  0.14737669764E+03  0.80727389065E+02 0.  0.
         -6    2    1    2    0  502  0.16069156179E+02  0.39443909765E+02  0.22933620701E+03  0.28987070190E+03  0.17209267322E+03 0.  0.
        -24    2    5    5    0    0  0.60570573920E+02  0.24507285772E+02  0.21847590625E+03  0.24146083669E+03  0.79386475929E+02 0.  0.
          5    1    3    3  501    0  0.56798701165E+02  0.67508683461E+01  0.76573908888E+02  0.95693887996E+02  0.47000000000E+01 0. -1.
        -13    1    4    4    0    0 -0.45380685010E+02 -0.29578416187E+02  0.99500252993E+02  0.11328984783E+03  0.00000000000E+00 0.  1.
         14    1    4    4    0    0 -0.27487172334E+02 -0.16616361924E+02 -0.11413378248E+02  0.34086849804E+02  0.00000000000E+00 0. -1.
         -5    1    5    5    0  502 -0.44501417741E+02  0.14936623993E+02  0.10860300758E+02  0.48409865212E+02  0.47000000000E+01 0.  1.
         13    1    6    6    0    0  0.51246985494E+02  0.35390258751E+02  0.75965806510E+02  0.98232009525E+02  0.00000000000E+00 0. -1.
        -14    1    6    6    0    0  0.93235884264E+01 -0.10882972979E+02  0.14251009974E+03  0.14322882716E+03  0.00000000000E+00 0.  1.
</event>
<event>
12    1  0.9966151E-001  0.1784929E+03  0.7818608E-02  0.1169949E+00
         21   -1    0    0  501  502  0.00000000000E+00  0.00000000000E+00  0.72248910415E+03  0.72248910415E+03  0.00000000000E+00 0.  1.
         21   -1    0    0  502  503 -0.00000000000E+00 -0.00000000000E+00 -0.44062328432E+02  0.44062328432E+02  0.00000000000E+00 0.  1.
         -6    2    1    2    0  503 -0.64107164455E+01 -0.45219470712E+02  0.38291297502E+03  0.42131510901E+03  0.16970025581E+03 0.  0.
        -24    2    3    3    0    0  0.36829049673E+02 -0.74861229587E+02  0.31302216555E+03  0.33382152929E+03  0.80581354532E+02 0.  0.
          6    2    1    2  501    0  0.64107164455E+01  0.45219470712E+02  0.29551380070E+03  0.34523632358E+03  0.17255090523E+03 0.  0.
         24    2    5    5    0    0  0.10538803747E+02 -0.41779651540E+02  0.16798164586E+03  0.19072927230E+03  0.79392797513E+02 0.  0.
          5    1    5    5  501    0 -0.41280873011E+01  0.86999122252E+02  0.12753215484E+03  0.15450705128E+03  0.47000000000E+01 0. -1.
        -11    1    6    6    0    0 -0.41104515350E+01  0.12073082598E+02 -0.97778692435E+00  0.12791059475E+02  0.00000000000E+00 0.  1.
         12    1    6    6    0    0  0.14649255282E+02 -0.53852734138E+02  0.16895943279E+03  0.17793821282E+03  0.00000000000E+00 0. -1.
         -5    1    3    3    0  503 -0.43239766119E+02  0.29641758875E+02  0.69890809468E+02  0.87493579715E+02  0.47000000000E+01 0.  1.
         13    1    4    4    0    0  0.34279615180E+01 -0.81751967271E+02  0.21585893055E+03  0.23084673048E+03  0.00000000000E+00 0. -1.
        -14    1    4    4    0    0  0.33401088155E+02  0.68907376838E+01  0.97163235001E+02  0.10297479882E+03  0.00000000000E+00 0.  1.
</event>
<event>
12    1  0.9966151E-001  0.1759876E+03  0.7818608E-02  0.1172120E+00
         21   -1    0    0  503  502  0.00000000000E+00  0.00000000000E+00  0.45176508747E+03  0.45176508747E+03  0.00000000000E+00 0.  1.
         21   -1    0    0  501  503 -0.00000000000E+00 -0.00000000000E+00 -0.96156777848E+02  0.96156777848E+02  0.00000000000E+00 0.  1.
          6    2    1    2  501    0  0.21007375026E+02  0.15858077775E+02  0.32558492336E+03  0.36939165972E+03  0.17248729669E+03 0.  0.
         24    2    3    3    0    0  0.40332285536E+02 -0.12630876290E+02  0.14553426192E+03  0.18601935169E+03  0.10787374804E+03 0.  0.
         -6    2    1    2    0  502 -0.21007375026E+02 -0.15858077775E+02  0.30023386266E+02  0.17853020560E+03  0.17400816691E+03 0.  0.
        -24    2    5    5    0    0 -0.35989722716E+02  0.72939628012E+00  0.82694517048E+02  0.12111981407E+03  0.80844505379E+02 0.  0.
          5    1    3    3  501    0 -0.19324910510E+02  0.28488954065E+02  0.18005066144E+03  0.18337230803E+03  0.47000000000E+01 0. -1.
        -11    1    4    4    0    0  0.20969750617E+02 -0.52572270371E+02  0.12478588919E+03  0.13702223248E+03  0.00000000000E+00 0.  1.
         12    1    4    4    0    0  0.19362534919E+02  0.39941394081E+02  0.20748372729E+02  0.48997119206E+02  0.00000000000E+00 0. -1.
         -5    1    5    5    0  502  0.14982347690E+02 -0.16587474055E+02 -0.52671130781E+02  0.57410391530E+02  0.47000000000E+01 0.  1.
         13    1    6    6    0    0 -0.23462509973E+02 -0.29065947085E+02  0.80475302752E+02  0.88721998440E+02  0.00000000000E+00 0. -1.
        -14    1    6    6    0    0 -0.12527212743E+02  0.29795343365E+02  0.22192142952E+01  0.32397815627E+02  0.00000000000E+00 0.  1.
</event>
<event>
12    1  0.9966151E-001  0.2495722E+03  0.7818608E-02  0.1113784E+00
         21   -1    0    0  503  502  0.00000000000E+00  0.00000000000E+00  0.15244150962E+03  0.15244150962E+03  0.00000000000E+00 0.  1.
         21   -1    0    0  501  503 -0.00000000000E+00 -0.00000000000E+00 -0.41857750365E+03  0.41857750365E+03  0.00000000000E+00 0.  1.
          6    2    1    2  501    0 -0.11022117915E+03 -0.14451689294E+03 -0.84804416039E+02  0.26358695670E+03  0.17103348820E+03 0.  0.
         24    2    3    3    0    0  0.44554138507E+01 -0.23743934846E+02 -0.25539467292E+02  0.86750160364E+02  0.79307633801E+02 0.  0.
         -6    2    1    2    0  502  0.11022117915E+03  0.14451689294E+03 -0.18133157799E+03  0.30743205656E+03  0.16911383016E+03 0.  0.
        -24    2    5    5    0    0  0.12262899152E+03  0.57892010913E+02 -0.95033804141E+02  0.18443929351E+03  0.81222377285E+02 0.  0.
          5    1    3    3  501    0 -0.11467659300E+03 -0.12077295809E+03 -0.59264948747E+02  0.17683679634E+03  0.47000000000E+01 0. -1.
        -11    1    4    4    0    0  0.17843985642E+02  0.20954132508E+02  0.87116932016E+01  0.28868271358E+02  0.00000000000E+00 0.  1.
         12    1    4    4    0    0 -0.13388571791E+02 -0.44698067354E+02 -0.34251160494E+02  0.57881889006E+02  0.00000000000E+00 0. -1.
         -5    1    5    5    0  502 -0.12407812368E+02  0.86624882024E+02 -0.86297773846E+02  0.12299276306E+03  0.47000000000E+01 0.  1.
         13    1    6    6    0    0  0.35880303390E+02  0.38991634490E+02 -0.77591460351E+02  0.93958386805E+02  0.00000000000E+00 0. -1.
        -14    1    6    6    0    0  0.86748688129E+02  0.18900376423E+02 -0.17442343790E+02  0.90480906703E+02  0.00000000000E+00 0.  1.
</event>
<event>
12    1  0.9966151E-001  0.2702654E+03  0.7818608E-02  0.1102756E+00
         21   -1    0    0  503  502  0.00000000000E+00  0.00000000000E+00  0.13071783987E+04  0.13071783987E+04  0.00000000000E+00 0.  1.
         21   -1    0    0  501  503 -0.00000000000E+00 -0.00000000000E+00 -0.55093972234E+02  0.55093972234E+02  0.00000000000E+00 0.  1.
          6    2    1    2  501    0 -0.20806887805E+03 -0.19791334215E+00  0.72541376243E+03  0.77030499334E+03  0.15444079402E+03 0.  0.
         24    2    3    3    0    0 -0.10634417872E+03 -0.49221836919E+02  0.47208050688E+03  0.49290440231E+03  0.79767607840E+02 0.  0.
         -6    2    1    2    0  502  0.20806887805E+03  0.19791334215E+00  0.52667066403E+03  0.59196737759E+03  0.17248388504E+03 0.  0.
        -24    2    5    5    0    0  0.22029377320E+03 -0.30046100929E+02  0.44237440299E+03  0.50145716774E+03  0.79574267023E+02 0.  0.
          5    1    3    3  501    0 -0.10172469933E+03  0.49023923577E+02  0.25333325554E+03  0.27740059102E+03  0.47000000000E+01 0. -1.
        -11    1    4    4    0    0 -0.65219564316E+02 -0.48782695569E+02  0.17540061964E+03  0.19338748751E+03  0.00000000000E+00 0.  1.
         12    1    4    4    0    0 -0.41124614406E+02 -0.43914135000E+00  0.29667988725E+03  0.29951691480E+03  0.00000000000E+00 0. -1.
         -5    1    5    5    0  502 -0.12224895146E+02  0.30244014271E+02  0.84296261047E+02  0.90510209850E+02  0.47000000000E+01 0.  1.
         11    1    6    6    0    0  0.14919074350E+03 -0.41760550549E+02  0.36054196085E+03  0.39241856106E+03  0.00000000000E+00 0. -1.
        -12    1    6    6    0    0  0.71103029695E+02  0.11714449620E+02  0.81832442134E+02  0.10903860668E+03  0.00000000000E+00 0.  1.
</event>
<event>
12    1  0.9966151E-001  0.2181296E+03  0.7818608E-02  0.1135716E+00
         21   -1    0    0  501  502  0.00000000000E+00  0.00000000000E+00  0.18993236449E+03  0.18993236449E+03  0.00000000000E+00 0.  1.
         21   -1    0    0  502  503 -0.00000000000E+00 -0.00000000000E+00 -0.29261276357E+03  0.29261276357E+03  0.00000000000E+00 0.  1.
         -6    2    1    2    0  503 -0.87609244594E+02  0.96607985432E+02 -0.14541371752E+03  0.26026903746E+03  0.17200680228E+03 0.  0.
        -24    2    3    3    0    0  0.25938197103E+02  0.45300678721E+01 -0.48493362522E+02  0.84806763365E+02  0.64399295958E+02 0.  0.
          6    2    1    2  501    0  0.87609244594E+02 -0.96607985432E+02  0.42733318439E+02  0.22227609060E+03  0.17484862413E+03 0.  0.
         24    2    5    5    0    0  0.10847508317E+03 -0.25667408826E+02  0.17002130594E+01  0.13757807193E+03  0.80617464660E+02 0.  0.
          5    1    5    5  501    0 -0.20865838575E+02 -0.70940576607E+02  0.41033105380E+02  0.84698018666E+02  0.47000000000E+01 0. -1.
        -11    1    6    6    0    0 -0.11894176861E+02 -0.88015728011E+01  0.59759051727E+01  0.15957774582E+02  0.00000000000E+00 0.  1.
         12    1    6    6    0    0  0.12036926003E+03 -0.16865836024E+02 -0.42756921133E+01  0.12162029735E+03  0.00000000000E+00 0. -1.
         -5    1    3    3    0  503 -0.11354744170E+03  0.92077917560E+02 -0.96920354997E+02  0.17546227410E+03  0.47000000000E+01 0.  1.
         11    1    4    4    0    0  0.42698489090E+01  0.31560028933E+02 -0.10841447518E+02  0.33642295109E+02  0.00000000000E+00 0. -1.
        -12    1    4    4    0    0  0.21668348194E+02 -0.27029961060E+02 -0.37651915005E+02  0.51164468256E+02  0.00000000000E+00 0.  1.
</event>
<event>
12    1  0.9966151E-001  0.1741473E+03  0.7818608E-02  0.1173935E+00
         21   -1    0    0  501  502  0.00000000000E+00  0.00000000000E+00  0.18559345753E+03  0.18559345753E+03  0.00000000000E+00 0. -1.
         21   -1    0    0  502  503 -0.00000000000E+00 -0.00000000000E+00 -0.26798778591E+03  0.26798778591E+03  0.00000000000E+00 0. -1.
         -6    2    1    2    0  503  0.21947343955E+02  0.93342458575E+01  0.10123732285E+03  0.20143553582E+03  0.17250642162E+03 0.  0.
        -24    2    3    3    0    0  0.73281214273E+02  0.29893904620E+02  0.89444413082E+02  0.14469905257E+03  0.81692905963E+02 0.  0.
          6    2    1    2  501    0 -0.21947343955E+02 -0.93342458575E+01 -0.18363165123E+03  0.25214570762E+03  0.17113754844E+03 0.  0.
         24    2    5    5    0    0  0.36685427244E+02  0.43220757364E+02 -0.80174765346E+02  0.12204863825E+03  0.72484637411E+02 0.  0.
          5    1    5    5  501    0 -0.58632771199E+02 -0.52555003221E+02 -0.10345688588E+03  0.13009706937E+03  0.47000000000E+01 0. -1.
        -13    1    6    6    0    0  0.29560545396E+02 -0.12900590262E+02 -0.14484160072E+02  0.35355932546E+02  0.00000000000E+00 0.  1.
         14    1    6    6    0    0  0.71248818485E+01  0.56121347626E+02 -0.65690605274E+02  0.86692705702E+02  0.00000000000E+00 0. -1.
         -5    1    3    3    0  503 -0.51333870318E+02 -0.20559658762E+02  0.11792909773E+02  0.56736483246E+02  0.47000000000E+01 0.  1.
         11    1    4    4    0    0  0.26888110894E+02 -0.26896368770E+02  0.17135438920E+02  0.41713408245E+02  0.00000000000E+00 0. -1.
        -12    1    4    4    0    0  0.46393103379E+02  0.56790273390E+02  0.72308974161E+02  0.10298564433E+03  0.00000000000E+00 0.  1.
</event>
<event>
12    1  0.9966151E-001  0.1879379E+03  0.7818608E-02  0.1164648E+00
         21   -1    0    0  503  502  0.00000000000E+00  0.00000000000E+00  0.13781544799E+03  0.13781544799E+03  0.00000000000E+00 0. -1.
         21   -1    0    0  501  503 -0.00000000000E+00 -0.00000000000E+00 -0.28422663027E+03  0.28422663027E+03  0.00000000000E+00 0. -1.
          6    2    1    2  501    0  0.50113789165E+01  0.13049627735E+02  0.19728739001E+02  0.17119728430E+03  0.16948120930E+03 0.  0.
         24    2    3    3    0    0 -0.44354331453E+02  0.33390597472E+02 -0.24084481238E+02  0.10197000154E+03  0.82070580960E+02 0.  0.
         -6    2    1    2    0  502 -0.50113789165E+01 -0.13049627735E+02 -0.16613992128E+03  0.25084479397E+03  0.18741726312E+03 0.  0.
        -24    2    5    5    0    0 -0.27783964856E+02  0.44047004813E+02 -0.16301113961E+03  0.18911558376E+03  0.80498354312E+02 0.  0.
          5    1    3    3  501    0  0.49365710369E+02 -0.20340969737E+02  0.43813220240E+02  0.69227282757E+02  0.47000000000E+01 0. -1.
        -11    1    4    4    0    0 -0.58731591412E+02  0.48742028428E+02 -0.10774442397E+02  0.77079658627E+02  0.00000000000E+00 0.  1.
         12    1    4    4    0    0  0.14377259959E+02 -0.15351430956E+02 -0.13310038842E+02  0.24890342912E+02  0.00000000000E+00 0. -1.
         -5    1    5    5    0  502  0.22772585939E+02 -0.57096632549E+02 -0.31287816678E+01  0.61729210213E+02  0.47000000000E+01 0.  1.
         11    1    6    6    0    0  0.19317471881E+02  0.56563785294E+01 -0.98327980893E+02  0.10036708208E+03  0.00000000000E+00 0. -1.
        -12    1    6    6    0    0 -0.47101436736E+02  0.38390626284E+02 -0.64683158715E+02  0.88748501680E+02  0.00000000000E+00 0.  1.
</event>
<event>
12    1  0.9966151E-001  0.2242847E+03  0.7818608E-02  0.1130751E+00
         21   -1    0    0  501  502  0.00000000000E+00  0.00000000000E+00  0.68217007070E+02  0.68217007070E+02  0.00000000000E+00 0.  1.
         21   -1    0    0  502  503 -0.00000000000E+00 -0.00000000000E+00 -0.14610576593E+04  0.14610576593E+04  0.00000000000E+00 0.  1.
         -6    2    1    2    0  503 -0.10478423242E+03  0.97859330586E+02 -0.12346036019E+04  0.12547885851E+04  0.17231411919E+03 0.  0.
        -24    2    3    3    0    0 -0.71634026044E+02  0.82494277617E+02 -0.47224448107E+03  0.49153990999E+03  0.81608171678E+02 0.  0.
          6    2    1    2  501    0  0.10478423242E+03 -0.97859330586E+02 -0.15823705034E+03  0.27448608122E+03  0.17247452200E+03 0.  0.
         24    2    5    5    0    0  0.10389692558E+03 -0.44002663844E+02 -0.40873382307E+02  0.14526670017E+03  0.81859484638E+02 0.  0.
          5    1    5    5  501    0  0.88730683555E+00 -0.53856666741E+02 -0.11736366803E+03  0.12921938105E+03  0.47000000000E+01 0. -1.
        -13    1    6    6    0    0  0.62905159878E+01 -0.14575287767E+02  0.20763004657E+02  0.26136410757E+02  0.00000000000E+00 0.  1.
         14    1    6    6    0    0  0.97606409595E+02 -0.29427376078E+02 -0.61636386964E+02  0.11913028941E+03  0.00000000000E+00 0. -1.
         -5    1    3    3    0  503 -0.33150206374E+02  0.15365052969E+02 -0.76235912080E+03  0.76324867514E+03  0.47000000000E+01 0.  1.
         11    1    4    4    0    0 -0.75235555721E+02  0.81325992093E+02 -0.47441233673E+03  0.48717694022E+03  0.00000000000E+00 0. -1.
        -12    1    4    4    0    0  0.36015296762E+01  0.11682855241E+01  0.21678556621E+01  0.43629697737E+01  0.00000000000E+00 0.  1.
</event>
<event>
12    1  0.9966151E-001  0.4426625E+03  0.7818608E-02  0.1029960E+00
         21   -1    0    0  501  502  0.00000000000E+00  0.00000000000E+00  0.16194972992E+03  0.16194972992E+03  0.00000000000E+00 0.  1.
         21   -1    0    0  502  503 -0.00000000000E+00 -0.00000000000E+00 -0.12264213436E+04  0.12264213436E+04  0.00000000000E+00 0.  1.
         -6    2    1    2    0  503  0.20011361687E+03 -0.35491692320E+03 -0.44927531701E+03  0.63046832381E+03  0.17213516440E+03 0.  0.
        -24    2    3    3    0    0  0.20823209532E+03 -0.24258529805E+03 -0.34199570302E+03  0.47485563384E+03  0.79489494638E+02 0.  0.
          6    2    1    2  501    0 -0.20011361687E+03  0.35491692320E+03 -0.61519629665E+03  0.75790274968E+03  0.17302777968E+03 0.  0.
         24    2    5    5    0    0 -0.19821733204E+03  0.36704022907E+03 -0.57005588930E+03  0.71088874308E+03  0.79940275398E+02 0.  0.
          5    1    5    5  501    0 -0.18962848326E+01 -0.12123305878E+02 -0.45140407347E+02  0.47014006605E+02  0.47000000000E+01 0. -1.
        -13    1    6    6    0    0 -0.53629895649E+01  0.39934266601E+02 -0.28020767331E+02  0.49078210113E+02  0.00000000000E+00 0.  1.
         14    1    6    6    0    0 -0.19285434248E+03  0.32710596247E+03 -0.54203512197E+03  0.66181053297E+03  0.00000000000E+00 0. -1.
         -5    1    3    3    0  503 -0.81184784468E+01 -0.11233162515E+03 -0.10727961400E+03  0.15561268997E+03  0.47000000000E+01 0.  1.
         11    1    4    4    0    0  0.29487074927E+02 -0.40461556742E+01 -0.18869974385E+02  0.35241096702E+02  0.00000000000E+00 0. -1.
        -12    1    4    4    0    0  0.17874502039E+03 -0.23853914238E+03 -0.32312572863E+03  0.43961453714E+03  0.00000000000E+00 0.  1.
</event>
<event>
12    1  0.9966151E-001  0.5649758E+03  0.7818608E-02  0.9981522E-01
         21   -1    0    0  503  502  0.00000000000E+00  0.00000000000E+00  0.25428125646E+03  0.25428125646E+03  0.00000000000E+00 0.  1.
         21   -1    0    0  501  503 -0.00000000000E+00 -0.00000000000E+00 -0.12679338182E+04  0.12679338182E+04  0.00000000000E+00 0.  1.
          6    2    1    2  501    0 -0.18140170094E+03  0.50511214940E+03 -0.42277362287E+03  0.70469717240E+03  0.17267225610E+03 0.  0.
         24    2    3    3    0    0 -0.88897034457E+02  0.20605082927E+03 -0.25778173811E+03  0.35080566565E+03  0.79079476287E+02 0.  0.
         -6    2    1    2    0  502  0.18140170094E+03 -0.50511214940E+03 -0.59087893887E+03  0.81751790226E+03  0.17650138681E+03 0.  0.
        -24    2    5    5    0    0  0.13899599032E+03 -0.47835543805E+03 -0.49278969713E+03  0.70725569096E+03  0.96047469317E+02 0.  0.
          5    1    3    3  501    0 -0.92504666487E+02  0.29906132012E+03 -0.16499188476E+03  0.35389150675E+03  0.47000000000E+01 0. -1.
        -11    1    4    4    0    0  0.13348233058E+02  0.14601329989E+02 -0.31999367601E+02  0.37620920910E+02  0.00000000000E+00 0.  1.
         12    1    4    4    0    0 -0.10224526752E+03  0.19144949928E+03 -0.22578237051E+03  0.31318474474E+03  0.00000000000E+00 0. -1.
         -5    1    5    5    0  502  0.42405710623E+02 -0.26756711343E+02 -0.98089241745E+02  0.11026221130E+03  0.47000000000E+01 0.  1.
         13    1    6    6    0    0  0.12334381097E+03 -0.33356777489E+03 -0.39671317852E+03  0.53278748311E+03  0.00000000000E+00 0. -1.
        -14    1    6    6    0    0  0.15652179353E+02 -0.14478766316E+03 -0.96076518610E+02  0.17446820785E+03  0.00000000000E+00 0.  1.
</event>
<event>
12    1  0.9966151E-001  0.1800473E+03  0.7818608E-02  0.1167770E+00
         21   -1    0    0  501  502  0.00000000000E+00  0.00000000000E+00  0.46850258178E+02  0.46850258178E+02  0.00000000000E+00 0.  1.
         21   -1    0    0  502  503 -0.00000000000E+00 -0.00000000000E+00 -0.73825951601E+03  0.73825951601E+03  0.00000000000E+00 0.  1.
         -6    2    1    2    0  503 -0.33314237313E+02 -0.39867535537E+02 -0.24719248106E+03  0.30581230830E+03  0.17238847531E+03 0.  0.
        -24    2    3    3    0    0 -0.52310221368E+02 -0.69235558540E+02 -0.10186152056E+03  0.15625794941E+03  0.80689872704E+02 0.  0.
          6    2    1    2  501    0  0.33314237313E+02  0.39867535537E+02 -0.44421677678E+03  0.47929746589E+03  0.17233182306E+03 0.  0.
         24    2    5    5    0    0  0.82895963883E+02  0.56077188915E+02 -0.28079344696E+03  0.30768634970E+03  0.76220325293E+02 0.  0.
          5    1    5    5  501    0 -0.49581726571E+02 -0.16209653378E+02 -0.16342332982E+03  0.17161111619E+03  0.47000000000E+01 0. -1.
        -11    1    6    6    0    0  0.97119845301E+02  0.44250153945E+02 -0.22791647249E+03  0.25166696030E+03  0.00000000000E+00 0.  1.
         12    1    6    6    0    0 -0.14223881418E+02  0.11827034970E+02 -0.52876974475E+02  0.56019389397E+02  0.00000000000E+00 0. -1.
         -5    1    3    3    0  503  0.18995984055E+02  0.29368023002E+02 -0.14533096049E+03  0.14955435889E+03  0.47000000000E+01 0.  1.
         13    1    4    4    0    0  0.20413258629E+02 -0.19922959252E+02 -0.38563459888E+02  0.47966299333E+02  0.00000000000E+00 0. -1.
        -14    1    4    4    0    0 -0.72723479997E+02 -0.49312599288E+02 -0.63298060675E+02  0.10829165008E+03  0.00000000000E+00 0.  1.
</event>
<event>
12    1  0.9966151E-001  0.2203006E+03  0.7818608E-02  0.1133722E+00
         21   -1    0    0  501  502  0.00000000000E+00  0.00000000000E+00  0.13552563093E+03  0.13552563093E+03  0.00000000000E+00 0.  1.
         21   -1    0    0  502  503 -0.00000000000E+00 -0.00000000000E+00 -0.45895975074E+03  0.45895975074E+03  0.00000000000E+00 0.  1.
         -6    2    1    2    0  503 -0.12331683007E+02  0.13708792665E+03 -0.30153394777E+03  0.37343687232E+03  0.17200931927E+03 0.  0.
        -24    2    3    3    0    0  0.49112830639E+02  0.10277214650E+03 -0.24783123519E+03  0.28478546307E+03  0.81903935263E+02 0.  0.
          6    2    1    2  501    0  0.12331683007E+02 -0.13708792665E+03 -0.21900172038E+02  0.22104850934E+03  0.17157405371E+03 0.  0.
         24    2    5    5    0    0  0.33104492562E+02 -0.74501911481E+02  0.47785419383E+02  0.12499284546E+03  0.81812730483E+02 0.  0.
          5    1    5    5  501    0 -0.20772809555E+02 -0.62586015164E+02 -0.69685591421E+02  0.96055663876E+02  0.47000000000E+01 0. -1.
        -11    1    6    6    0    0  0.16165300729E+02 -0.90643899349E+02  0.37048384869E+02  0.99248255693E+02  0.00000000000E+00 0.  1.
         12    1    6    6    0    0  0.16939191833E+02  0.16141987867E+02  0.10737034514E+02  0.25744589770E+02  0.00000000000E+00 0. -1.
         -5    1    3    3    0  503 -0.61444513646E+02  0.34315780151E+02 -0.53702712584E+02  0.88651409258E+02  0.47000000000E+01 0.  1.
         13    1    4    4    0    0  0.13199090178E+02  0.94440224633E+02 -0.21586595099E+03  0.23599000150E+03  0.00000000000E+00 0. -1.
        -14    1    4    4    0    0  0.35913740461E+02  0.83319218619E+01 -0.31965284191E+02  0.48795461564E+02  0.00000000000E+00 0.  1.
</event>
<event>
12    1  0.9966151E-001  0.2211072E+03  0.7818608E-02  0.1133366E+00
         21   -1    0    0  503  502  0.00000000000E+00  0.00000000000E+00  0.63228779064E+02  0.63228779064E+02  0.00000000000E+00 0.  1.
         21   -1    0    0  501  503 -0.00000000000E+00 -0.00000000000E+00 -0.77272732534E+03  0.77272732534E+03  0.00000000000E+00 0.  1.
          6    2    1    2  501    0 -0.11931575188E+03  0.71291377953E+02 -0.38795234121E+03  0.44572493579E+03  0.16983812915E+03 0.  0.
         24    2    3    3    0    0  0.97125211421E+01 -0.81808985829E+01 -0.17164419279E+03  0.18157451831E+03  0.57847356155E+02 0.  0.
         -6    2    1    2    0  502  0.11931575188E+03 -0.71291377953E+02 -0.32154620506E+03  0.39023116861E+03  0.17195840703E+03 0.  0.
        -24    2    5    5    0    0  0.14181508199E+03 -0.21479904490E+02 -0.26649793973E+03  0.31251499102E+03  0.77920240977E+02 0.  0.
          5    1    3    3  501    0 -0.12902827303E+03  0.79472276535E+02 -0.21630814843E+03  0.26415041748E+03  0.47000000000E+01 0. -1.
        -11    1    4    4    0    0  0.90967289317E+01 -0.18189269059E+01  0.52033948958E+00  0.92913790973E+01  0.00000000000E+00 0.  1.
         12    1    4    4    0    0  0.61579221039E+00 -0.63619716771E+01 -0.17216453228E+03  0.17228313921E+03  0.00000000000E+00 0. -1.
         -5    1    5    5    0  502 -0.22499330106E+02 -0.49811473463E+02 -0.55048265326E+02  0.77716177590E+02  0.47000000000E+01 0.  1.
         11    1    6    6    0    0  0.49895674122E+02  0.20844548230E+02 -0.50507912144E+02  0.73994071899E+02  0.00000000000E+00 0. -1.
        -12    1    6    6    0    0  0.91919407869E+02 -0.42324452720E+02 -0.21599002759E+03  0.23852091912E+03  0.00000000000E+00 0.  1.
</event>
<event>
12    1  0.9966151E-001  0.2162904E+03  0.7818608E-02  0.1137181E+00
         21   -1    0    0  503  502  0.00000000000E+00  0.00000000000E+00  0.43725914729E+03  0.43725914729E+03  0.00000000000E+00 0. -1.
         21   -1    0    0  501  503 -0.00000000000E+00 -0.00000000000E+00 -0.55957793846E+03  0.55957793846E+03  0.00000000000E+00 0. -1.
          6    2    1    2  501    0  0.15274786553E+02 -0.12602777400E+03  0.38779360911E+03  0.44276471485E+03  0.17187318152E+03 0.  0.
         24    2    3    3    0    0  0.74430402714E+02 -0.71151646736E+02  0.21021751018E+03  0.24765926342E+03  0.80878102654E+02 0.  0.
         -6    2    1    2    0  502 -0.15274786553E+02  0.12602777400E+03 -0.51011240028E+03  0.55407237089E+03  0.17511485471E+03 0.  0.
        -24    2    5    5    0    0 -0.44000613863E+02  0.88108002016E+02 -0.17604923902E+03  0.21660627190E+03  0.78904172411E+02 0.  0.
          5    1    3    3  501    0 -0.59155616161E+02 -0.54876127268E+02  0.17757609893E+03  0.19510545143E+03  0.47000000000E+01 0. -1.
        -11    1    4    4    0    0  0.64648291225E+02 -0.88541842270E+02  0.16343503451E+03  0.19679956783E+03  0.00000000000E+00 0.  1.
         12    1    4    4    0    0  0.97821114893E+01  0.17390195535E+02  0.46782475672E+02  0.50859695594E+02  0.00000000000E+00 0. -1.
         -5    1    5    5    0  502  0.28725827309E+02  0.37919771988E+02 -0.33406316126E+03  0.33746609900E+03  0.47000000000E+01 0.  1.
         13    1    6    6    0    0 -0.61042057375E+02  0.78597668766E+02 -0.16847572872E+03  0.19567267942E+03  0.00000000000E+00 0. -1.
        -14    1    6    6    0    0  0.17041443512E+02  0.95103332499E+01 -0.75735103017E+01  0.20933592472E+02  0.00000000000E+00 0.  1.
</event>
<event>
12    1  0.9966151E-001  0.2143479E+03  0.7818608E-02  0.1138318E+00
         21   -1    0    0  503  502  0.00000000000E+00  0.00000000000E+00  0.25005586942E+03  0.25005586942E+03  0.00000000000E+00 0.  1.
         21   -1    0    0  501  503 -0.00000000000E+00 -0.00000000000E+00 -0.21230948937E+03  0.21230948937E+03  0.00000000000E+00 0.  1.
          6    2    1    2  501    0 -0.10226606513E+03  0.79661310790E+02  0.10468446773E+03  0.23854527456E+03  0.17070658369E+03 0.  0.
         24    2    3    3    0    0 -0.75085224440E+02 -0.10493960990E+02  0.20081974785E+02  0.11187071933E+03  0.79773792595E+02 0.  0.
         -6    2    1    2    0  502  0.10226606513E+03 -0.79661310790E+02 -0.66938087675E+02  0.22382008424E+03  0.16973641334E+03 0.  0.
        -24    2    5    5    0    0 -0.67034183735E+01 -0.16608615134E+02  0.43197721400E+01  0.79079753476E+02  0.76903608914E+02 0.  0.
          5    1    3    3  501    0 -0.27180840687E+02  0.90155271780E+02  0.84602492944E+02  0.12667455523E+03  0.47000000000E+01 0. -1.
        -13    1    4    4    0    0 -0.78706846751E+02  0.94155406648E+01  0.35079039720E+02  0.86683096156E+02  0.00000000000E+00 0.  1.
         14    1    4    4    0    0  0.36216223114E+01 -0.19909501655E+02 -0.14997064935E+02  0.25187623171E+02  0.00000000000E+00 0. -1.
         -5    1    5    5    0  502  0.10896948350E+03 -0.63052695655E+02 -0.71257859815E+02  0.14474033076E+03  0.47000000000E+01 0.  1.
         11    1    6    6    0    0 -0.22665773851E+02 -0.42483998560E+02 -0.12625540342E+01  0.48168677381E+02  0.00000000000E+00 0. -1.
        -12    1    6    6    0    0  0.15962355478E+02  0.25875383426E+02  0.55823261742E+01  0.30911076095E+02  0.00000000000E+00 0.  1.
</event>
<event>
12    1  0.9966151E-001  0.1771508E+03  0.7818608E-02  0.1170631E+00
         21   -1    0    0  503  502  0.00000000000E+00  0.00000000000E+00  0.48088652609E+03  0.48088652609E+03  0.00000000000E+00 0.  1.
         21   -1    0    0  501  503 -0.00000000000E+00 -0.00000000000E+00 -0.80885903923E+02  0.80885903923E+02  0.00000000000E+00 0.  1.
          6    2    1    2  501    0 -0.39075827197E+02  0.15098261000E+02  0.76371712672E+02  0.19291197499E+03  0.17212644725E+03 0.  0.
         24    2    3    3    0    0 -0.41492940930E+02  0.62886924153E+02  0.92064047026E+02  0.14233591225E+03  0.78149176484E+02 0.  0.
         -6    2    1    2    0  502  0.39075827197E+02 -0.15098261000E+02  0.32362890949E+03  0.36886045502E+03  0.17195198883E+03 0.  0.
        -24    2    5    5    0    0  0.82641590389E+02 -0.44585876862E+02  0.22750134780E+03  0.25917867290E+03  0.81235388591E+02 0.  0.
          5    1    3    3  501    0  0.24171137330E+01 -0.47788663153E+02 -0.15692334353E+02  0.50576062739E+02  0.47000000000E+01 0. -1.
        -11    1    4    4    0    0  0.22294100506E+02  0.13716369280E+02  0.34657774453E+02  0.43431866568E+02  0.00000000000E+00 0.  1.
         12    1    4    4    0    0 -0.63787041436E+02  0.49170554873E+02  0.57406272573E+02  0.98904045683E+02  0.00000000000E+00 0. -1.
         -5    1    5    5    0  502 -0.43565763191E+02  0.29487615862E+02  0.96127561698E+02  0.10968178212E+03  0.47000000000E+01 0.  1.
         13    1    6    6    0    0  0.16021710812E+02 -0.54439626368E+02  0.99678695745E+02  0.11470052538E+03  0.00000000000E+00 0. -1.
        -14    1    6    6    0    0  0.66619879577E+02  0.98537495056E+01  0.12782265205E+03  0.14447814752E+03  0.00000000000E+00 0.  1.
</event>
<event>
12    1  0.9966151E-001  0.1833102E+03  0.7818608E-02  0.1164749E+00
         21   -1    0    0  501  502  0.00000000000E+00  0.00000000000E+00  0.30583991993E+03  0.30583991993E+03  0.00000000000E+00 0.  1.
         21   -1    0    0  502  503 -0.00000000000E+00 -0.00000000000E+00 -0.10960543725E+03  0.10960543725E+03  0.00000000000E+00 0.  1.
         -6    2    1    2    0  503  0.48900497386E+02  0.44556904368E+02  0.10088760389E+03  0.20923894222E+03  0.17095628082E+03 0.  0.
        -24    2    3    3    0    0  0.48696811580E+02 -0.35589054724E+02  0.36707859402E+02  0.10645496560E+03  0.79669520430E+02 0.  0.
          6    2    1    2  501    0 -0.48900497386E+02 -0.44556904368E+02  0.95346878785E+02  0.20620641496E+03  0.17045081961E+03 0.  0.
         24    2    5    5    0    0 -0.22370895155E+02 -0.27126255956E+02  0.13243408373E+03  0.15716359622E+03  0.76976091944E+02 0.  0.
          5    1    5    5  501    0 -0.26529602232E+02 -0.17430648412E+02 -0.37087204949E+02  0.49042818736E+02  0.47000000000E+01 0. -1.
        -13    1    6    6    0    0  0.21682794572E+02  0.97578067632E+01  0.61131003919E+02  0.65592362463E+02  0.00000000000E+00 0.  1.
         14    1    6    6    0    0 -0.44053689727E+02 -0.36884062719E+02  0.71303079814E+02  0.91571233759E+02  0.00000000000E+00 0. -1.
         -5    1    3    3    0  503  0.20368580649E+00  0.80145959092E+02  0.64179744488E+02  0.10278397662E+03  0.47000000000E+01 0.  1.
         11    1    4    4    0    0  0.50220082632E+02  0.12545157061E+02  0.18520132654E+02  0.54976658491E+02  0.00000000000E+00 0. -1.
        -12    1    4    4    0    0 -0.15232710522E+01 -0.48134211786E+02  0.18187726748E+02  0.51478307113E+02  0.00000000000E+00 0.  1.
</event>
<event>
12    1  0.9966151E-001  0.1801997E+03  0.7818608E-02  0.1167791E+00
         21   -1    0    0  503  502  0.00000000000E+00  0.00000000000E+00  0.76516497159E+02  0.76516497159E+02  0.00000000000E+00 0.  1.
         21   -1    0    0  501  503 -0.00000000000E+00 -0.00000000000E+00 -0.43643924236E+03  0.43643924236E+03  0.00000000000E+00 0.  1.
          6    2    1    2  501    0 -0.33248275854E+02  0.41366711392E+02 -0.22524296682E+03  0.28798778353E+03  0.17142320934E+03 0.  0.
         24    2    3    3    0    0 -0.58712632754E+01  0.27235259674E+02 -0.23916990751E+03  0.25385204826E+03  0.80388970909E+02 0.  0.
         -6    2    1    2    0  502  0.33248275854E+02 -0.41366711392E+02 -0.13467977837E+03  0.22496795598E+03  0.17220710165E+03 0.  0.
        -24    2    5    5    0    0  0.45891989677E+02 -0.89863707858E+02 -0.10549408934E+03  0.16678104500E+03  0.80655770898E+02 0.  0.
          5    1    3    3  501    0 -0.27377012579E+02  0.14131451719E+02  0.13926940691E+02  0.34135735270E+02  0.47000000000E+01 0. -1.
        -13    1    4    4    0    0  0.23729672154E+02 -0.13125771100E+02 -0.38880582796E+02  0.47403406271E+02  0.00000000000E+00 0.  1.
         14    1    4    4    0    0 -0.29600935429E+02  0.40361030774E+02 -0.20028932472E+03  0.20644864199E+03  0.00000000000E+00 0. -1.
         -5    1    5    5    0  502 -0.12643713822E+02  0.48496996465E+02 -0.29185689034E+02  0.58186910983E+02  0.47000000000E+01 0.  1.
         11    1    6    6    0    0  0.11575414216E+02  0.18574762414E+01  0.99629644181E+01  0.15385093183E+02  0.00000000000E+00 0. -1.
        -12    1    6    6    0    0  0.34316575461E+02 -0.91721184099E+02 -0.11545705376E+03  0.15139595182E+03  0.00000000000E+00 0.  1.
</event>
<event>
12    1  0.9966151E-001  0.2364519E+03  0.7818608E-02  0.1122389E+00
         21   -1    0    0  501  502  0.00000000000E+00  0.00000000000E+00  0.15096950657E+04  0.15096950657E+04  0.00000000000E+00 0.  1.
         21   -1    0    0  502  503 -0.00000000000E+00 -0.00000000000E+00 -0.39209268596E+02  0.39209268596E+02  0.00000000000E+00 0.  1.
         -6    2    1    2    0  503 -0.66373730918E+01  0.16032131207E+03  0.92377741384E+03  0.95325379516E+03  0.17199159817E+03 0.  0.
        -24    2    3    3    0    0  0.60544480908E+02  0.87890765880E+02  0.44062623594E+03  0.46008370662E+03  0.78326983858E+02 0.  0.
          6    2    1    2  501    0  0.66373730918E+01 -0.16032131207E+03  0.54670838323E+03  0.59565053910E+03  0.17367363246E+03 0.  0.
         24    2    5    5    0    0  0.54669397141E+02 -0.69323557525E+02  0.36801336518E+03  0.38939422734E+03  0.91648942815E+02 0.  0.
          5    1    5    5  501    0 -0.48032024049E+02 -0.90997754549E+02  0.17869501804E+03  0.20625631176E+03  0.47000000000E+01 0. -1.
        -13    1    6    6    0    0  0.35332478805E+01  0.10411672139E+02  0.18155870548E+01  0.11143747739E+02  0.00000000000E+00 0.  1.
         14    1    6    6    0    0  0.51136149261E+02 -0.79735229664E+02  0.36619777813E+03  0.37825047960E+03  0.00000000000E+00 0. -1.
         -5    1    3    3    0  503 -0.67181854000E+02  0.72430546194E+02  0.48315117790E+03  0.49317008855E+03  0.47000000000E+01 0.  1.
         13    1    4    4    0    0  0.29915376614E+02  0.45255681039E+01  0.22283621855E+03  0.22488083694E+03  0.00000000000E+00 0. -1.
        -14    1    4    4    0    0  0.30629104294E+02  0.83365197777E+02  0.21779001739E+03  0.23520286968E+03  0.00000000000E+00 0.  1.
</event>
<event>
12    1  0.9966151E-001  0.2372103E+03  0.7818608E-02  0.1121800E+00
         21   -1    0    0  501  502  0.00000000000E+00  0.00000000000E+00  0.37411668136E+03  0.37411668136E+03  0.00000000000E+00 0. -1.
         21   -1    0    0  502  503 -0.00000000000E+00 -0.00000000000E+00 -0.16373320168E+03  0.16373320168E+03  0.00000000000E+00 0. -1.
         -6    2    1    2    0  503  0.12552871854E+03  0.10065969037E+03  0.18319772759E+03  0.29908688222E+03  0.17321005537E+03 0.  0.
        -24    2    3    3    0    0  0.15235025973E+03  0.67676288487E+02  0.11057223768E+03  0.21480253222E+03  0.78251047522E+02 0.  0.
          6    2    1    2  501    0 -0.12552871854E+03 -0.10065969037E+03  0.27185752096E+02  0.23876300082E+03  0.17429536139E+03 0.  0.
         24    2    5    5    0    0 -0.13139119232E+03 -0.51305022959E+02 -0.26770761035E+02  0.16525349734E+03  0.81830275174E+02 0.  0.
          5    1    5    5  501    0  0.58624737826E+01 -0.49354667408E+02  0.53956513131E+02  0.73509503488E+02  0.47000000000E+01 0. -1.
        -11    1    6    6    0    0 -0.22575890688E+01  0.11468399410E+02 -0.17924177066E+02  0.21398528382E+02  0.00000000000E+00 0.  1.
         12    1    6    6    0    0 -0.12913360325E+03 -0.62773422369E+02 -0.88465839692E+01  0.14385496895E+03  0.00000000000E+00 0. -1.
         -5    1    3    3    0  503 -0.26821541193E+02  0.32983401880E+02  0.72625489910E+02  0.84284350008E+02  0.47000000000E+01 0.  1.
         13    1    4    4    0    0 -0.38197895575E+01 -0.85899784057E+01  0.11121455162E+02  0.14562461543E+02  0.00000000000E+00 0. -1.
        -14    1    4    4    0    0  0.15617004929E+03  0.76266266893E+02  0.99450782514E+02  0.20024007067E+03  0.00000000000E+00 0.  1.
</event>
<event>
12    1  0.9966151E-001  0.3308753E+03  0.7818608E-02  0.1070939E+00
         21   -1    0    0  503  502  0.00000000000E+00  0.00000000000E+00  0.39089162606E+03  0.39089162606E+03  0.00000000000E+00 0. -1.
         21   -1    0    0  501  503 -0.00000000000E+00 -0.00000000000E+00 -0.28465794989E+03  0.28465794989E+03  0.00000000000E+00 0. -1.
          6    2    1    2  501    0 -0.25742625047E+03  0.11311501007E+03  0.10239680027E+03  0.34635759682E+03  0.17439954195E+03 0.  0.
         24    2    3    3    0    0 -0.27120115432E+03  0.10981302127E+03  0.71104645336E+02  0.31168858953E+03  0.80529128311E+02 0.  0.
         -6    2    1    2    0  502  0.25742625047E+03 -0.11311501007E+03  0.38368758996E+01  0.32919197913E+03  0.17114133800E+03 0.  0.
        -24    2    5    5    0    0  0.26679782498E+03 -0.78464070415E+02  0.18898741687E+02  0.28998147252E+03  0.79965006121E+02 0.  0.
          5    1    3    3  501    0  0.13774903849E+02  0.33019888067E+01  0.31292154935E+02  0.34669007292E+02  0.47000000000E+01 0. -1.
        -11    1    4    4    0    0 -0.11044775800E+03  0.43720111620E+02  0.69995466764E+02  0.13787501868E+03  0.00000000000E+00 0.  1.
         12    1    4    4    0    0 -0.16075339632E+03  0.66092909647E+02  0.11091785723E+01  0.17381357085E+03  0.00000000000E+00 0. -1.
         -5    1    5    5    0  502 -0.93715745095E+01 -0.34650939658E+02 -0.15061865787E+02  0.39210506615E+02  0.47000000000E+01 0.  1.
         13    1    6    6    0    0  0.15181473853E+03 -0.18747188827E+02  0.41412486361E+02  0.15847449622E+03  0.00000000000E+00 0. -1.
        -14    1    6    6    0    0  0.11498308645E+03 -0.59716881588E+02 -0.22513744674E+02  0.13150697630E+03  0.00000000000E+00 0.  1.
</event>
<event>
12    1  0.9966151E-001  0.1859907E+03  0.7818608E-02  0.1162152E+00
         21   -1    0    0  501  502  0.00000000000E+00  0.00000000000E+00  0.29308552182E+03  0.29308552182E+03  0.00000000000E+00 0.  1.
         21   -1    0    0  502  503 -0.00000000000E+00 -0.00000000000E+00 -0.18376303811E+03  0.18376303811E+03  0.00000000000E+00 0.  1.
         -6    2    1    2    0  503  0.38192824140E+02  0.59372688788E+02  0.19732258372E+03  0.27109003123E+03  0.17195870144E+03 0.  0.
        -24    2    3    3    0    0  0.20350242432E+02  0.50908839311E+02  0.22023234640E+03  0.24048052787E+03  0.79515756885E+02 0.  0.
          6    2    1    2  501    0 -0.38192824140E+02 -0.59372688788E+02 -0.88000100007E+02  0.20575852870E+03  0.17207192258E+03 0.  0.
         24    2    5    5    0    0 -0.31467700974E+02 -0.10651336630E+03 -0.52504206163E+02  0.14618068686E+03  0.79226183432E+02 0.  0.
          5    1    5    5  501    0 -0.67251231661E+01  0.47140677511E+02 -0.35495893844E+02  0.59577841834E+02  0.47000000000E+01 0. -1.
        -13    1    6    6    0    0 -0.13219407916E+01 -0.14014179701E+02  0.20275454471E+02  0.24682763503E+02  0.00000000000E+00 0.  1.
         14    1    6    6    0    0 -0.30145760183E+02 -0.92499186599E+02 -0.72779660633E+02  0.12149792336E+03  0.00000000000E+00 0. -1.
         -5    1    3    3    0  503  0.17842581708E+02  0.84638494768E+01 -0.22909762687E+02  0.30609503367E+02  0.47000000000E+01 0.  1.
         13    1    4    4    0    0  0.19245873962E+02 -0.11589352986E+02  0.12196728181E+03  0.12401908966E+03  0.00000000000E+00 0. -1.
        -14    1    4    4    0    0  0.11043684700E+01  0.62498192297E+02  0.98265064595E+02  0.11646143821E+03  0.00000000000E+00 0.  1.
</event>
<event>
12    1  0.9966151E-001  0.1916903E+03  0.7818608E-02  0.1156972E+00
         21   -1    0    0  501  502  0.00000000000E+00  0.00000000000E+00  0.10992065456E+03  0.10992065456E+03  0.00000000000E+00 0. -1.
         21   -1    0    0  502  503 -0.00000000000E+00 -0.00000000000E+00 -0.33711244866E+03  0.33711244866E+03  0.00000000000E+00 0. -1.
         -6    2    1    2    0  503 -0.20634999680E+02 -0.81790603582E+02 -0.92364431303E+02  0.21267530569E+03  0.17200026579E+03 0.  0.
        -24    2    3    3    0    0  0.26154588528E+02 -0.69136395074E+02 -0.98150940368E+00  0.10912665542E+03  0.80273033686E+02 0.  0.
          6    2    1    2  501    0  0.20634999680E+02  0.81790603582E+02 -0.13482736279E+03  0.23435779753E+03  0.17213266239E+03 0.  0.
         24    2    5    5    0    0  0.46571304276E+01  0.25865194819E+02  0.25262059074E+01  0.85122960830E+02  0.80924900848E+02 0.  0.
          5    1    5    5  501    0  0.15977869252E+02  0.55925408762E+02 -0.13735356870E+03  0.14923483670E+03  0.47000000000E+01 0. -1.
        -11    1    6    6    0    0 -0.27506751006E+02  0.70683150658E+01 -0.25763755963E+02  0.38345189400E+02  0.00000000000E+00 0.  1.
         12    1    6    6    0    0  0.32163881434E+02  0.18796879753E+02  0.28289961870E+02  0.46777771430E+02  0.00000000000E+00 0. -1.
         -5    1    3    3    0  503 -0.46789588208E+02 -0.12654208508E+02 -0.91382921899E+02  0.10354865027E+03  0.47000000000E+01 0.  1.
         13    1    4    4    0    0  0.51895622833E+02 -0.24605452248E+02  0.31936654545E+01  0.57522025770E+02  0.00000000000E+00 0. -1.
        -14    1    4    4    0    0 -0.25741034306E+02 -0.44530942826E+02 -0.41751748582E+01  0.51604629649E+02  0.00000000000E+00 0.  1.
</event>
<event>
12    1  0.9966151E-001  0.2241745E+03  0.7818608E-02  0.1130998E+00
         21   -1    0    0  503  502  0.00000000000E+00  0.00000000000E+00  0.11762424163E+03  0.11762424163E+03  0.00000000000E+00 0.  1.
         21   -1    0    0  501  503 -0.00000000000E+00 -0.00000000000E+00 -0.42526656350E+03  0.42526656350E+03  0.00000000000E+00 0.  1.
          6    2    1    2  501    0  0.10584512647E+03 -0.96694645289E+02 -0.15361607244E+03  0.27175742442E+03  0.17234022975E+03 0.  0.
         24    2    3    3    0    0  0.16833786174E+02  0.33611073756E+01 -0.26680644518E+02  0.87179892730E+02  0.81202238299E+02 0.  0.
         -6    2    1    2    0  502 -0.10584512647E+03  0.96694645289E+02 -0.15402624942E+03  0.27113338070E+03  0.17098590408E+03 0.  0.
        -24    2    5    5    0    0 -0.69833713062E+02  0.23186373451E+02 -0.15363790535E+02  0.11004441327E+03  0.80370214869E+02 0.  0.
          5    1    3    3  501    0  0.89011340295E+02 -0.10005575266E+03 -0.12693542793E+03  0.18457753169E+03  0.47000000000E+01 0. -1.
        -11    1    4    4    0    0  0.60500673670E+01 -0.33174622841E+02  0.90883761517E+01  0.34925026799E+02  0.00000000000E+00 0.  1.
         12    1    4    4    0    0  0.10783718807E+02  0.36535730217E+02 -0.35769020670E+02  0.52254865931E+02  0.00000000000E+00 0. -1.
         -5    1    5    5    0  502 -0.36011413407E+02  0.73508271838E+02 -0.13866245889E+03  0.16108896743E+03  0.47000000000E+01 0.  1.
         13    1    6    6    0    0  0.34405067486E+01  0.32308279297E+02  0.62917662484E+01  0.33094536110E+02  0.00000000000E+00 0. -1.
        -14    1    6    6    0    0 -0.73274219810E+02 -0.91219058458E+01 -0.21655556784E+02  0.76949877158E+02  0.00000000000E+00 0.  1.
</event>
<event>
12    1  0.9966151E-001  0.2818505E+03  0.7818608E-02  0.1095128E+00
         21   -1    0    0  503  502  0.00000000000E+00  0.00000000000E+00  0.10500659720E+04  0.10500659720E+04  0.00000000000E+00 0. -1.
         21   -1    0    0  501  503 -0.00000000000E+00 -0.00000000000E+00 -0.79389223064E+02  0.79389223064E+02  0.00000000000E+00 0. -1.
          6    2    1    2  501    0 -0.49693557159E+01  0.21873929423E+03  0.61879428901E+03  0.67861049604E+03  0.17243624877E+03 0.  0.
         24    2    3    3    0    0 -0.32679362758E+02  0.22338477302E+03  0.47468890494E+03  0.53171639581E+03  0.80150305908E+02 0.  0.
         -6    2    1    2    0  502  0.49693557159E+01 -0.21873929423E+03  0.35188245992E+03  0.45084469902E+03  0.17767415033E+03 0.  0.
        -24    2    5    5    0    0 -0.19357277919E+02 -0.25117649345E+02  0.86252247786E+02  0.12120455269E+03  0.79028430501E+02 0.  0.
          5    1    3    3  501    0  0.27710007042E+02 -0.46454787928E+01  0.14410538407E+03  0.14689410023E+03  0.47000000000E+01 0. -1.
        -13    1    4    4    0    0  0.24537816693E+02  0.51222992104E+02  0.13864489782E+03  0.14982759112E+03  0.00000000000E+00 0.  1.
         14    1    4    4    0    0 -0.57217179451E+02  0.17216178092E+03  0.33604400712E+03  0.38188880470E+03  0.00000000000E+00 0. -1.
         -5    1    5    5    0  502  0.24326633635E+02 -0.19362164488E+03  0.26563021214E+03  0.32964014633E+03  0.47000000000E+01 0.  1.
         11    1    6    6    0    0 -0.24682836144E+02 -0.31773915712E+02  0.62116395333E+01  0.40711283270E+02  0.00000000000E+00 0. -1.
        -12    1    6    6    0    0  0.53255582253E+01  0.66562663675E+01  0.80040608253E+02  0.80493269420E+02  0.00000000000E+00 0.  1.
</event>
<event>
12    1  0.9966151E-001  0.1839547E+03  0.7818608E-02  0.1166363E+00
         21   -1    0    0  503  502  0.00000000000E+00  0.00000000000E+00  0.11429101533E+03  0.11429101533E+03  0.00000000000E+00 0. -1.
         21   -1    0    0  501  503 -0.00000000000E+00 -0.00000000000E+00 -0.28091036833E+03  0.28091036833E+03  0.00000000000E+00 0. -1.
          6    2    1    2  501    0 -0.61009546030E+02  0.52112761792E+00 -0.85462221344E+02  0.19413964570E+03  0.16329107286E+03 0.  0.
         24    2    3    3    0    0  0.64045259621E+01 -0.44785871669E+02 -0.54637534616E+02  0.10713601015E+03  0.80287435059E+02 0.  0.
         -6    2    1    2    0  502  0.61009546030E+02 -0.52112761792E+00 -0.81157131659E+02  0.20106173795E+03  0.17354223166E+03 0.  0.
        -24    2    5    5    0    0  0.20248744782E+02  0.57581950523E+02  0.97466507729E+00  0.92410310705E+02  0.69375953048E+02 0.  0.
          5    1    3    3  501    0 -0.67414071992E+02  0.45306999287E+02 -0.30824686728E+02  0.87003635549E+02  0.47000000000E+01 0. -1.
        -11    1    4    4    0    0 -0.21050691949E+02 -0.57757783606E+02 -0.32330358163E+02  0.69457506848E+02  0.00000000000E+00 0.  1.
         12    1    4    4    0    0  0.27455217911E+02  0.12971911937E+02 -0.22307176454E+02  0.37678503303E+02  0.00000000000E+00 0. -1.
         -5    1    5    5    0  502  0.40760801248E+02 -0.58103078141E+02 -0.82131796736E+02  0.10865142725E+03  0.47000000000E+01 0.  1.
         11    1    6    6    0    0 -0.46686265718E+01  0.61790462305E+02 -0.13313074880E+02  0.63380559075E+02  0.00000000000E+00 0. -1.
        -12    1    6    6    0    0  0.24917371354E+02 -0.42085117817E+01  0.14287739957E+02  0.29029751630E+02  0.00000000000E+00 0.  1.
</event>
<event>
12    1  0.9966151E-001  0.3717615E+03  0.7818608E-02  0.1054037E+00
         21   -1    0    0  501  502  0.00000000000E+00  0.00000000000E+00  0.26849290072E+03  0.26849290072E+03  0.00000000000E+00 0. -1.
         21   -1    0    0  502  503 -0.00000000000E+00 -0.00000000000E+00 -0.55404726176E+03  0.55404726176E+03  0.00000000000E+00 0. -1.
         -6    2    1    2    0  503 -0.27813194772E+03 -0.17660169203E+03 -0.32911786491E+02  0.37305729210E+03  0.17188082944E+03 0.  0.
        -24    2    3    3    0    0 -0.64966692748E+02 -0.99933674362E+02 -0.24615685096E+01  0.14443814016E+03  0.81540827656E+02 0.  0.
          6    2    1    2  501    0  0.27813194772E+03  0.17660169203E+03 -0.25264257455E+03  0.44948287038E+03  0.17222381460E+03 0.  0.
         24    2    5    5    0    0  0.72992137922E+02  0.11109951039E+03 -0.87496403844E+02  0.17806395972E+03  0.79876151991E+02 0.  0.
          5    1    5    5  501    0  0.20513980980E+03  0.65502181640E+02 -0.16514617071E+03  0.27141891066E+03  0.47000000000E+01 0. -1.
        -13    1    6    6    0    0  0.82223867061E+02  0.82540295130E+02 -0.42581836783E+02  0.12404385296E+03  0.00000000000E+00 0.  1.
         14    1    6    6    0    0 -0.92317291396E+01  0.28559215264E+02 -0.44914567061E+02  0.54020106754E+02  0.00000000000E+00 0. -1.
         -5    1    3    3    0  503 -0.21316525497E+03 -0.76668017672E+02 -0.30450217981E+02  0.22861915195E+03  0.47000000000E+01 0.  1.
         11    1    4    4    0    0 -0.16276044058E+02 -0.15324901911E+02 -0.35007794532E+02  0.41536825911E+02  0.00000000000E+00 0. -1.
        -12    1    4    4    0    0 -0.48690648691E+02 -0.84608772451E+02  0.32546226023E+02  0.10290131425E+03  0.00000000000E+00 0.  1.
</event>
<event>
12    1  0.9966151E-001  0.2417836E+03  0.7818608E-02  0.1119290E+00
         21   -1    0    0  503  502  0.00000000000E+00  0.00000000000E+00  0.97467989791E+03  0.97467989791E+03  0.00000000000E+00 0.  1.
         21   -1    0    0  501  503 -0.00000000000E+00 -0.00000000000E+00 -0.11871028088E+03  0.11871028088E+03  0.00000000000E+00 0.  1.
          6    2    1    2  501    0  0.17055257568E+03 -0.20811979094E+00  0.81761066364E+03  0.85261156747E+03  0.17137988011E+03 0.  0.
         24    2    3    3    0    0  0.10989933205E+03  0.59167784296E+02  0.62208455280E+03  0.63940541378E+03  0.79192186901E+02 0.  0.
         -6    2    1    2    0  502 -0.17055257568E+03  0.20811979094E+00  0.38358953389E+02  0.24077861132E+03  0.16557386864E+03 0.  0.
        -24    2    5    5    0    0 -0.11185135978E+03  0.55973923485E+02  0.55701517715E+02  0.15784181521E+03  0.78533895614E+02 0.  0.
          5    1    3    3  501    0  0.60653243631E+02 -0.59375904087E+02  0.19552611085E+03  0.21320615369E+03  0.47000000000E+01 0. -1.
        -13    1    4    4    0    0  0.12890399738E+02  0.34132055045E+02  0.29700175048E+03  0.29923435528E+03  0.00000000000E+00 0.  1.
         14    1    4    4    0    0  0.97008932315E+02  0.25035729251E+02  0.32508280231E+03  0.34017105851E+03  0.00000000000E+00 0. -1.
         -5    1    5    5    0  502 -0.58701215906E+02 -0.55765803694E+02 -0.17342564326E+02  0.82936796104E+02  0.47000000000E+01 0.  1.
         13    1    6    6    0    0 -0.76196302468E+02  0.38851356390E+02 -0.46814200155E+01  0.85657574659E+02  0.00000000000E+00 0. -1.
        -14    1    6    6    0    0 -0.35655057309E+02  0.17122567095E+02  0.60382937731E+02  0.72184240556E+02  0.00000000000E+00 0.  1.
</event>
<event>
12    1  0.1042658E+000  0.3339511E+03  0.7818608E-02  0.1069731E+00
         21   -1    0    0  501  502  0.00000000000E+00  0.00000000000E+00  0.61123598215E+03  0.61123598215E+03  0.00000000000E+00 0.  1.
         21   -1    0    0  502  503 -0.00000000000E+00 -0.00000000000E+00 -0.24590069651E+03  0.24590069651E+03  0.00000000000E+00 0.  1.
         -6    2    1    2    0  503 -0.53603032223E+02  0.28119367180E+03  0.40254221189E+03  0.52111923560E+03  0.16607787102E+03 0.  0.
        -24    2    3    3    0    0 -0.16760664453E+02  0.27698784443E+03  0.37990147853E+03  0.47741864232E+03  0.81241866079E+02 0.  0.
          6    2    1    2  501    0  0.53603032223E+02 -0.28119367180E+03 -0.37206926246E+02  0.33601744306E+03  0.17198895474E+03 0.  0.
         24    2    5    5    0    0 -0.29313386343E+02 -0.20267952942E+03 -0.20049486957E+02  0.22044897528E+03  0.79104377306E+02 0.  0.
          5    1    5    5  501    0  0.82916418566E+02 -0.78514142373E+02 -0.17157439289E+02  0.11556846777E+03  0.47000000000E+01 0. -1.
        -13    1    6    6    0    0 -0.93907987403E+01  0.39202975341E+01  0.50823618335E+01  0.11374807055E+02  0.00000000000E+00 0.  1.
         14    1    6    6    0    0 -0.19922587603E+02 -0.20659982696E+03 -0.25131848791E+02  0.20907416823E+03  0.00000000000E+00 0. -1.
         -5    1    3    3    0  503 -0.36842367770E+02  0.42058273661E+01  0.22640733355E+02  0.43700593286E+02  0.47000000000E+01 0.  1.
         11    1    4    4    0    0 -0.46225950440E+02  0.15373525065E+03  0.18501024160E+03  0.24494929125E+03  0.00000000000E+00 0. -1.
        -12    1    4    4    0    0  0.29465285987E+02  0.12325259378E+03  0.19489123693E+03  0.23246935107E+03  0.00000000000E+00 0.  1.
</event>
<event>
12    1  0.9966151E-001  0.4394355E+03  0.7818608E-02  0.1030932E+00
         21   -1    0    0  503  502  0.00000000000E+00  0.00000000000E+00  0.63883928209E+03  0.63883928209E+03  0.00000000000E+00 0.  1.
         21   -1    0    0  501  503 -0.00000000000E+00 -0.00000000000E+00 -0.34953973819E+03  0.34953973819E+03  0.00000000000E+00 0.  1.
          6    2    1    2  501    0 -0.24754144052E+03  0.31964851155E+03  0.32659697682E+03  0.54751180605E+03  0.17219656440E+03 0.  0.
         24    2    3    3    0    0 -0.22478770817E+03  0.20618781956E+03  0.28504197867E+03  0.42446722538E+03  0.76684842966E+02 0.  0.
         -6    2    1    2    0  502  0.24754144052E+03 -0.31964851155E+03 -0.37297432922E+02  0.44086721423E+03  0.17181637398E+03 0.  0.
        -24    2    5    5    0    0  0.14018262921E+03 -0.22349725531E+03  0.38130639635E+02  0.27813288296E+03  0.79383639640E+02 0.  0.
          5    1    3    3  501    0 -0.22753732353E+02  0.11346069199E+03  0.41554998153E+02  0.12304458067E+03  0.47000000000E+01 0. -1.
        -11    1    4    4    0    0 -0.70298417173E+02  0.22564316404E+02  0.79617212720E+02  0.10858138143E+03  0.00000000000E+00 0.  1.
         12    1    4    4    0    0 -0.15448929099E+03  0.18362350316E+03  0.20542476595E+03  0.31588584395E+03  0.00000000000E+00 0. -1.
         -5    1    5    5    0  502  0.10735881131E+03 -0.96151256239E+02 -0.75428072557E+02  0.16273433127E+03  0.47000000000E+01 0.  1.
         11    1    6    6    0    0  0.14318795985E+03 -0.17585378035E+03  0.22446059911E+02  0.22788411422E+03  0.00000000000E+00 0. -1.
        -12    1    6    6    0    0 -0.30053306437E+01 -0.47643474960E+02  0.15684579724E+02  0.50248768738E+02  0.00000000000E+00 0.  1.
</event>
<event>
12    1  0.9966151E-001  0.2356484E+03  0.7818608E-02  0.1123136E+00
         21   -1    0    0  503  502  0.00000000000E+00  0.00000000000E+00  0.21560598884E+03  0.21560598884E+03  0.00000000000E+00 0. -1.
         21   -1    0    0  501  503 -0.00000000000E+00 -0.00000000000E+00 -0.25701979950E+03  0.25701979950E+03  0.00000000000E+00 0. -1.
          6    2    1    2  501    0  0.11080290442E+03 -0.11336921976E+03 -0.41818756837E+02  0.23697700525E+03  0.17111232854E+03 0.  0.
         24    2    3    3    0    0 -0.81242045810E+01 -0.27415185362E+02 -0.44992494604E+01  0.85495689855E+02  0.80446719321E+02 0.  0.
         -6    2    1    2    0  502 -0.11080290442E+03  0.11336921976E+03  0.40494617778E+00  0.23564878310E+03  0.17435687936E+03 0.  0.
        -24    2    5    5    0    0 -0.21435506382E+02  0.11752250342E+03  0.17435091139E+02  0.14445724054E+03  0.79327751748E+02 0.  0.
          5    1    3    3  501    0  0.11892710900E+03 -0.85954034395E+02 -0.37319507377E+02  0.15148131540E+03  0.47000000000E+01 0. -1.
        -11    1    4    4    0    0  0.51223702528E+01 -0.52489340147E+02  0.99491694981E+01  0.53668943345E+02  0.00000000000E+00 0.  1.
         12    1    4    4    0    0 -0.13246574834E+02  0.25074154785E+02 -0.14448418959E+02  0.31826746510E+02  0.00000000000E+00 0. -1.
         -5    1    5    5    0  502 -0.89367398035E+02 -0.41532836629E+01 -0.17030144961E+02  0.91191542558E+02  0.47000000000E+01 0.  1.
         11    1    6    6    0    0 -0.17926975457E+02  0.14600274843E+02  0.33012784914E+02  0.40303702588E+02  0.00000000000E+00 0. -1.
        -12    1    6    6    0    0 -0.35085309245E+01  0.10292222858E+03 -0.15577693775E+02  0.10415353795E+03  0.00000000000E+00 0.  1.
</event>
<event>
12    1  0.9966151E-001  0.4289476E+03  0.7818608E-02  0.1034202E+00
         21   -1    0    0  501  502  0.00000000000E+00  0.00000000000E+00  0.34590916456E+03  0.34590916456E+03  0.00000000000E+00 0.  1.
         21   -1    0    0  502  503 -0.00000000000E+00 -0.00000000000E+00 -0.12674558959E+04  0.12674558959E+04  0.00000000000E+00 0.  1.
         -6    2    1    2    0  503 -0.25295446841E+02 -0.39209735374E+03 -0.10753315693E+04  0.11576833709E+04  0.17179234208E+03 0.  0.
        -24    2    3    3    0    0 -0.48023645926E+02 -0.34476633636E+03 -0.10224667115E+04  0.10830269617E+04  0.79618630860E+02 0.  0.
          6    2    1    2  501    0  0.25295446841E+02  0.39209735374E+03  0.15378483801E+03  0.45568168955E+03  0.17209250809E+03 0.  0.
         24    2    5    5    0    0 -0.32358976515E+02  0.27646916257E+03  0.59736935224E+02  0.29580358240E+03  0.80305396558E+02 0.  0.
          5    1    5    5  501    0  0.57654423355E+02  0.11562819117E+03  0.94047902787E+02  0.15987810715E+03  0.47000000000E+01 0. -1.
        -13    1    6    6    0    0  0.40001331542E+01  0.23278131824E+03  0.45723798347E+02  0.23726316386E+03  0.00000000000E+00 0.  1.
         14    1    6    6    0    0 -0.36359109669E+02  0.43687844329E+02  0.14013136878E+02  0.58540418543E+02  0.00000000000E+00 0. -1.
         -5    1    3    3    0  503  0.22728199085E+02 -0.47331017389E+02 -0.52864857828E+02  0.74656409195E+02  0.47000000000E+01 0.  1.
         11    1    4    4    0    0 -0.50091689656E+02 -0.10725010574E+03 -0.29960722072E+03  0.32214321235E+03  0.00000000000E+00 0. -1.
        -12    1    4    4    0    0  0.20680437298E+01 -0.23751623061E+03 -0.72285949075E+03  0.76088374932E+03  0.00000000000E+00 0.  1.
</event>
<event>
12    1  0.9966151E-001  0.2061655E+03  0.7818608E-02  0.1145296E+00
         21   -1    0    0  501  502  0.00000000000E+00  0.00000000000E+00  0.14225414223E+03  0.14225414223E+03  0.00000000000E+00 0.  1.
         21   -1    0    0  502  503 -0.00000000000E+00 -0.00000000000E+00 -0.30174031351E+03  0.30174031351E+03  0.00000000000E+00 0.  1.
         -6    2    1    2    0  503  0.69205041647E+02 -0.87042203343E+02 -0.43925977841E+02  0.20765068060E+03  0.16977523574E+03 0.  0.
        -24    2    3    3    0    0  0.74226460117E+02 -0.27547924825E+02  0.24916772237E+02  0.11640267756E+03  0.81610552391E+02 0.  0.
          6    2    1    2  501    0 -0.69205041647E+02  0.87042203343E+02 -0.11556019344E+03  0.23634377514E+03  0.17360454714E+03 0.  0.
         24    2    5    5    0    0 -0.23515065013E+02 -0.21688402065E+02 -0.66577335419E+02  0.10854968726E+03  0.79543371481E+02 0.  0.
          5    1    5    5  501    0 -0.45689976634E+02  0.10873060541E+03 -0.48982858016E+02  0.12779408788E+03  0.47000000000E+01 0. -1.
        -11    1    6    6    0    0 -0.21797285055E+02  0.14834976958E+02 -0.66981011098E+02  0.71983706662E+02  0.00000000000E+00 0.  1.
         12    1    6    6    0    0 -0.17177799586E+01 -0.36523379023E+02  0.40367567889E+00  0.36565980600E+02  0.00000000000E+00 0. -1.
         -5    1    3    3    0  503 -0.50214184700E+01 -0.59494278518E+02 -0.68842750077E+02  0.91248003036E+02  0.47000000000E+01 0.  1.
         13    1    4    4    0    0  0.47008342553E+02 -0.20578488795E+02 -0.26542114393E+02  0.57773197134E+02  0.00000000000E+00 0. -1.
        -14    1    4    4    0    0  0.27218117565E+02 -0.69694360303E+01  0.51458886629E+02  0.58629480430E+02  0.00000000000E+00 0.  1.
</event>
<event>
12    1  0.9966151E-001  0.2233521E+03  0.7818608E-02  0.1131686E+00
         21   -1    0    0  501  502  0.00000000000E+00  0.00000000000E+00  0.89374005971E+02  0.89374005971E+02  0.00000000000E+00 0. -1.
         21   -1    0    0  502  503 -0.00000000000E+00 -0.00000000000E+00 -0.70230641117E+03  0.70230641117E+03  0.00000000000E+00 0. -1.
         -6    2    1    2    0  503  0.87569489348E+02 -0.10947932066E+03 -0.12398157822E+03  0.25413129740E+03  0.17192192258E+03 0.  0.
        -24    2    3    3    0    0  0.95760004513E+01 -0.11523379401E+02 -0.64811137706E+01  0.82355862943E+02  0.80721714971E+02 0.  0.
          6    2    1    2  501    0 -0.87569489348E+02  0.10947932066E+03 -0.48895082698E+03  0.53754911974E+03  0.17387353970E+03 0.  0.
         24    2    5    5    0    0 -0.12212861880E+03  0.88581799803E+02 -0.44992754720E+03  0.48119358610E+03  0.79688987901E+02 0.  0.
          5    1    5    5  501    0  0.34559129450E+02  0.20897520857E+02 -0.39023279784E+02  0.56355533636E+02  0.47000000000E+01 0. -1.
        -11    1    6    6    0    0  0.11485126338E+01  0.14525437999E+02 -0.12521653348E+03  0.12606144409E+03  0.00000000000E+00 0.  1.
         12    1    6    6    0    0 -0.12327713143E+03  0.74056361804E+02 -0.32471101372E+03  0.35513214201E+03  0.00000000000E+00 0. -1.
         -5    1    3    3    0  503  0.77993488897E+02 -0.97955941260E+02 -0.11750046445E+03  0.17177543446E+03  0.47000000000E+01 0.  1.
         13    1    4    4    0    0 -0.34596189309E+02  0.81508753169E-01  0.57603838703E+01  0.35072567353E+02  0.00000000000E+00 0. -1.
        -14    1    4    4    0    0  0.44172189761E+02 -0.11604888154E+02 -0.12241497641E+02  0.47283295590E+02  0.00000000000E+00 0.  1.
</event>
<event>
12    1  0.9966151E-001  0.1757995E+03  0.7818608E-02  0.1172420E+00
         21   -1    0    0  503  502  0.00000000000E+00  0.00000000000E+00  0.82164379503E+02  0.82164379503E+02  0.00000000000E+00 0.  1.
         21   -1    0    0  501  503 -0.00000000000E+00 -0.00000000000E+00 -0.46728105280E+03  0.46728105280E+03  0.00000000000E+00 0.  1.
          6    2    1    2  501    0  0.21371557532E+02 -0.22051946615E+02 -0.69350450843E+02  0.18898403851E+03  0.17309664918E+03 0.  0.
         24    2    3    3    0    0  0.71371894629E+02 -0.90360176546E+01 -0.83190587758E+02  0.13528964861E+03  0.78784631576E+02 0.  0.
         -6    2    1    2    0  502 -0.21371557532E+02  0.22051946615E+02 -0.31576622245E+03  0.36046139379E+03  0.17111714512E+03 0.  0.
        -24    2    5    5    0    0 -0.68121988169E+02 -0.13688005722E+02 -0.25360345758E+03  0.27473364861E+03  0.79598349287E+02 0.  0.
          5    1    3    3  501    0 -0.50000337097E+02 -0.13015928960E+02  0.13840136914E+02  0.53694389896E+02  0.47000000000E+01 0. -1.
        -13    1    4    4    0    0  0.24847867322E+02  0.29801304161E+02 -0.57723333039E+02  0.69552263926E+02  0.00000000000E+00 0.  1.
         14    1    4    4    0    0  0.46524027307E+02 -0.38837321815E+02 -0.25467254719E+02  0.65737384687E+02  0.00000000000E+00 0. -1.
         -5    1    5    5    0  502  0.46750430637E+02  0.35739952337E+02 -0.62162764875E+02  0.85727745186E+02  0.47000000000E+01 0.  1.
         13    1    6    6    0    0 -0.55139148340E+02  0.13402695867E+02 -0.22893351003E+03  0.23586120908E+03  0.00000000000E+00 0. -1.
        -14    1    6    6    0    0 -0.12982839828E+02 -0.27090701589E+02 -0.24669947552E+02  0.38872439528E+02  0.00000000000E+00 0.  1.
</event>
<event>
12    1  0.9966151E-001  0.1783657E+03  0.7818608E-02  0.1169401E+00
         21   -1    0    0  503  502  0.00000000000E+00  0.00000000000E+00  0.26933359545E+03  0.26933359545E+03  0.00000000000E+00 0. -1.
         21   -1    0    0  501  503 -0.00000000000E+00 -0.00000000000E+00 -0.16150625600E+03  0.16150625600E+03  0.00000000000E+00 0. -1.
          6    2    1    2  501    0 -0.35495954336E+02  0.32136787250E+02  0.16558911202E+03  0.24338054022E+03  0.17181850154E+03 0.  0.
         24    2    3    3    0    0 -0.21157318671E+02  0.47795301616E+02  0.18875235912E+03  0.21160930226E+03  0.80118791419E+02 0.  0.
         -6    2    1    2    0  502  0.35495954336E+02 -0.32136787250E+02 -0.57761772574E+02  0.18745931123E+03  0.17179009031E+03 0.  0.
        -24    2    5    5    0    0  0.27136767182E+02  0.12008715930E+02 -0.95848277829E+02  0.12837146694E+03  0.80073265007E+02 0.  0.
          5    1    3    3  501    0 -0.14338635664E+02 -0.15658514366E+02 -0.23163247108E+02  0.31771237959E+02  0.47000000000E+01 0. -1.
        -13    1    4    4    0    0 -0.98320271590E+01 -0.11591282443E+02  0.20190482573E+01  0.15333073488E+02  0.00000000000E+00 0.  1.
         14    1    4    4    0    0 -0.11325291512E+02  0.59386584059E+02  0.18673331087E+03  0.19627622877E+03  0.00000000000E+00 0. -1.
         -5    1    5    5    0  502  0.83591871534E+01 -0.44145503181E+02  0.38086505255E+02  0.59087844295E+02  0.47000000000E+01 0.  1.
         13    1    6    6    0    0 -0.63182792037E+01  0.26794393569E+02 -0.19471139787E+01  0.27598033113E+02  0.00000000000E+00 0. -1.
        -14    1    6    6    0    0  0.33455046386E+02 -0.14785677639E+02 -0.93901163851E+02  0.10077343382E+03  0.00000000000E+00 0.  1.
</event>
<event>
12    1  0.9966151E-001  0.2473504E+03  0.7818608E-02  0.1115033E+00
         21   -1    0    0  503  502  0.00000000000E+00  0.00000000000E+00  0.85335313486E+03  0.85335313486E+03  0.00000000000E+00 0.  1.
         21   -1    0    0  501  503 -0.00000000000E+00 -0.00000000000E+00 -0.14519956147E+03  0.14519956147E+03  0.00000000000E+00 0.  1.
          6    2    1    2  501    0 -0.16622682004E+03  0.60054435613E+02 -0.14287639459E+01  0.24709457966E+03  0.17267251951E+03 0.  0.
         24    2    3    3    0    0 -0.19410065153E+03  0.58856767487E+02 -0.71437636961E+01  0.21823048235E+03  0.80214263480E+02 0.  0.
         -6    2    1    2    0  502  0.16622682004E+03 -0.60054435613E+02  0.70958233733E+03  0.75145811667E+03  0.17304426232E+03 0.  0.
        -24    2    5    5    0    0  0.93189376129E+02 -0.70845385783E+02  0.26247146613E+03  0.29826816316E+03  0.79807882517E+02 0.  0.
          5    1    3    3  501    0  0.27873831494E+02  0.11976681260E+01  0.57149997502E+01  0.28864097305E+02  0.47000000000E+01 0. -1.
        -13    1    4    4    0    0 -0.96134417343E+02 -0.10117190888E+02  0.10071304548E+02  0.97188553465E+02  0.00000000000E+00 0.  1.
         14    1    4    4    0    0 -0.97966234187E+02  0.68973958375E+02 -0.17215068245E+02  0.12104192889E+03  0.00000000000E+00 0. -1.
         -5    1    5    5    0  502  0.73037443908E+02  0.10790950170E+02  0.44711087120E+03  0.45318995351E+03  0.47000000000E+01 0.  1.
         13    1    6    6    0    0  0.74675068091E+02 -0.80075314931E+01  0.15827551662E+03  0.17519025520E+03  0.00000000000E+00 0. -1.
        -14    1    6    6    0    0  0.18514308038E+02 -0.62837854290E+02  0.10419594951E+03  0.12307790796E+03  0.00000000000E+00 0.  1.
</event>
<event>
12    1  0.9966151E-001  0.2204011E+03  0.7818608E-02  0.1134491E+00
         21   -1    0    0  501  502  0.00000000000E+00  0.00000000000E+00  0.23142727961E+03  0.23142727961E+03  0.00000000000E+00 0.  1.
         21   -1    0    0  502  503 -0.00000000000E+00 -0.00000000000E+00 -0.20535029950E+03  0.20535029950E+03  0.00000000000E+00 0. -1.
         -6    2    1    2    0  503 -0.40313432178E+01 -0.13606103973E+03  0.11397431372E+02  0.22069554954E+03  0.17334291415E+03 0.  0.
        -24    2    3    3    0    0 -0.28986807078E+02 -0.23924261830E+01 -0.33246176128E+00  0.84131448049E+02  0.78943215873E+02 0.  0.
          6    2    1    2  501    0  0.40313432178E+01  0.13606103973E+03  0.14679548735E+02  0.21608202957E+03  0.16717384991E+03 0.  0.
         24    2    5    5    0    0  0.45945516193E+02  0.13473900512E+03  0.37900842513E+02  0.16791706143E+03  0.80585828125E+02 0.  0.
          5    1    5    5  501    0 -0.41914172975E+02  0.13220346027E+01 -0.23221293778E+02  0.48164968145E+02  0.47000000000E+01 0. -1.
        -11    1    6    6    0    0 -0.16035801475E+02  0.23189203267E+02  0.28294299350E+02  0.39943127729E+02  0.00000000000E+00 0.  1.
         12    1    6    6    0    0  0.61981317667E+02  0.11154980186E+03  0.96065431631E+01  0.12797393370E+03  0.00000000000E+00 0. -1.
         -5    1    3    3    0  503  0.24955463861E+02 -0.13366861354E+03  0.11729893134E+02  0.13656410149E+03  0.47000000000E+01 0.  1.
         11    1    4    4    0    0 -0.47064253722E+02 -0.18216275724E+02 -0.18773292511E+02  0.53845270836E+02  0.00000000000E+00 0. -1.
        -12    1    4    4    0    0  0.18077446644E+02  0.15823849541E+02  0.18440830749E+02  0.30286177213E+02  0.00000000000E+00 0.  1.
</event>
<event>
12    1  0.9966151E-001  0.1949445E+03  0.7818608E-02  0.1154903E+00
         21   -1    0    0  503  502  0.00000000000E+00  0.00000000000E+00  0.22909682641E+03  0.22909682641E+03  0.00000000000E+00 0. -1.
         21   -1    0    0  501  503 -0.00000000000E+00 -0.00000000000E+00 -0.16680395071E+03  0.16680395071E+03  0.00000000000E+00 0. -1.
          6    2    1    2  501    0 -0.58290497215E+02  0.69777419524E+02  0.62469939504E+02  0.20470922115E+03  0.17244332849E+03 0.  0.
         24    2    3    3    0    0 -0.71439033084E+02  0.10871650666E+03  0.37822727263E+02  0.15655621944E+03  0.78463219902E+02 0.  0.
         -6    2    1    2    0  502  0.58290497215E+02 -0.69777419524E+02 -0.17706380776E+00  0.19119155597E+03  0.16818890981E+03 0.  0.
        -24    2    5    5    0    0  0.49873390651E+02 -0.73535534254E+02 -0.58197775143E+02  0.13225545453E+03  0.78801613741E+02 0.  0.
          5    1    3    3  501    0  0.13148535869E+02 -0.38939087141E+02  0.24647212242E+02  0.48153001715E+02  0.47000000000E+01 0. -1.
        -11    1    4    4    0    0 -0.42912021560E+02  0.10904966207E+02  0.31760569652E+02  0.54489390408E+02  0.00000000000E+00 0.  1.
         12    1    4    4    0    0 -0.28527011524E+02  0.97811540457E+02  0.60621576103E+01  0.10206682903E+03  0.00000000000E+00 0. -1.
         -5    1    5    5    0  502  0.84171065642E+01  0.37581147301E+01  0.58020711335E+02  0.58936101441E+02  0.47000000000E+01 0.  1.
         11    1    6    6    0    0  0.34568120314E+02 -0.85397017335E+02 -0.27830656693E+02  0.96240069429E+02  0.00000000000E+00 0. -1.
        -12    1    6    6    0    0  0.15305270337E+02  0.11861483081E+02 -0.30367118450E+02  0.36015385100E+02  0.00000000000E+00 0.  1.
</event>
<event>
12    1  0.9966151E-001  0.3551143E+03  0.7818608E-02  0.1061202E+00
         21   -1    0    0  503  502  0.00000000000E+00  0.00000000000E+00  0.15062868933E+04  0.15062868933E+04  0.00000000000E+00 0. -1.
         21   -1    0    0  501  503 -0.00000000000E+00 -0.00000000000E+00 -0.12883552514E+03  0.12883552514E+03  0.00000000000E+00 0. -1.
          6    2    1    2  501    0  0.25048520266E+03  0.18290750536E+03  0.11847717077E+04  0.12368468635E+04  0.17293979345E+03 0.  0.
         24    2    3    3    0    0  0.57235546312E+02  0.91575866745E+02  0.33919918554E+03  0.36466461300E+03  0.79133718289E+02 0.  0.
         -6    2    1    2    0  502 -0.25048520266E+03 -0.18290750536E+03  0.19267966047E+03  0.39827555493E+03  0.15905965495E+03 0.  0.
        -24    2    5    5    0    0 -0.82936147866E+02 -0.12425138755E+03  0.11163564866E+03  0.20307451045E+03  0.80373669886E+02 0.  0.
          5    1    3    3  501    0  0.19324965634E+03  0.91331638611E+02  0.84557252216E+03  0.87218225052E+03  0.47000000000E+01 0. -1.
        -11    1    4    4    0    0  0.10749306484E+01  0.17536024795E+02  0.17589763034E+03  0.17677285991E+03  0.00000000000E+00 0.  1.
         12    1    4    4    0    0  0.56160615664E+02  0.74039841950E+02  0.16330155520E+03  0.18789175309E+03  0.00000000000E+00 0. -1.
         -5    1    5    5    0  502 -0.16754905479E+03 -0.58656117804E+02  0.81044011812E+02  0.19520104448E+03  0.47000000000E+01 0.  1.
         13    1    6    6    0    0 -0.54070227498E+01 -0.16824106404E+02  0.57161162273E+02  0.59830468189E+02  0.00000000000E+00 0. -1.
        -14    1    6    6    0    0 -0.77529125116E+02 -0.10742728115E+03  0.54474486390E+02  0.14324404226E+03  0.00000000000E+00 0.  1.
</event>
<event>
12    1  0.9966151E-001  0.2257855E+03  0.7818608E-02  0.1129765E+00
         21   -1    0    0  501  502  0.00000000000E+00  0.00000000000E+00  0.44408853570E+03  0.44408853570E+03  0.00000000000E+00 0. -1.
         21   -1    0    0  502  503 -0.00000000000E+00 -0.00000000000E+00 -0.13657034274E+03  0.13657034274E+03  0.00000000000E+00 0. -1.
         -6    2    1    2    0  503 -0.18884295084E+02 -0.14519660638E+03  0.27080132378E+03  0.35257972893E+03  0.17187331726E+03 0.  0.
        -24    2    3    3    0    0  0.25971422868E+01 -0.80715044913E+00  0.11439420123E+03  0.13858195997E+03  0.78176273344E+02 0.  0.
          6    2    1    2  501    0  0.18884295084E+02  0.14519660638E+03  0.36716869176E+02  0.22807914951E+03  0.17097748054E+03 0.  0.
         24    2    5    5    0    0 -0.43878797533E+02  0.12759149147E+03  0.95198027654E+01  0.15729132367E+03  0.80280734217E+02 0.  0.
          5    1    5    5  501    0  0.62763092617E+02  0.17605114906E+02  0.27197066411E+02  0.70787825839E+02  0.47000000000E+01 0. -1.
        -13    1    6    6    0    0  0.61135361392E+01  0.73048167585E+02  0.31970821152E+02  0.79972142130E+02  0.00000000000E+00 0.  1.
         14    1    6    6    0    0 -0.49992333672E+02  0.54543323889E+02 -0.22451018387E+02  0.77319181536E+02  0.00000000000E+00 0. -1.
         -5    1    3    3    0  503 -0.21481437371E+02 -0.14438945593E+03  0.15640712255E+03  0.21399776896E+03  0.47000000000E+01 0.  1.
         13    1    4    4    0    0 -0.16999288327E+02 -0.89533435706E+01  0.11573362617E+03  0.11731756216E+03  0.00000000000E+00 0. -1.
        -14    1    4    4    0    0  0.19596430614E+02  0.81461931214E+01 -0.13394249363E+01  0.21264397813E+02  0.00000000000E+00 0.  1.
</event>
<event>
12    1  0.9966151E-001  0.2349580E+03  0.7818608E-02  0.1124228E+00
         21   -1    0    0  503  502  0.00000000000E+00  0.00000000000E+00  0.11472494590E+04  0.11472494590E+04  0.00000000000E+00 0. -1.
         21   -1    0    0  501  503 -0.00000000000E+00 -0.00000000000E+00 -0.47237514133E+02  0.47237514133E+02  0.00000000000E+00 0. -1.
          6    2    1    2  501    0  0.15348749777E+03  0.13609445297E+02  0.49343665883E+03  0.54399574752E+03  0.16943437689E+03 0.  0.
         24    2    3    3    0    0  0.74515991005E+02  0.23309889280E+02  0.12943150973E+03  0.17136666108E+03  0.80734335719E+02 0.  0.
         -6    2    1    2    0  502 -0.15348749777E+03 -0.13609445297E+02  0.60657528607E+03  0.65049122565E+03  0.17737425968E+03 0.  0.
        -24    2    5    5    0    0 -0.16062778203E+02 -0.38234046595E+02  0.37112701327E+03  0.37672142508E+03  0.49637858268E+02 0.  0.
          5    1    3    3  501    0  0.78971506761E+02 -0.97004439825E+01  0.36400514909E+03  0.37262908644E+03  0.47000000000E+01 0. -1.
        -11    1    4    4    0    0  0.49668465377E+02  0.49941416874E+01  0.13127231469E+03  0.14044329285E+03  0.00000000000E+00 0.  1.
         12    1    4    4    0    0  0.24847525628E+02  0.18315747593E+02 -0.18408049518E+01  0.30923368228E+02  0.00000000000E+00 0. -1.
         -5    1    5    5    0  502 -0.13742471956E+03  0.24624601298E+02  0.23544827280E+03  0.27376980056E+03  0.47000000000E+01 0.  1.
         13    1    6    6    0    0  0.10836166965E+02 -0.91197564013E+01  0.22088134431E+03  0.22133495145E+03  0.00000000000E+00 0. -1.
        -14    1    6    6    0    0 -0.26898945168E+02 -0.29114290194E+02  0.15024566897E+03  0.15538647363E+03  0.00000000000E+00 0.  1.
</event>
<event>
12    1  0.9966151E-001  0.1956221E+03  0.7818608E-02  0.1153848E+00
         21   -1    0    0  503  502  0.00000000000E+00  0.00000000000E+00  0.14360396757E+03  0.14360396757E+03  0.00000000000E+00 0. -1.
         21   -1    0    0  501  503 -0.00000000000E+00 -0.00000000000E+00 -0.28109610806E+03  0.28109610806E+03  0.00000000000E+00 0. -1.
          6    2    1    2  501    0  0.65428870951E+02  0.64633471641E+02 -0.12104112739E+03  0.23004119498E+03  0.17265449330E+03 0.  0.
         24    2    3    3    0    0  0.84689213330E+02  0.71743552547E+02 -0.14348946331E+03  0.19925919010E+03  0.82435420610E+02 0.  0.
         -6    2    1    2    0  502 -0.65428870951E+02 -0.64633471641E+02 -0.16451013098E+02  0.19465888064E+03  0.17077183951E+03 0.  0.
        -24    2    5    5    0    0 -0.67355252773E+02  0.18232293064E+02 -0.30034212646E+02  0.11053374042E+03  0.80290144205E+02 0.  0.
          5    1    3    3  501    0 -0.19260342378E+02 -0.71100809065E+01  0.22448335918E+02  0.30782004881E+02  0.47000000000E+01 0. -1.
        -11    1    4    4    0    0  0.46547736185E+02  0.32697476026E+02 -0.13775206717E+02  0.58528394840E+02  0.00000000000E+00 0.  1.
         12    1    4    4    0    0  0.38141477145E+02  0.39046076521E+02 -0.12971425659E+03  0.14073079526E+03  0.00000000000E+00 0. -1.
         -5    1    5    5    0  502  0.19263818213E+01 -0.82865764704E+02  0.13583199548E+02  0.84125140219E+02  0.47000000000E+01 0.  1.
         11    1    6    6    0    0 -0.18724177889E+02  0.18907913165E+02  0.25401084473E+02  0.36787485784E+02  0.00000000000E+00 0. -1.
        -12    1    6    6    0    0 -0.48631074884E+02 -0.67562010180E+00 -0.55435297118E+02  0.73746254640E+02  0.00000000000E+00 0.  1.
</event>
<event>
12    1  0.9966151E-001  0.1884024E+03  0.7818608E-02  0.1160090E+00
         21   -1    0    0  501  502  0.00000000000E+00  0.00000000000E+00  0.66243184990E+03  0.66243184990E+03  0.00000000000E+00 0.  1.
         21   -1    0    0  502  503 -0.00000000000E+00 -0.00000000000E+00 -0.60294782831E+02  0.60294782831E+02  0.00000000000E+00 0.  1.
         -6    2    1    2    0  503  0.69081222095E+02 -0.26972428063E+02  0.42417691209E+03  0.46413523824E+03  0.17319278135E+03 0.  0.
        -24    2    3    3    0    0  0.68766912207E+01  0.43367729848E+02  0.22221598745E+03  0.24136305291E+03  0.83355439893E+02 0.  0.
          6    2    1    2  501    0 -0.69081222095E+02  0.26972428063E+02  0.17796015499E+03  0.25859139449E+03  0.17233677907E+03 0.  0.
         24    2    5    5    0    0 -0.11097505007E+03  0.11135254608E+02  0.16043631381E+03  0.21026868870E+03  0.77676605394E+02 0.  0.
          5    1    5    5  501    0  0.41893827975E+02  0.15837173455E+02  0.17523841176E+02  0.48322705791E+02  0.47000000000E+01 0. -1.
        -13    1    6    6    0    0 -0.78242429222E+02  0.52427437429E+01  0.45598160602E+02  0.90711390369E+02  0.00000000000E+00 0.  1.
         14    1    6    6    0    0 -0.32732620848E+02  0.58925108648E+01  0.11483815321E+03  0.11955729833E+03  0.00000000000E+00 0. -1.
         -5    1    3    3    0  503  0.62204530875E+02 -0.70340157911E+02  0.20196092464E+03  0.22277218533E+03  0.47000000000E+01 0.  1.
         11    1    4    4    0    0  0.16827778417E+02 -0.18601400552E+02  0.29703257273E+02  0.38877624948E+02  0.00000000000E+00 0. -1.
        -12    1    4    4    0    0 -0.99510871966E+01  0.61969130400E+02  0.19251273017E+03  0.20248542796E+03  0.00000000000E+00 0.  1.
</event>
<event>
12    1  0.9966151E-001  0.2490176E+03  0.7818608E-02  0.1114772E+00
         21   -1    0    0  503  502  0.00000000000E+00  0.00000000000E+00  0.15347897351E+03  0.15347897351E+03  0.00000000000E+00 0. -1.
         21   -1    0    0  501  503 -0.00000000000E+00 -0.00000000000E+00 -0.54071558491E+03  0.54071558491E+03  0.00000000000E+00 0.  1.
          6    2    1    2  501    0  0.16075408856E+03 -0.82718010023E+02 -0.15286038227E+02  0.24948628551E+03  0.17124718253E+03 0.  0.
         24    2    3    3    0    0  0.17263175411E+03 -0.46924422882E+02  0.20660655662E+02  0.19717457916E+03  0.80295255068E+02 0.  0.
         -6    2    1    2    0  502 -0.16075408856E+03  0.82718010023E+02 -0.37195057318E+03  0.44470827291E+03  0.16350557462E+03 0.  0.
        -24    2    5    5    0    0 -0.15514699835E+03  0.18414287118E+02 -0.23420957018E+03  0.29252061853E+03  0.79400959884E+02 0.  0.
          5    1    3    3  501    0 -0.11877665551E+02 -0.35793587141E+02 -0.35946693889E+02  0.52311706347E+02  0.47000000000E+01 0. -1.
        -11    1    4    4    0    0  0.14558823288E+02  0.19331232519E+02  0.72064895165E+01  0.25250532220E+02  0.00000000000E+00 0.  1.
         12    1    4    4    0    0  0.15807293082E+03 -0.66255655401E+02  0.13454166146E+02  0.17192404694E+03  0.00000000000E+00 0. -1.
         -5    1    5    5    0  502 -0.56070902117E+01  0.64303722904E+02 -0.13774100300E+03  0.15218765438E+03  0.47000000000E+01 0.  1.
         13    1    6    6    0    0 -0.11551678637E+03  0.33031988206E+02 -0.21461485531E+03  0.24595685861E+03  0.00000000000E+00 0. -1.
        -14    1    6    6    0    0 -0.39630211977E+02 -0.14617701088E+02 -0.19594714875E+02  0.46563759915E+02  0.00000000000E+00 0.  1.
</event>
<event>
12    1  0.9966151E-001  0.3108138E+03  0.7818608E-02  0.1079981E+00
         21   -1    0    0  501  502  0.00000000000E+00  0.00000000000E+00  0.31539962859E+03  0.31539962859E+03  0.00000000000E+00 0.  1.
         21   -1    0    0  502  503 -0.00000000000E+00 -0.00000000000E+00 -0.49196672651E+03  0.49196672651E+03  0.00000000000E+00 0.  1.
         -6    2    1    2    0  503  0.23658469941E+03 -0.10406973323E+03 -0.33639821888E+03  0.45786501044E+03  0.17226078122E+03 0.  0.
        -24    2    3    3    0    0  0.15176184278E+03 -0.12752854294E+03 -0.27959564316E+03  0.35301342309E+03  0.84555112340E+02 0.  0.
          6    2    1    2  501    0 -0.23658469941E+03  0.10406973323E+03  0.15983112096E+03  0.34950134466E+03  0.17263363902E+03 0.  0.
         24    2    5    5    0    0 -0.83082599367E+02 -0.10061562725E+02  0.86511340280E+02  0.14459471306E+03  0.80121568168E+02 0.  0.
          5    1    5    5  501    0 -0.15350210005E+03  0.11413129596E+03  0.73319780683E+02  0.20490663160E+03  0.47000000000E+01 0. -1.
        -11    1    6    6    0    0  0.15081135340E+02  0.44396179551E+00  0.32177796608E+01  0.15426984513E+02  0.00000000000E+00 0.  1.
         12    1    6    6    0    0 -0.98163734708E+02 -0.10505524521E+02  0.83293560619E+02  0.12916772855E+03  0.00000000000E+00 0. -1.
         -5    1    3    3    0  503  0.84822856631E+02  0.23458809707E+02 -0.56802575728E+02  0.10485158735E+03  0.47000000000E+01 0.  1.
         11    1    4    4    0    0  0.70446847501E+02 -0.15549477686E+02 -0.13371385124E+03  0.15193399420E+03  0.00000000000E+00 0. -1.
        -12    1    4    4    0    0  0.81314995283E+02 -0.11197906525E+03 -0.14588179191E+03  0.20107942889E+03  0.00000000000E+00 0.  1.
</event>
<event>
12    1  0.9966151E-001  0.2157805E+03  0.7818608E-02  0.1137876E+00
         21   -1    0    0  501  502  0.00000000000E+00  0.00000000000E+00  0.62381970915E+02  0.62381970915E+02  0.00000000000E+00 0.  1.
         21   -1    0    0  502  503 -0.00000000000E+00 -0.00000000000E+00 -0.87705977038E+03  0.87705977038E+03  0.00000000000E+00 0.  1.
         -6    2    1    2    0  503  0.10827215691E+02  0.12203298937E+03 -0.21299342634E+03  0.30023496007E+03  0.17252696164E+03 0.  0.
        -24    2    3    3    0    0 -0.33325277287E+02  0.12852336758E+03 -0.11606903817E+03  0.19342674566E+03  0.79454730455E+02 0.  0.
          6    2    1    2  501    0 -0.10827215691E+02 -0.12203298937E+03 -0.60168437313E+03  0.63920678123E+03  0.17762867225E+03 0.  0.
         24    2    5    5    0    0 -0.25189614212E+02 -0.43428941431E+02 -0.50467100062E+03  0.51343492711E+03  0.80012598317E+02 0.  0.
          5    1    5    5  501    0  0.14362398520E+02 -0.78604047935E+02 -0.97013372507E+02  0.12577185412E+03  0.47000000000E+01 0. -1.
        -13    1    6    6    0    0  0.10317926715E+02  0.19433119851E+02 -0.13474147434E+03  0.13652608054E+03  0.00000000000E+00 0.  1.
         14    1    6    6    0    0 -0.35507540926E+02 -0.62862061282E+02 -0.36992952628E+03  0.37690884657E+03  0.00000000000E+00 0. -1.
         -5    1    3    3    0  503  0.44152492978E+02 -0.64903782155E+01 -0.96924388165E+02  0.10680821442E+03  0.47000000000E+01 0.  1.
         13    1    4    4    0    0  0.14137321001E+02  0.96227306024E+02 -0.75640017788E+02  0.12321108132E+03  0.00000000000E+00 0. -1.
        -14    1    4    4    0    0 -0.47462598288E+02  0.32296061558E+02 -0.40429020386E+02  0.70215664333E+02  0.00000000000E+00 0.  1.
</event>
<event>
12    1  0.9966151E-001  0.3402830E+03  0.7818608E-02  0.1066712E+00
         21   -1    0    0  503  502  0.00000000000E+00  0.00000000000E+00  0.12856417936E+04  0.12856417936E+04  0.00000000000E+00 0. -1.
         21   -1    0    0  501  503 -0.00000000000E+00 -0.00000000000E+00 -0.25340949939E+03  0.25340949939E+03  0.00000000000E+00 0. -1.
          6    2    1    2  501    0  0.24081286128E+03  0.16633772002E+03  0.11340166308E+04  0.11838716906E+04  0.17291440007E+03 0.  0.
         24    2    3    3    0    0  0.34013514216E+02  0.73242610419E+02  0.43479970712E+03  0.44878049513E+03  0.76365884854E+02 0.  0.
         -6    2    1    2    0  502 -0.24081286128E+03 -0.16633772002E+03 -0.10178433654E+03  0.35517960237E+03  0.17358982549E+03 0.  0.
        -24    2    5    5    0    0 -0.81301067578E+02 -0.73737338354E+02  0.17401176728E+02  0.13552960899E+03  0.77578446142E+02 0.  0.
          5    1    3    3  501    0  0.20679934707E+03  0.93095109604E+02  0.69921692367E+03  0.73509119552E+03  0.47000000000E+01 0. -1.
        -13    1    4    4    0    0  0.18728789710E+02  0.52401874170E+02  0.40713938907E+03  0.41092481808E+03  0.00000000000E+00 0.  1.
         14    1    4    4    0    0  0.15284724506E+02  0.20840736248E+02  0.27660318050E+02  0.37855677054E+02  0.00000000000E+00 0. -1.
         -5    1    5    5    0  502 -0.15951179371E+03 -0.92600381668E+02 -0.11918551327E+03  0.21964999338E+03  0.47000000000E+01 0.  1.
         13    1    6    6    0    0 -0.23465501203E+02  0.13262132616E+02 -0.78072060378E+01  0.28061831272E+02  0.00000000000E+00 0. -1.
        -14    1    6    6    0    0 -0.57835566375E+02 -0.86999470970E+02  0.25208382766E+02  0.10746777772E+03  0.00000000000E+00 0.  1.
</event>
<event>
12    1  0.9966151E-001  0.2511511E+03  0.7818608E-02  0.1112641E+00
         21   -1    0    0  503  502  0.00000000000E+00  0.00000000000E+00  0.83556631131E+03  0.83556631131E+03  0.00000000000E+00 0.  1.
         21   -1    0    0  501  503 -0.00000000000E+00 -0.00000000000E+00 -0.75405560039E+02  0.75405560039E+02  0.00000000000E+00 0.  1.
          6    2    1    2  501    0  0.70950422304E+02 -0.16834756542E+03  0.38922864325E+03  0.46301258275E+03  0.17177557988E+03 0.  0.
         24    2    3    3    0    0  0.51605632810E+02 -0.55440444089E+02  0.92031795506E+02  0.14446855873E+03  0.81636565936E+02 0.  0.
         -6    2    1    2    0  502 -0.70950422304E+02  0.16834756542E+03  0.37093210802E+03  0.44795928860E+03  0.17234276973E+03 0.  0.
        -24    2    5    5    0    0 -0.26951387403E+02  0.16020776074E+03  0.19288517344E+03  0.26431568701E+03  0.79152942982E+02 0.  0.
          5    1    3    3  501    0  0.19344789494E+02 -0.11290712133E+03  0.29719684775E+03  0.31854402402E+03  0.47000000000E+01 0. -1.
        -13    1    4    4    0    0 -0.86723126672E+01 -0.48452910830E+02  0.52926412986E+02  0.72277927242E+02  0.00000000000E+00 0.  1.
         14    1    4    4    0    0  0.60277945478E+02 -0.69875332595E+01  0.39105382520E+02  0.72190631484E+02  0.00000000000E+00 0. -1.
         -5    1    5    5    0  502 -0.43999034902E+02  0.81398046821E+01  0.17804693458E+03  0.18364360159E+03  0.47000000000E+01 0.  1.
         11    1    6    6    0    0 -0.42325684380E+02  0.11785147278E+03  0.97088851573E+02  0.15845087028E+03  0.00000000000E+00 0. -1.
        -12    1    6    6    0    0  0.15374296977E+02  0.42356287965E+02  0.95796321867E+02  0.10586481673E+03  0.00000000000E+00 0.  1.
</event>
<event>
12    1  0.9966151E-001  0.3442446E+03  0.7818608E-02  0.1065003E+00
         21   -1    0    0  501  502  0.00000000000E+00  0.00000000000E+00  0.50411882430E+03  0.50411882430E+03  0.00000000000E+00 0.  1.
         21   -1    0    0  502  503 -0.00000000000E+00 -0.00000000000E+00 -0.31064368944E+03  0.31064368944E+03  0.00000000000E+00 0.  1.
         -6    2    1    2    0  503 -0.25874886301E+03  0.14747973790E+03 -0.10420181501E+03  0.35966976915E+03  0.17263567819E+03 0.  0.
        -24    2    3    3    0    0 -0.19583093213E+03  0.43312489267E+02 -0.34068080661E+02  0.21913396443E+03  0.81445285550E+02 0.  0.
          6    2    1    2  501    0  0.25874886301E+03 -0.14747973790E+03  0.29767694986E+03  0.45509274459E+03  0.17261689517E+03 0.  0.
         24    2    5    5    0    0  0.10549900087E+03 -0.82187760150E+01  0.10538386864E+03  0.17246603877E+03  0.86262316792E+02 0.  0.
          5    1    5    5  501    0  0.15324986214E+03 -0.13926096189E+03  0.19229308123E+03  0.28262670582E+03  0.47000000000E+01 0. -1.
        -13    1    6    6    0    0  0.11239714423E+03  0.96517643362E+00  0.11243914011E+03  0.15898619382E+03  0.00000000000E+00 0.  1.
         14    1    6    6    0    0 -0.68981433637E+01 -0.91839524486E+01 -0.70552714723E+01  0.13479844954E+02  0.00000000000E+00 0. -1.
         -5    1    3    3    0  503 -0.62917930876E+02  0.10416724864E+03 -0.70133734349E+02  0.14053580472E+03  0.47000000000E+01 0.  1.
         11    1    4    4    0    0 -0.91617597880E+02  0.57618229290E+02 -0.35593720003E+02  0.11393224957E+03  0.00000000000E+00 0. -1.
        -12    1    4    4    0    0 -0.10421333425E+03 -0.14305740023E+02  0.15256393415E+01  0.10520171486E+03  0.00000000000E+00 0.  1.
</event>
<event>
12    1  0.9966151E-001  0.1966795E+03  0.7818608E-02  0.1153144E+00
         21   -1    0    0  503  502  0.00000000000E+00  0.00000000000E+00  0.41812904393E+03  0.41812904393E+03  0.00000000000E+00 0.  1.
         21   -1    0    0  501  503 -0.00000000000E+00 -0.00000000000E+00 -0.14941519185E+03  0.14941519185E+03  0.00000000000E+00 0.  1.
          6    2    1    2  501    0  0.78581644275E+02 -0.35625892502E+02  0.31081118184E+03  0.36640988648E+03  0.17380545193E+03 0.  0.
         24    2    3    3    0    0  0.11320219791E+03  0.32198251872E+00  0.26357544313E+03  0.29753218716E+03  0.78984472452E+02 0.  0.
         -6    2    1    2    0  502 -0.78581644275E+02  0.35625892502E+02 -0.42097329759E+02  0.20113434929E+03  0.17674434152E+03 0.  0.
        -24    2    5    5    0    0 -0.10759891226E+03  0.23985069766E+02 -0.73190285549E+02  0.15679055046E+03  0.84104989890E+02 0.  0.
          5    1    3    3  501    0 -0.34620553636E+02 -0.35947875021E+02  0.47235738714E+02  0.68877699326E+02  0.47000000000E+01 0. -1.
        -11    1    4    4    0    0  0.51414220535E+02  0.38243450805E+02  0.14536885218E+03  0.15886499548E+03  0.00000000000E+00 0.  1.
         12    1    4    4    0    0  0.61787977376E+02 -0.37921468286E+02  0.11820659094E+03  0.13866719168E+03  0.00000000000E+00 0. -1.
         -5    1    5    5    0  502  0.29017267982E+02  0.11640822736E+02  0.31092955791E+02  0.44343798833E+02  0.47000000000E+01 0.  1.
         11    1    6    6    0    0 -0.49647631969E+02 -0.31026586670E+02 -0.35232632828E+02  0.68329165490E+02  0.00000000000E+00 0. -1.
        -12    1    6    6    0    0 -0.57951280288E+02  0.55011656436E+02 -0.37957652722E+02  0.88461384971E+02  0.00000000000E+00 0.  1.
</event>
<event>
12    1  0.9966151E-001  0.2226210E+03  0.7818608E-02  0.1132158E+00
         21   -1    0    0  503  502  0.00000000000E+00  0.00000000000E+00  0.11748572769E+04  0.11748572769E+04  0.00000000000E+00 0. -1.
         21   -1    0    0  501  503 -0.00000000000E+00 -0.00000000000E+00 -0.66110174288E+02  0.66110174288E+02  0.00000000000E+00 0. -1.
          6    2    1    2  501    0  0.10532212864E+03 -0.94813454568E+02  0.92844428488E+03  0.95449023688E+03  0.17017779004E+03 0.  0.
         24    2    3    3    0    0  0.83794709931E+02 -0.11592748754E+03  0.51849053466E+03  0.54340216911E+03  0.77412835357E+02 0.  0.
         -6    2    1    2    0  502 -0.10532212864E+03  0.94813454568E+02  0.18030281768E+03  0.28647721426E+03  0.17169084506E+03 0.  0.
        -24    2    5    5    0    0 -0.12013200656E+03  0.11913998491E+03  0.17665330389E+03  0.25738217150E+03  0.80082191698E+02 0.  0.
          5    1    3    3  501    0  0.21527418710E+02  0.21114032973E+02  0.40995375022E+03  0.41108806777E+03  0.47000000000E+01 0. -1.
        -13    1    4    4    0    0  0.36246235949E+02 -0.19038365774E+01  0.80155807273E+02  0.87990724817E+02  0.00000000000E+00 0.  1.
         14    1    4    4    0    0  0.47548473982E+02 -0.11402365096E+03  0.43833472739E+03  0.45541144429E+03  0.00000000000E+00 0. -1.
         -5    1    5    5    0  502  0.14809877920E+02 -0.24326530338E+02  0.36495137939E+01  0.29095042760E+02  0.47000000000E+01 0.  1.
         13    1    6    6    0    0 -0.19593417572E+02  0.69270050326E+02  0.91948723648E+02  0.11677675139E+03  0.00000000000E+00 0. -1.
        -14    1    6    6    0    0 -0.10053858899E+03  0.49869934580E+02  0.84704580239E+02  0.14060542011E+03  0.00000000000E+00 0.  1.
</event>
<event>
12    1  0.9966151E-001  0.2378540E+03  0.7818608E-02  0.1121438E+00
         21   -1    0    0  501  502  0.00000000000E+00  0.00000000000E+00  0.43958985382E+03  0.43958985382E+03  0.00000000000E+00 0.  1.
         21   -1    0    0  502  503 -0.00000000000E+00 -0.00000000000E+00 -0.19257422792E+03  0.19257422792E+03  0.00000000000E+00 0.  1.
         -6    2    1    2    0  503 -0.13967343153E+03 -0.85704363788E+02  0.30627927528E+03  0.38703819899E+03  0.17069759099E+03 0.  0.
        -24    2    3    3    0    0 -0.97153203196E+02 -0.56737081024E+02  0.89084903196E+02  0.16378372860E+03  0.78937624245E+02 0.  0.
          6    2    1    2  501    0  0.13967343153E+03  0.85704363788E+02 -0.59263649376E+02  0.24512588275E+03  0.17239667286E+03 0.  0.
         24    2    5    5    0    0  0.22333404908E+02 -0.84844252736E+01 -0.42949695010E+02  0.93704467695E+02  0.79781479790E+02 0.  0.
          5    1    5    5  501    0  0.11734002662E+03  0.94188789061E+02 -0.16313954365E+02  0.15142141506E+03  0.47000000000E+01 0. -1.
        -11    1    6    6    0    0 -0.28462683291E+02  0.79932308277E+01 -0.11443393865E+02  0.31701219887E+02  0.00000000000E+00 0.  1.
         12    1    6    6    0    0  0.50796088199E+02 -0.16477656101E+02 -0.31506301145E+02  0.62003247808E+02  0.00000000000E+00 0. -1.
         -5    1    3    3    0  503 -0.42520228330E+02 -0.28967282764E+02  0.21719437208E+03  0.22325447039E+03  0.47000000000E+01 0.  1.
         11    1    4    4    0    0 -0.67201457352E+02 -0.76180496618E+01  0.81261150947E+02  0.10572343735E+03  0.00000000000E+00 0. -1.
        -12    1    4    4    0    0 -0.29951745844E+02 -0.49119031362E+02  0.78237522498E+01  0.58060291252E+02  0.00000000000E+00 0.  1.
</event>
<event>
12    1  0.9966151E-001  0.2011390E+03  0.7818608E-02  0.1148850E+00
         21   -1    0    0  503  502  0.00000000000E+00  0.00000000000E+00  0.17557952369E+02  0.17557952369E+02  0.00000000000E+00 0.  1.
         21   -1    0    0  501  503 -0.00000000000E+00 -0.00000000000E+00 -0.26836626927E+04  0.26836626927E+04  0.00000000000E+00 0.  1.
          6    2    1    2  501    0 -0.13487092558E+02  0.10385138834E+03 -0.82361983514E+03  0.84782458754E+03  0.17172619453E+03 0.  0.
         24    2    3    3    0    0  0.57700846151E+02  0.46012641397E+02 -0.49231953022E+03  0.50402955368E+03  0.78871543288E+02 0.  0.
         -6    2    1    2    0  502  0.13487092558E+02 -0.10385138834E+03 -0.18424849052E+04  0.18533960575E+04  0.17134557963E+03 0.  0.
        -24    2    5    5    0    0 -0.37804573771E+02 -0.30340999889E+02 -0.12999969127E+04  0.13035325070E+04  0.82796507112E+02 0.  0.
          5    1    3    3  501    0 -0.71187938710E+02  0.57838746939E+02 -0.33130030492E+03  0.34379503386E+03  0.47000000000E+01 0. -1.
        -13    1    4    4    0    0 -0.25347874888E+01 -0.15072894739E+02 -0.28470685331E+02  0.32314040704E+02  0.00000000000E+00 0.  1.
         14    1    4    4    0    0  0.60235633640E+02  0.61085536136E+02 -0.46384884489E+03  0.47171551298E+03  0.00000000000E+00 0. -1.
         -5    1    5    5    0  502  0.51291666329E+02 -0.73510388446E+02 -0.54248799251E+03  0.54986355058E+03  0.47000000000E+01 0.  1.
         11    1    6    6    0    0 -0.58345514580E+02 -0.36182528502E+02 -0.75430068785E+03  0.75741857788E+03  0.00000000000E+00 0. -1.
        -12    1    6    6    0    0  0.20540940808E+02  0.58415286122E+01 -0.54569622486E+03  0.54611392908E+03  0.00000000000E+00 0.  1.
</event>
<event>
12    1  0.9966151E-001  0.2015869E+03  0.7818608E-02  0.1148596E+00
         21   -1    0    0  503  502  0.00000000000E+00  0.00000000000E+00  0.17109626625E+03  0.17109626625E+03  0.00000000000E+00 0. -1.
         21   -1    0    0  501  503 -0.00000000000E+00 -0.00000000000E+00 -0.39078592502E+03  0.39078592502E+03  0.00000000000E+00 0. -1.
          6    2    1    2  501    0 -0.74679540249E+02  0.72141151431E+02  0.66560167292E+02  0.21229117444E+03  0.17278862062E+03 0.  0.
         24    2    3    3    0    0  0.13753159702E+02 -0.36537485725E+01  0.63022960389E+01  0.81072615026E+02  0.79564757848E+02 0.  0.
         -6    2    1    2    0  502  0.74679540249E+02 -0.72141151431E+02 -0.28624982605E+03  0.34959101683E+03  0.17173682386E+03 0.  0.
        -24    2    5    5    0    0 -0.23397525651E+01 -0.90722875267E+02 -0.16706027820E+03  0.20639363471E+03  0.80331073441E+02 0.  0.
          5    1    3    3  501    0 -0.88432699951E+02  0.75794900003E+02  0.60257871253E+02  0.13121855942E+03  0.47000000000E+01 0. -1.
        -13    1    4    4    0    0 -0.80102613294E+01  0.33446200349E+02 -0.87758817873E+01  0.35494065779E+02  0.00000000000E+00 0.  1.
         14    1    4    4    0    0  0.21763421031E+02 -0.37099948922E+02  0.15078177826E+02  0.45578549248E+02  0.00000000000E+00 0. -1.
         -5    1    5    5    0  502  0.77019292814E+02  0.18581723836E+02 -0.11918954786E+03  0.14319738212E+03  0.47000000000E+01 0.  1.
         13    1    6    6    0    0  0.11905943656E+02  0.11827561661E+02 -0.15498853492E+02  0.22844193327E+02  0.00000000000E+00 0. -1.
        -14    1    6    6    0    0 -0.14245696221E+02 -0.10255043693E+03 -0.15156142470E+03  0.18354944139E+03  0.00000000000E+00 0.  1.
</event>
<event>
12    1  0.9966151E-001  0.2507660E+03  0.7818608E-02  0.1113058E+00
         21   -1    0    0  501  502  0.00000000000E+00  0.00000000000E+00  0.37954064409E+03  0.37954064409E+03  0.00000000000E+00 0. -1.
         21   -1    0    0  502  503 -0.00000000000E+00 -0.00000000000E+00 -0.27308796268E+03  0.27308796268E+03  0.00000000000E+00 0. -1.
         -6    2    1    2    0  503 -0.17245104195E+03 -0.57820698629E+02  0.25890331513E+03  0.36043655548E+03  0.17262962921E+03 0.  0.
        -24    2    3    3    0    0 -0.14569061748E+03 -0.10459564187E+03  0.20463099108E+03  0.28381024935E+03  0.80674722216E+02 0.  0.
          6    2    1    2  501    0  0.17245104195E+03  0.57820698629E+02 -0.15245063372E+03  0.29219205128E+03  0.17044765781E+03 0.  0.
         24    2    5    5    0    0  0.40343069087E+02  0.69883064146E+02 -0.86433627716E+02  0.14394107410E+03  0.82079564654E+02 0.  0.
          5    1    5    5  501    0  0.13210797286E+03 -0.12062365517E+02 -0.66017006008E+02  0.14825097719E+03  0.47000000000E+01 0. -1.
        -11    1    6    6    0    0  0.53052238695E+02  0.54435922079E+02 -0.26084274894E+02  0.80362920802E+02  0.00000000000E+00 0.  1.
         12    1    6    6    0    0 -0.12709169608E+02  0.15447142067E+02 -0.60349352822E+02  0.63578153293E+02  0.00000000000E+00 0. -1.
         -5    1    3    3    0  503 -0.26760424472E+02  0.46774943245E+02  0.54272324051E+02  0.76626306131E+02  0.47000000000E+01 0.  1.
         11    1    4    4    0    0  0.79540436638E+01 -0.14948933222E+02  0.30486097934E+02  0.34873192890E+02  0.00000000000E+00 0. -1.
        -12    1    4    4    0    0 -0.15364466114E+03 -0.89646708652E+02  0.17414489315E+03  0.24893705646E+03  0.00000000000E+00 0.  1.
</event>
<event>
12    1  0.9966151E-001  0.2083019E+03  0.7818608E-02  0.1142989E+00
         21   -1    0    0  501  502  0.00000000000E+00  0.00000000000E+00  0.20902859469E+04  0.20902859469E+04  0.00000000000E+00 0.  1.
         21   -1    0    0  502  503 -0.00000000000E+00 -0.00000000000E+00 -0.21700180035E+02  0.21700180035E+02  0.00000000000E+00 0.  1.
         -6    2    1    2    0  503  0.11146723375E+03 -0.24586802355E+02  0.80929012336E+03  0.83557898515E+03  0.17381680469E+03 0.  0.
        -24    2    3    3    0    0 -0.45640623511E+00 -0.48072688152E+02  0.35641176440E+03  0.36846081376E+03  0.80142584326E+02 0.  0.
          6    2    1    2  501    0 -0.11146723375E+03  0.24586802355E+02  0.12592956435E+04  0.12764071418E+04  0.17424184003E+03 0.  0.
         24    2    5    5    0    0 -0.11910801696E+02  0.56912036629E+02  0.49582079480E+03  0.50577601178E+03  0.81180455947E+02 0.  0.
          5    1    5    5  501    0 -0.99556432057E+02 -0.32325234274E+02  0.76347484873E+03  0.77063113003E+03  0.47000000000E+01 0. -1.
        -13    1    6    6    0    0 -0.34284647553E+02  0.59927125563E+02  0.44278187770E+03  0.44813222229E+03  0.00000000000E+00 0.  1.
         14    1    6    6    0    0  0.22373845857E+02 -0.30150889334E+01  0.53038917095E+02  0.57643789486E+02  0.00000000000E+00 0. -1.
         -5    1    3    3    0  503  0.11192363999E+03  0.23485885797E+02  0.45287835896E+03  0.46711817138E+03  0.47000000000E+01 0.  1.
         13    1    4    4    0    0 -0.89344416498E+00  0.21413621710E+02  0.12561837985E+03  0.12743358581E+03  0.00000000000E+00 0. -1.
        -14    1    4    4    0    0  0.43703792986E+00 -0.69486309862E+02  0.23079338455E+03  0.24102722795E+03  0.00000000000E+00 0.  1.
</event>
<event>
12    1  0.9966151E-001  0.3679710E+03  0.7818608E-02  0.1055736E+00
         21   -1    0    0  503  502  0.00000000000E+00  0.00000000000E+00  0.10689389267E+04  0.10689389267E+04  0.00000000000E+00 0. -1.
         21   -1    0    0  501  503 -0.00000000000E+00 -0.00000000000E+00 -0.12816832316E+03  0.12816832316E+03  0.00000000000E+00 0. -1.
          6    2    1    2  501    0  0.16339246108E+03 -0.28092357362E+03  0.55467166704E+03  0.66563002753E+03  0.17259062771E+03 0.  0.
         24    2    3    3    0    0  0.83522803947E+02 -0.25415830484E+03  0.38850245080E+03  0.47927058943E+03  0.84815334169E+02 0.  0.
         -6    2    1    2    0  502 -0.16339246108E+03  0.28092357362E+03  0.38609893655E+03  0.53147722238E+03  0.16667482880E+03 0.  0.
        -24    2    5    5    0    0 -0.15997926637E+02  0.63836995161E+02  0.12129624273E+03  0.15865784523E+03  0.78284339071E+02 0.  0.
          5    1    3    3  501    0  0.79869657133E+02 -0.26765268775E+02  0.16616921624E+03  0.18635943810E+03  0.47000000000E+01 0.  1.
        -11    1    4    4    0    0  0.10754619787E+02 -0.13787420077E+03  0.24085663182E+03  0.27773525915E+03  0.00000000000E+00 0.  1.
         12    1    4    4    0    0  0.72768184160E+02 -0.11628410407E+03  0.14764581898E+03  0.20153533027E+03  0.00000000000E+00 0. -1.
         -5    1    5    5    0  502 -0.14739453444E+03  0.21708657846E+03  0.26480269381E+03  0.37281937715E+03  0.47000000000E+01 0.  1.
         11    1    6    6    0    0  0.22573030347E+01  0.71739135662E+01 -0.11149137589E+02  0.13448558355E+02  0.00000000000E+00 0. -1.
        -12    1    6    6    0    0 -0.18255229671E+02  0.56663081594E+02  0.13244538032E+03  0.14520928687E+03  0.00000000000E+00 0.  1.
</event>
<event>
12    1  0.9966151E-001  0.2093367E+03  0.7818608E-02  0.1143219E+00
         21   -1    0    0  501  502  0.00000000000E+00  0.00000000000E+00  0.33122452630E+02  0.33122452630E+02  0.00000000000E+00 0. -1.
         21   -1    0    0  502  503 -0.00000000000E+00 -0.00000000000E+00 -0.14166443005E+04  0.14166443005E+04  0.00000000000E+00 0. -1.
         -6    2    1    2    0  503 -0.34939144731E+02 -0.11389566243E+03 -0.90172322537E+03  0.92445563459E+03  0.16528907826E+03 0.  0.
        -24    2    3    3    0    0 -0.52668583537E+02 -0.14101097645E+03 -0.79174156331E+03  0.80970534376E+03  0.78166268151E+02 0.  0.
          6    2    1    2  501    0  0.34939144731E+02  0.11389566243E+03 -0.48179862254E+03  0.52531111858E+03  0.17213045306E+03 0.  0.
         24    2    5    5    0    0 -0.39274245417E+02  0.63741821333E+02 -0.16883427983E+03  0.19974729249E+03  0.76082065366E+02 0.  0.
          5    1    5    5  501    0  0.74213390148E+02  0.50153841101E+02 -0.31296434271E+03  0.32556382610E+03  0.47000000000E+01 0. -1.
        -11    1    6    6    0    0  0.21442708745E+02  0.21958813650E+02 -0.70207515384E+02  0.76622936981E+02  0.00000000000E+00 0.  1.
         12    1    6    6    0    0 -0.60716954162E+02  0.41783007683E+02 -0.98626764445E+02  0.12312435551E+03  0.00000000000E+00 0. -1.
         -5    1    3    3    0  503  0.17729438806E+02  0.27115314015E+02 -0.10998166206E+03  0.11475029082E+03  0.47000000000E+01 0.  1.
         13    1    4    4    0    0 -0.49591857371E+02 -0.11043225164E+03 -0.73743874809E+03  0.74730886634E+03  0.00000000000E+00 0. -1.
        -14    1    4    4    0    0 -0.30767261664E+01 -0.30578724804E+02 -0.54302815221E+02  0.62396477429E+02  0.00000000000E+00 0.  1.
</event>
<event>
12    1  0.9966151E-001  0.1787101E+03  0.7818608E-02  0.1169800E+00
         21   -1    0    0  503  502  0.00000000000E+00  0.00000000000E+00  0.80087015126E+02  0.80087015126E+02  0.00000000000E+00 0. -1.
         21   -1    0    0  501  503 -0.00000000000E+00 -0.00000000000E+00 -0.80242899396E+03  0.80242899396E+03  0.00000000000E+00 0. -1.
          6    2    1    2  501    0  0.22695419640E+02 -0.24311076612E+02 -0.44129297292E+02  0.18115324153E+03  0.17251953953E+03 0.  0.
         24    2    3    3    0    0  0.73474061783E+02  0.14165874845E+02 -0.37704484159E+02  0.11694798851E+03  0.81584889081E+02 0.  0.
         -6    2    1    2    0  502 -0.22695419640E+02  0.24311076612E+02 -0.67821268155E+03  0.70136276756E+03  0.17558809695E+03 0.  0.
        -24    2    5    5    0    0 -0.26476674975E+02  0.28924872880E+02 -0.68525280514E+03  0.69100717254E+03  0.79886437865E+02 0.  0.
          5    1    3    3  501    0 -0.50778642143E+02 -0.38476951456E+02 -0.64248131334E+01  0.64205253018E+02  0.47000000000E+01 0. -1.
        -11    1    4    4    0    0  0.27199315877E+02  0.41078608931E+02 -0.39860540124E+02  0.63372845564E+02  0.00000000000E+00 0.  1.
         12    1    4    4    0    0  0.46274745906E+02 -0.26912734086E+02  0.21560559652E+01  0.53575142948E+02  0.00000000000E+00 0. -1.
         -5    1    5    5    0  502  0.37812553348E+01 -0.46137962682E+01  0.70401235989E+01  0.10355595019E+02  0.47000000000E+01 0.  1.
         11    1    6    6    0    0 -0.11586499833E+02  0.39996570923E+02 -0.15699327050E+03  0.16242185705E+03  0.00000000000E+00 0. -1.
        -12    1    6    6    0    0 -0.14890175141E+02 -0.11071698043E+02 -0.52825953464E+03  0.52858531549E+03  0.00000000000E+00 0.  1.
</event>
<event>
12    1  0.9966151E-001  0.2074235E+03  0.7818608E-02  0.1143879E+00
         21   -1    0    0  503  502  0.00000000000E+00  0.00000000000E+00  0.43824069813E+03  0.43824069813E+03  0.00000000000E+00 0. -1.
         21   -1    0    0  501  503 -0.00000000000E+00 -0.00000000000E+00 -0.17958266286E+03  0.17958266286E+03  0.00000000000E+00 0. -1.
          6    2    1    2  501    0 -0.83955737393E+02 -0.77387413521E+02  0.33786315784E+03  0.39579187799E+03  0.17164591358E+03 0.  0.
         24    2    3    3    0    0 -0.94746464001E+02 -0.10309711231E+03  0.32799601211E+03  0.36584394054E+03  0.81575105655E+02 0.  0.
         -6    2    1    2    0  502  0.83955737393E+02  0.77387413521E+02 -0.79205122572E+02  0.22203148300E+03  0.17316798315E+03 0.  0.
        -24    2    5    5    0    0 -0.21122448433E+02  0.12049288728E+02 -0.28456043413E+02  0.88210502869E+02  0.79874922367E+02 0.  0.
          5    1    3    3  501    0  0.10790726608E+02  0.25709698791E+02  0.98671457214E+01  0.29947937447E+02  0.47000000000E+01 0. -1.
        -11    1    4    4    0    0 -0.61106403436E+02 -0.86202988243E+01  0.12947098930E+03  0.14342607561E+03  0.00000000000E+00 0.  1.
         12    1    4    4    0    0 -0.33640060565E+02 -0.94476813487E+02  0.19852502281E+03  0.22241786494E+03  0.00000000000E+00 0. -1.
         -5    1    5    5    0  502  0.10507818583E+03  0.65338124792E+02 -0.50749079160E+02  0.13382098013E+03  0.47000000000E+01 0.  1.
         13    1    6    6    0    0 -0.31257841659E+01  0.25093804994E+02 -0.50767554948E+02  0.56716965813E+02  0.00000000000E+00 0. -1.
        -14    1    6    6    0    0 -0.17996664267E+02 -0.13044516265E+02  0.22311511535E+02  0.31493537056E+02  0.00000000000E+00 0.  1.
</event>
<event>
12    1  0.9966151E-001  0.2210869E+03  0.7818608E-02  0.1135121E+00
         21   -1    0    0  503  502  0.00000000000E+00  0.00000000000E+00  0.27862955690E+03  0.27862955690E+03  0.00000000000E+00 0. -1.
         21   -1    0    0  501  503 -0.00000000000E+00 -0.00000000000E+00 -0.26698953946E+03  0.26698953946E+03  0.00000000000E+00 0. -1.
          6    2    1    2  501    0 -0.28442044208E+02  0.11926814167E+03  0.17264959595E+03  0.27211679351E+03  0.17089712354E+03 0.  0.
         24    2    3    3    0    0 -0.72931465784E+02  0.57450294057E+02  0.14737660406E+03  0.19173290810E+03  0.80138066073E+02 0.  0.
         -6    2    1    2    0  502  0.28442044208E+02 -0.11926814167E+03 -0.16100957851E+03  0.27350230285E+03  0.18397169836E+03 0.  0.
        -24    2    5    5    0    0 -0.44579404938E+02 -0.32486959769E+02 -0.11648589893E+03  0.15156972472E+03  0.79760208757E+02 0.  0.
          5    1    3    3  501    0  0.44489421576E+02  0.61817847615E+02  0.25272991890E+02  0.80383885419E+02  0.47000000000E+01 0. -1.
        -11    1    4    4    0    0 -0.66030827129E+01  0.52571235290E+02  0.87236427725E+02  0.10206630102E+03  0.00000000000E+00 0.  1.
         12    1    4    4    0    0 -0.66328383071E+02  0.48790587672E+01  0.60140176334E+02  0.89666607078E+02  0.00000000000E+00 0. -1.
         -5    1    5    5    0  502  0.73021449146E+02 -0.86781181903E+02 -0.44523679577E+02  0.12193257814E+03  0.47000000000E+01 0.  1.
         11    1    6    6    0    0 -0.22405623976E+01 -0.44741375939E+02 -0.28315397835E+02  0.52995967727E+02  0.00000000000E+00 0. -1.
        -12    1    6    6    0    0 -0.42338842540E+02  0.12254416169E+02 -0.88170501098E+02  0.98573756990E+02  0.00000000000E+00 0.  1.
</event>
<event>
12    1  0.9966151E-001  0.2230044E+03  0.7818608E-02  0.1131912E+00
         21   -1    0    0  503  502  0.00000000000E+00  0.00000000000E+00  0.36619987389E+03  0.36619987389E+03  0.00000000000E+00 0. -1.
         21   -1    0    0  501  503 -0.00000000000E+00 -0.00000000000E+00 -0.13890933567E+03  0.13890933567E+03  0.00000000000E+00 0. -1.
          6    2    1    2  501    0  0.12196772657E+03 -0.69171825757E+02  0.15579066950E+03  0.27092298854E+03  0.17166148437E+03 0.  0.
         24    2    3    3    0    0  0.56579777743E+02 -0.20246638646E+02  0.15990852559E+03  0.18901874857E+03  0.80908300749E+02 0.  0.
         -6    2    1    2    0  502 -0.12196772657E+03  0.69171825757E+02  0.71499868728E+02  0.23418622101E+03  0.17340728670E+03 0.  0.
        -24    2    5    5    0    0 -0.14569736417E+03  0.91389670873E+02  0.52976313198E+02  0.19647759532E+03  0.78848981192E+02 0.  0.
          5    1    3    3  501    0  0.65387948831E+02 -0.48925187111E+02 -0.41178560955E+01  0.81904239970E+02  0.47000000000E+01 0. -1.
        -11    1    4    4    0    0  0.29322569977E+02  0.15616204495E+02  0.13538954498E+02  0.35874534726E+02  0.00000000000E+00 0.  1.
         12    1    4    4    0    0  0.27257207766E+02 -0.35862843141E+02  0.14636957109E+03  0.15314421385E+03  0.00000000000E+00 0. -1.
         -5    1    5    5    0  502  0.23729637597E+02 -0.22217845116E+02  0.18523555530E+02  0.37708625692E+02  0.47000000000E+01 0.  1.
         13    1    6    6    0    0 -0.39647545249E+02  0.34035175338E+02  0.55041804404E+02  0.75894144943E+02  0.00000000000E+00 0. -1.
        -14    1    6    6    0    0 -0.10604981892E+03  0.57354495535E+02 -0.20654912059E+01  0.12058345038E+03  0.00000000000E+00 0.  1.
</event>
<event>
12    1  0.9966151E-001  0.1983023E+03  0.7818608E-02  0.1151674E+00
         21   -1    0    0  501  502  0.00000000000E+00  0.00000000000E+00  0.49233199097E+02  0.49233199097E+02  0.00000000000E+00 0.  1.
         21   -1    0    0  502  503 -0.00000000000E+00 -0.00000000000E+00 -0.96168049267E+03  0.96168049267E+03  0.00000000000E+00 0.  1.
         -6    2    1    2    0  503 -0.46048789483E+02  0.82030135852E+02 -0.24014397197E+03  0.30997463629E+03  0.17194683384E+03 0.  0.
        -24    2    3    3    0    0 -0.67438171611E+02  0.10455643469E+03 -0.12801773898E+03  0.19353013479E+03  0.74735644440E+02 0.  0.
          6    2    1    2  501    0  0.46048789483E+02 -0.82030135852E+02 -0.67230332161E+03  0.70093905548E+03  0.17456909536E+03 0.  0.
         24    2    5    5    0    0  0.36754962764E+02 -0.11685205924E+03 -0.39142848652E+03  0.41772234597E+03  0.79185650358E+02 0.  0.
          5    1    5    5  501    0  0.92938267190E+01  0.34821923390E+02 -0.28087483509E+03  0.28321670952E+03  0.47000000000E+01 0. -1.
        -11    1    6    6    0    0  0.29623073510E+02 -0.20265850323E+02 -0.42628853213E+02  0.55726567271E+02  0.00000000000E+00 0.  1.
         12    1    6    6    0    0  0.71318892535E+01 -0.96586208919E+02 -0.34879963331E+03  0.36199577869E+03  0.00000000000E+00 0. -1.
         -5    1    3    3    0  503  0.21389382128E+02 -0.22526298838E+02 -0.11212623298E+03  0.11644450150E+03  0.47000000000E+01 0.  1.
         11    1    4    4    0    0 -0.54672521696E+02  0.21582555160E+02 -0.70388951287E+02  0.91703302989E+02  0.00000000000E+00 0. -1.
        -12    1    4    4    0    0 -0.12765649915E+02  0.82973879531E+02 -0.57628787698E+02  0.10182683180E+03  0.00000000000E+00 0.  1.
</event>
<event>
12    1  0.9966151E-001  0.2797413E+03  0.7818608E-02  0.1095923E+00
         21   -1    0    0  503  502  0.00000000000E+00  0.00000000000E+00  0.19207666998E+04  0.19207666998E+04  0.00000000000E+00 0.  1.
         21   -1    0    0  501  503 -0.00000000000E+00 -0.00000000000E+00 -0.41060838926E+02  0.41060838926E+02  0.00000000000E+00 0. -1.
          6    2    1    2  501    0 -0.20750746560E+03 -0.71655932895E+02  0.10398812922E+04  0.10768511141E+04  0.17338194606E+03 0.  0.
         24    2    3    3    0    0 -0.99407692999E+02 -0.26581789065E+02  0.79348303678E+03  0.80399322157E+03  0.78748268119E+02 0.  0.
         -6    2    1    2    0  502  0.20750746560E+03  0.71655932895E+02  0.83982456876E+03  0.88497642464E+03  0.17229058269E+03 0.  0.
        -24    2    5    5    0    0  0.93526164202E+02  0.10358138356E+03  0.45701550816E+03  0.48425727319E+03  0.78521879259E+02 0.  0.
          5    1    3    3  501    0 -0.10809977260E+03 -0.45074143830E+02  0.24639825537E+03  0.27285789255E+03  0.47000000000E+01 0. -1.
        -11    1    4    4    0    0 -0.11930243551E+02 -0.35481237872E+02  0.34079551050E+03  0.34284519675E+03  0.00000000000E+00 0.  1.
         12    1    4    4    0    0 -0.87477449448E+02  0.88994488078E+01  0.45268752628E+03  0.46114802483E+03  0.00000000000E+00 0. -1.
         -5    1    5    5    0  502  0.11398130140E+03 -0.31925450667E+02  0.38280906060E+03  0.40071915146E+03  0.47000000000E+01 0.  1.
         11    1    6    6    0    0  0.47073887161E+02  0.28475309509E+02  0.80365881829E+02  0.97393372804E+02  0.00000000000E+00 0. -1.
        -12    1    6    6    0    0  0.46452277041E+02  0.75106074054E+02  0.37664962633E+03  0.38686390038E+03  0.00000000000E+00 0.  1.
</event>
<event>
12    1  0.9966151E-001  0.2971229E+03  0.7818608E-02  0.1086710E+00
         21   -1    0    0  503  502  0.00000000000E+00  0.00000000000E+00  0.55301214941E+02  0.55301214941E+02  0.00000000000E+00 0.  1.
         21   -1    0    0  501  503 -0.00000000000E+00 -0.00000000000E+00 -0.18203204252E+04  0.18203204252E+04  0.00000000000E+00 0.  1.
          6    2    1    2  501    0 -0.73290887134E+02 -0.23099094061E+03 -0.12123489955E+04  0.12482275928E+04  0.17191180292E+03 0.  0.
         24    2    3    3    0    0 -0.29976564538E+02 -0.45869741448E+02 -0.24179474701E+03  0.25921615302E+03  0.75668267496E+02 0.  0.
         -6    2    1    2    0  502  0.73290887134E+02  0.23099094061E+03 -0.55267021482E+03  0.62739404731E+03  0.17161164142E+03 0.  0.
        -24    2    5    5    0    0  0.57244637782E+02  0.24282719638E+03 -0.54641510845E+03  0.60597453693E+03  0.79960445324E+02 0.  0.
          5    1    3    3  501    0 -0.43314322596E+02 -0.18512119916E+03 -0.97055424845E+03  0.98901143982E+03  0.47000000000E+01 0. -1.
        -13    1    4    4    0    0 -0.49157522263E+02 -0.11230143887E+02 -0.16884174098E+03  0.17621041860E+03  0.00000000000E+00 0.  1.
         14    1    4    4    0    0  0.19180957725E+02 -0.34639597561E+02 -0.72953006028E+02  0.83005734422E+02  0.00000000000E+00 0. -1.
         -5    1    5    5    0  502  0.16046249352E+02 -0.11836255772E+02 -0.62551063698E+01  0.21419510374E+02  0.47000000000E+01 0.  1.
         11    1    6    6    0    0 -0.95105092289E+01  0.10471366311E+03 -0.17544906162E+03  0.20454284209E+03  0.00000000000E+00 0. -1.
        -12    1    6    6    0    0  0.66755147011E+02  0.13811353327E+03 -0.37096604683E+03  0.40143169484E+03  0.00000000000E+00 0.  1.
</event>
<event>
12    1  0.9966151E-001  0.1807559E+03  0.7818608E-02  0.1167174E+00
         21   -1    0    0  503  502  0.00000000000E+00  0.00000000000E+00  0.16997754670E+03  0.16997754670E+03  0.00000000000E+00 0.  1.
         21   -1    0    0  501  503 -0.00000000000E+00 -0.00000000000E+00 -0.22318546515E+03  0.22318546515E+03  0.00000000000E+00 0.  1.
          6    2    1    2  501    0 -0.39124744943E+02  0.39951052175E+02  0.47171843685E+02  0.18640517430E+03  0.17144933342E+03 0.  0.
         24    2    3    3    0    0 -0.50625205077E+02  0.12754589252E+02  0.91020243595E+02  0.13333276759E+03  0.82263912099E+02 0.  0.
         -6    2    1    2    0  502  0.39124744943E+02 -0.39951052175E+02 -0.10037976213E+03  0.20675783754E+03  0.17188913434E+03 0.  0.
        -24    2    5    5    0    0  0.61418563458E+02 -0.75448013152E+02 -0.10503428945E+03  0.16432196584E+03  0.80652736293E+02 0.  0.
          5    1    3    3  501    0  0.11500460135E+02  0.27196462923E+02 -0.43848399909E+02  0.53072406705E+02  0.47000000000E+01 0. -1.
        -11    1    4    4    0    0 -0.21357810367E+01  0.29848272613E+02  0.13336144037E+01  0.29954289609E+02  0.00000000000E+00 0.  1.
         12    1    4    4    0    0 -0.48489424041E+02 -0.17093683361E+02  0.89686629191E+02  0.10337847798E+03  0.00000000000E+00 0. -1.
         -5    1    5    5    0  502 -0.22293818515E+02  0.35496960977E+02  0.46545273172E+01  0.42435871702E+02  0.47000000000E+01 0.  1.
         11    1    6    6    0    0  0.38621007357E+02 -0.79981581099E+02 -0.44220365760E+02  0.99217318409E+02  0.00000000000E+00 0. -1.
        -12    1    6    6    0    0  0.22797556101E+02  0.45335679468E+01 -0.60813923693E+02  0.65104647433E+02  0.00000000000E+00 0.  1.
</event>
<event>
12    1  0.9966151E-001  0.1965530E+03  0.7818608E-02  0.1153604E+00
         21   -1    0    0  503  502  0.00000000000E+00  0.00000000000E+00  0.73704303780E+02  0.73704303780E+02  0.00000000000E+00 0.  1.
         21   -1    0    0  501  503 -0.00000000000E+00 -0.00000000000E+00 -0.55221293380E+03  0.55221293380E+03  0.00000000000E+00 0.  1.
          6    2    1    2  501    0  0.18244823913E+00 -0.82805029232E+02 -0.15337653109E+03  0.24599095968E+03  0.17358135211E+03 0.  0.
         24    2    3    3    0    0 -0.64052064715E+02 -0.30809800694E+02 -0.68128785397E+02  0.12716821526E+03  0.80487966550E+02 0.  0.
         -6    2    1    2    0  502 -0.18244823913E+00  0.82805029232E+02 -0.32513209893E+03  0.37992627790E+03  0.17825933000E+03 0.  0.
        -24    2    5    5    0    0 -0.49299076064E+02  0.74074846853E+02 -0.30185102831E+03  0.32467451357E+03  0.79887512350E+02 0.  0.
          5    1    3    3  501    0  0.64234512955E+02 -0.51995228538E+02 -0.85247745695E+02  0.11882274442E+03  0.47000000000E+01 0. -1.
        -13    1    4    4    0    0 -0.19307477490E+02  0.23525220774E+00 -0.70062028315E+02  0.72674079576E+02  0.00000000000E+00 0.  1.
         14    1    4    4    0    0 -0.44744587226E+02 -0.31045052902E+02  0.19332429180E+01  0.54494135683E+02  0.00000000000E+00 0. -1.
         -5    1    5    5    0  502  0.49116627825E+02  0.87301823788E+01 -0.23281070617E+02  0.55251764337E+02  0.47000000000E+01 0.  1.
         13    1    6    6    0    0  0.68826936995E+01  0.22012168407E+02 -0.17484229747E+03  0.17635684284E+03  0.00000000000E+00 0. -1.
        -14    1    6    6    0    0 -0.56181769763E+02  0.52062678446E+02 -0.12700873084E+03  0.14831767073E+03  0.00000000000E+00 0.  1.
</event>
<event>
12    1  0.9966151E-001  0.2036709E+03  0.7818608E-02  0.1146723E+00
         21   -1    0    0  503  502  0.00000000000E+00  0.00000000000E+00  0.48048666923E+02  0.48048666923E+02  0.00000000000E+00 0.  1.
         21   -1    0    0  501  503 -0.00000000000E+00 -0.00000000000E+00 -0.88497271531E+03  0.88497271531E+03  0.00000000000E+00 0.  1.
          6    2    1    2  501    0 -0.56530654472E+02  0.93250582788E+02 -0.49317349063E+03  0.53357465700E+03  0.17201871015E+03 0.  0.
         24    2    3    3    0    0 -0.44879334072E+02  0.42246180894E+02 -0.46118438679E+03  0.47207185182E+03  0.79761521052E+02 0.  0.
         -6    2    1    2    0  502  0.56530654472E+02 -0.93250582788E+02 -0.34375055776E+03  0.39944672524E+03  0.17176103825E+03 0.  0.
        -24    2    5    5    0    0 -0.30376431870E+02 -0.63042898688E+02 -0.22366041713E+03  0.24808927511E+03  0.81407441568E+02 0.  0.
          5    1    3    3  501    0 -0.11651320400E+02  0.51004401894E+02 -0.31989103849E+02  0.61502805177E+02  0.47000000000E+01 0. -1.
        -13    1    4    4    0    0 -0.30231120232E+02  0.63212353510E+02 -0.39403370848E+03  0.40021529916E+03  0.00000000000E+00 0.  1.
         14    1    4    4    0    0 -0.14648213840E+02 -0.20966172616E+02 -0.67150678308E+02  0.71856552660E+02  0.00000000000E+00 0. -1.
         -5    1    5    5    0  502  0.86907086342E+02 -0.30207684100E+02 -0.12009014062E+03  0.15135745013E+03  0.47000000000E+01 0.  1.
         11    1    6    6    0    0 -0.43099883927E+01 -0.35856722980E+02 -0.20081927003E+03  0.20404082875E+03  0.00000000000E+00 0. -1.
        -12    1    6    6    0    0 -0.26066443478E+02 -0.27186175708E+02 -0.22841147103E+02  0.44048446354E+02  0.00000000000E+00 0.  1.
</event>
<event>
12    1  0.9966151E-001  0.3991318E+03  0.7818608E-02  0.1044177E+00
         21   -1    0    0  503  502  0.00000000000E+00  0.00000000000E+00  0.16274315962E+03  0.16274315962E+03  0.00000000000E+00 0.  1.
         21   -1    0    0  501  503 -0.00000000000E+00 -0.00000000000E+00 -0.97993729887E+03  0.97993729887E+03  0.00000000000E+00 0. -1.
          6    2    1    2  501    0  0.28928024497E+03 -0.21270662886E+03 -0.37258545958E+03  0.54519988169E+03  0.17174346048E+03 0.  0.
         24    2    3    3    0    0  0.15204246429E+03 -0.52047980402E+02 -0.12184206838E+03  0.21726734594E+03  0.80831347737E+02 0.  0.
         -6    2    1    2    0  502 -0.28928024497E+03  0.21270662886E+03 -0.44460867967E+03  0.59748057680E+03  0.17429570141E+03 0.  0.
        -24    2    5    5    0    0 -0.17431816424E+03  0.52379308320E+02 -0.18777704341E+03  0.27358906857E+03  0.80376278142E+02 0.  0.
          5    1    3    3  501    0  0.13723778068E+03 -0.16065864846E+03 -0.25074339120E+03  0.32793253574E+03  0.47000000000E+01 0. -1.
        -13    1    4    4    0    0  0.13512841974E+03 -0.63832654455E+02 -0.77452719731E+02  0.16832474979E+03  0.00000000000E+00 0.  1.
         14    1    4    4    0    0  0.16914044543E+02  0.11784674053E+02 -0.44389348647E+02  0.48942596158E+02  0.00000000000E+00 0. -1.
         -5    1    5    5    0  502 -0.11496208072E+03  0.16032732054E+03 -0.25683163627E+03  0.32389150823E+03  0.47000000000E+01 0.  1.
         11    1    6    6    0    0 -0.14074079576E+01 -0.10516375181E+02  0.11546033706E+00  0.10610762235E+02  0.00000000000E+00 0. -1.
        -12    1    6    6    0    0 -0.17291075629E+03  0.62895683501E+02 -0.18789250374E+03  0.26297830634E+03  0.00000000000E+00 0.  1.
</event>
<event>
12    1  0.9966151E-001  0.1824057E+03  0.7818608E-02  0.1165598E+00
         21   -1    0    0  501  502  0.00000000000E+00  0.00000000000E+00  0.13757433205E+04  0.13757433205E+04  0.00000000000E+00 0.  1.
         21   -1    0    0  502  503 -0.00000000000E+00 -0.00000000000E+00 -0.11583665268E+03  0.11583665268E+03  0.00000000000E+00 0.  1.
         -6    2    1    2    0  503  0.19380495626E+02  0.57987754435E+02  0.12933882179E+04  0.13061268339E+04  0.17139440084E+03 0.  0.
        -24    2    3    3    0    0  0.81690768782E+01  0.63436963332E+02  0.41085618743E+03  0.42349425764E+03  0.80334285158E+02 0.  0.
          6    2    1    2  501    0 -0.19380495626E+02 -0.57987754435E+02 -0.33481550073E+02  0.18545313934E+03  0.17185362790E+03 0.  0.
         24    2    5    5    0    0  0.35630497607E+02 -0.93901211335E+01 -0.57518272553E+02  0.10807230601E+03  0.83747029289E+02 0.  0.
          5    1    5    5  501    0 -0.55010993232E+02 -0.48597633302E+02  0.24036722481E+02  0.77380833328E+02  0.47000000000E+01 0. -1.
        -13    1    6    6    0    0 -0.16233919145E+02  0.13797512404E+02 -0.45157886544E+02  0.49931414926E+02  0.00000000000E+00 0.  1.
         14    1    6    6    0    0  0.51864416752E+02 -0.23187633537E+02 -0.12360386009E+02  0.58140891087E+02  0.00000000000E+00 0. -1.
         -5    1    3    3    0  503  0.11211418747E+02 -0.54492088969E+01  0.88253203050E+03  0.88263257624E+03  0.47000000000E+01 0.  1.
         11    1    4    4    0    0 -0.26784626033E+01  0.48257633014E+02  0.39779358587E+03  0.40071899164E+03  0.00000000000E+00 0. -1.
        -12    1    4    4    0    0  0.10847539481E+02  0.15179330318E+02  0.13062601562E+02  0.22775265998E+02  0.00000000000E+00 0.  1.
</event>
<event>
12    1  0.9966151E-001  0.1904117E+03  0.7818608E-02  0.1158179E+00
         21   -1    0    0  501  502  0.00000000000E+00  0.00000000000E+00  0.35372359643E+03  0.35372359643E+03  0.00000000000E+00 0. -1.
         21   -1    0    0  502  503 -0.00000000000E+00 -0.00000000000E+00 -0.10281387386E+03  0.10281387386E+03  0.00000000000E+00 0. -1.
         -6    2    1    2    0  503  0.48883682190E+02  0.65980991552E+02  0.14190108233E+03  0.23747110950E+03  0.17179495061E+03 0.  0.
        -24    2    3    3    0    0  0.70021611252E+02  0.26273289939E+02  0.15603562239E+03  0.19008557548E+03  0.78689889708E+02 0.  0.
          6    2    1    2  501    0 -0.48883682190E+02 -0.65980991552E+02  0.10900864025E+03  0.21906636079E+03  0.17135950849E+03 0.  0.
         24    2    5    5    0    0  0.12609532900E+02  0.21128226409E+02  0.56049695082E+02  0.99918674159E+02  0.78973228729E+02 0.  0.
          5    1    5    5  501    0 -0.61493215089E+02 -0.87109217961E+02  0.52958945167E+02  0.11914768663E+03  0.47000000000E+01 0. -1.
        -13    1    6    6    0    0  0.93437533178E+01 -0.29184511548E+02  0.11803667430E+02  0.32838514052E+02  0.00000000000E+00 0.  1.
         14    1    6    6    0    0  0.32657795819E+01  0.50312737957E+02  0.44246027653E+02  0.67080160107E+02  0.00000000000E+00 0. -1.
         -5    1    3    3    0  503 -0.21137929062E+02  0.39707701613E+02 -0.14134540065E+02  0.47385534029E+02  0.47000000000E+01 0.  1.
         11    1    4    4    0    0  0.52665612341E+02 -0.21898649243E+02  0.74911154399E+02  0.94153590560E+02  0.00000000000E+00 0. -1.
        -12    1    4    4    0    0  0.17355998910E+02  0.48171939182E+02  0.81124467993E+02  0.95931984915E+02  0.00000000000E+00 0.  1.
</event>
<event>
12    1  0.9966151E-001  0.2453421E+03  0.7818608E-02  0.1116814E+00
         21   -1    0    0  503  502  0.00000000000E+00  0.00000000000E+00  0.31556105349E+02  0.31556105349E+02  0.00000000000E+00 0. -1.
         21   -1    0    0  501  503 -0.00000000000E+00 -0.00000000000E+00 -0.19094223111E+04  0.19094223111E+04  0.00000000000E+00 0. -1.
          6    2    1    2  501    0 -0.80532853465E+02  0.14810568880E+03 -0.82943969794E+03  0.86496414678E+03  0.17824681530E+03 0.  0.
         24    2    3    3    0    0 -0.13142084035E+02  0.12563797548E+03 -0.35839888520E+03  0.38857370690E+03  0.81130447599E+02 0.  0.
         -6    2    1    2    0  502  0.80532853465E+02 -0.14810568880E+03 -0.10484265078E+04  0.10760142697E+04  0.17374616743E+03 0.  0.
        -24    2    5    5    0    0  0.49406436971E+01 -0.14119180972E+03 -0.60907361449E+03  0.63012746926E+03  0.78297015001E+02 0.  0.
          5    1    3    3  501    0 -0.67390769431E+02  0.22467713320E+02 -0.47104081274E+03  0.47639043988E+03  0.47000000000E+01 0. -1.
        -13    1    4    4    0    0 -0.11982503255E+01 -0.47609128390E+01  0.18641650930E+01  0.52514004225E+01  0.00000000000E+00 0.  1.
         14    1    4    4    0    0 -0.11943833709E+02  0.13039888832E+03 -0.36026305029E+03  0.38332230648E+03  0.00000000000E+00 0. -1.
         -5    1    5    5    0  502  0.75592209768E+02 -0.69138790744E+01 -0.43935289336E+03  0.44588680043E+03  0.47000000000E+01 0.  1.
         13    1    6    6    0    0  0.33439566516E+02 -0.43222303640E+02 -0.14465773057E+03  0.15463580166E+03  0.00000000000E+00 0. -1.
        -14    1    6    6    0    0 -0.28498922819E+02 -0.97969506084E+02 -0.46441588392E+03  0.47549166761E+03  0.00000000000E+00 0.  1.
</event>
<event>
12    1  0.9966151E-001  0.1797882E+03  0.7818608E-02  0.1168547E+00
         21   -1    0    0  503  502  0.00000000000E+00  0.00000000000E+00  0.55593816966E+03  0.55593816966E+03  0.00000000000E+00 0.  1.
         21   -1    0    0  501  503 -0.00000000000E+00 -0.00000000000E+00 -0.74062793648E+02  0.74062793648E+02  0.00000000000E+00 0.  1.
          6    2    1    2  501    0 -0.39947534414E+02 -0.35413141234E+02  0.39136495830E+03  0.43068586694E+03  0.17167961241E+03 0.  0.
         24    2    3    3    0    0 -0.43842610666E+01 -0.78141773633E+02  0.32194632983E+03  0.34162679431E+03  0.83271056021E+02 0.  0.
         -6    2    1    2    0  502  0.39947534414E+02  0.35413141234E+02  0.90510417714E+02  0.19931509637E+03  0.16936491918E+03 0.  0.
        -24    2    5    5    0    0 -0.30623982840E+02  0.58436468876E+02  0.56879303263E+02  0.11768449842E+03  0.79131136785E+02 0.  0.
          5    1    3    3  501    0 -0.35563273347E+02  0.42728632399E+02  0.69418628475E+02  0.89059072627E+02  0.47000000000E+01 0. -1.
        -13    1    4    4    0    0 -0.35066311891E+01  0.15377532417E+02  0.19666854697E+02  0.25210119777E+02  0.00000000000E+00 0.  1.
         14    1    4    4    0    0 -0.87762987742E+00 -0.93519306050E+02  0.30227947513E+03  0.31641667453E+03  0.00000000000E+00 0. -1.
         -5    1    5    5    0  502  0.70571517254E+02 -0.23023327642E+02  0.33631114451E+02  0.81630597955E+02  0.47000000000E+01 0.  1.
         13    1    6    6    0    0 -0.25966420174E+02 -0.13177989030E+02  0.27776226129E+02  0.40242180725E+02  0.00000000000E+00 0. -1.
        -14    1    6    6    0    0 -0.46575626657E+01  0.71614457907E+02  0.29103077135E+02  0.77442317695E+02  0.00000000000E+00 0.  1.
</event>
<event>
12    1  0.9966151E-001  0.3654933E+03  0.7818608E-02  0.1056441E+00
         21   -1    0    0  503  502  0.00000000000E+00  0.00000000000E+00  0.69505211936E+03  0.69505211936E+03  0.00000000000E+00 0. -1.
         21   -1    0    0  501  503 -0.00000000000E+00 -0.00000000000E+00 -0.19810801085E+03  0.19810801085E+03  0.00000000000E+00 0. -1.
          6    2    1    2  501    0  0.95197801368E+02  0.30782084344E+03  0.32605525257E+03  0.48979322796E+03  0.17253720002E+03 0.  0.
         24    2    3    3    0    0  0.67733847496E+02  0.10155128963E+03  0.19357026522E+03  0.24306309307E+03  0.81912643182E+02 0.  0.
         -6    2    1    2    0  502 -0.95197801368E+02 -0.30782084344E+03  0.17088885594E+03  0.40336690225E+03  0.17229499035E+03 0.  0.
        -24    2    5    5    0    0 -0.24907017488E+02 -0.69921113659E+02  0.86359887619E+02  0.14125182787E+03  0.83574679373E+02 0.  0.
          5    1    3    3  501    0  0.27463953871E+02  0.20626955381E+03  0.13248498735E+03  0.24673013489E+03  0.47000000000E+01 0. -1.
        -13    1    4    4    0    0  0.22388790785E+02  0.79638188314E+02  0.65727010915E+02  0.10565764977E+03  0.00000000000E+00 0.  1.
         14    1    4    4    0    0  0.45345056711E+02  0.21913101315E+02  0.12784325431E+03  0.13740544330E+03  0.00000000000E+00 0. -1.
         -5    1    5    5    0  502 -0.70290783879E+02 -0.23789972978E+03  0.84528968323E+02  0.26211507437E+03  0.47000000000E+01 0.  1.
         13    1    6    6    0    0  0.15820004196E+02 -0.13428321694E+02 -0.94530713508E+01  0.22802476055E+02  0.00000000000E+00 0. -1.
        -14    1    6    6    0    0 -0.40727021685E+02 -0.56492791965E+02  0.95812958970E+02  0.11844935182E+03  0.00000000000E+00 0.  1.
</event>
<event>
12    1  0.9966151E-001  0.1827799E+03  0.7818608E-02  0.1168292E+00
         21   -1    0    0  501  502  0.00000000000E+00  0.00000000000E+00  0.13580324596E+03  0.13580324596E+03  0.00000000000E+00 0. -1.
         21   -1    0    0  502  503 -0.00000000000E+00 -0.00000000000E+00 -0.29043251936E+03  0.29043251936E+03  0.00000000000E+00 0. -1.
         -6    2    1    2    0  503  0.26459276561E+02 -0.57115929901E+02 -0.17741250320E+03  0.25472278273E+03  0.17159888399E+03 0.  0.
        -24    2    3    3    0    0 -0.62350961559E+01 -0.58940011959E+02 -0.30526660520E+02  0.10415787958E+03  0.80026154736E+02 0.  0.
          6    2    1    2  501    0 -0.26459276561E+02  0.57115929901E+02  0.22783229798E+02  0.17151298259E+03  0.15790916653E+03 0.  0.
         24    2    5    5    0    0  0.47535831952E+01 -0.19183830970E+02  0.33858223712E+02  0.88202469370E+02  0.79010634513E+02 0.  0.
          5    1    5    5  501    0 -0.31212859756E+02  0.76299760871E+02 -0.11074993914E+02  0.83310513222E+02  0.47000000000E+01 0. -1.
        -13    1    6    6    0    0  0.32701423075E+02 -0.25376983360E+02  0.41458567227E+02  0.58584871358E+02  0.00000000000E+00 0.  1.
         14    1    6    6    0    0 -0.27947839880E+02  0.61931523899E+01 -0.76003435144E+01  0.29617598012E+02  0.00000000000E+00 0. -1.
         -5    1    3    3    0  503  0.32694372717E+02  0.18240820583E+01 -0.14688584268E+03  0.15056490316E+03  0.47000000000E+01 0.  1.
         13    1    4    4    0    0 -0.23391915022E+01  0.32421919815E+01  0.22187893410E+02  0.22545204361E+02  0.00000000000E+00 0. -1.
        -14    1    4    4    0    0 -0.38959046537E+01 -0.62182203941E+02 -0.52714553929E+02  0.81612675216E+02  0.00000000000E+00 0.  1.
</event>
<event>
12    1  0.9966151E-001  0.1832717E+03  0.7818608E-02  0.1165021E+00
         21   -1    0    0  501  502  0.00000000000E+00  0.00000000000E+00  0.25582944809E+03  0.25582944809E+03  0.00000000000E+00 0. -1.
         21   -1    0    0  502  503 -0.00000000000E+00 -0.00000000000E+00 -0.26435045903E+03  0.26435045903E+03  0.00000000000E+00 0. -1.
         -6    2    1    2    0  503  0.12334329399E+02 -0.59911803447E+02  0.18099608187E+03  0.25654146074E+03  0.17120858493E+03 0.  0.
        -24    2    3    3    0    0 -0.55910203532E+02 -0.60757524236E+02  0.98136393132E+02  0.14908984588E+03  0.76023699445E+02 0.  0.
          6    2    1    2  501    0 -0.12334329399E+02  0.59911803447E+02 -0.18951709282E+03  0.26363844638E+03  0.17276267556E+03 0.  0.
         24    2    5    5    0    0 -0.53192137259E+02  0.84888117870E+02 -0.98158753104E+02  0.16038335943E+03  0.77796434049E+02 0.  0.
          5    1    5    5  501    0  0.40857807861E+02 -0.24976314423E+02 -0.91358339712E+02  0.10325508695E+03  0.47000000000E+01 0. -1.
        -13    1    6    6    0    0 -0.46452235492E+02  0.18269246092E+02 -0.73873517053E+02  0.89156447085E+02  0.00000000000E+00 0.  1.
         14    1    6    6    0    0 -0.67399017674E+01  0.66618871777E+02 -0.24285236051E+02  0.71226912349E+02  0.00000000000E+00 0. -1.
         -5    1    3    3    0  503  0.68244532931E+02  0.84572078973E+00  0.82859688737E+02  0.10745161486E+03  0.47000000000E+01 0.  1.
         13    1    4    4    0    0  0.28074019495E+01  0.68588869114E+01  0.43626593424E+02  0.44251615667E+02  0.00000000000E+00 0. -1.
        -14    1    4    4    0    0 -0.58717605482E+02 -0.67616411148E+02  0.54509799708E+02  0.10483823021E+03  0.00000000000E+00 0.  1.
</event>
<event>
12    1  0.9966151E-001  0.1866294E+03  0.7818608E-02  0.1161665E+00
         21   -1    0    0  501  502  0.00000000000E+00  0.00000000000E+00  0.17339591677E+03  0.17339591677E+03  0.00000000000E+00 0. -1.
         21   -1    0    0  502  503 -0.00000000000E+00 -0.00000000000E+00 -0.22252767784E+03  0.22252767784E+03  0.00000000000E+00 0. -1.
         -6    2    1    2    0  503 -0.58335624710E+02 -0.40774322483E+02  0.38066546045E+02  0.18992824134E+03  0.17192464759E+03 0.  0.
        -24    2    3    3    0    0  0.30303783533E+02 -0.42457899926E+02  0.35549276852E+02  0.10111266967E+03  0.78987520035E+02 0.  0.
          6    2    1    2  501    0  0.58335624710E+02  0.40774322483E+02 -0.87198307116E+02  0.20599535327E+03  0.17252521647E+03 0.  0.
         24    2    5    5    0    0 -0.55223555817E-01  0.64274528501E+02 -0.96346376454E+02  0.14221817854E+03  0.82535858794E+02 0.  0.
          5    1    5    5  501    0  0.58390848266E+02 -0.23500206017E+02  0.91480693379E+01  0.63777174731E+02  0.47000000000E+01 0. -1.
        -11    1    6    6    0    0  0.35241588408E+02  0.59006204627E+02 -0.59257399153E+02  0.90747678165E+02  0.00000000000E+00 0.  1.
         12    1    6    6    0    0 -0.35296811964E+02  0.52683238736E+01 -0.37088977301E+02  0.51470500371E+02  0.00000000000E+00 0. -1.
         -5    1    3    3    0  503 -0.88639408243E+02  0.16835774430E+01  0.25172691927E+01  0.88815571669E+02  0.47000000000E+01 0.  1.
         11    1    4    4    0    0  0.14380495732E+02 -0.63240649177E+02  0.12118442854E+02  0.65977534230E+02  0.00000000000E+00 0. -1.
        -12    1    4    4    0    0  0.15923287801E+02  0.20782749251E+02  0.23430833998E+02  0.35135135444E+02  0.00000000000E+00 0.  1.
</event>
<event>
12    1  0.9966151E-001  0.3135426E+03  0.7818608E-02  0.1079331E+00
         21   -1    0    0  501  502  0.00000000000E+00  0.00000000000E+00  0.14311532260E+04  0.14311532260E+04  0.00000000000E+00 0.  1.
         21   -1    0    0  502  503 -0.00000000000E+00 -0.00000000000E+00 -0.19249715601E+03  0.19249715601E+03  0.00000000000E+00 0.  1.
         -6    2    1    2    0  503 -0.24924803598E+03 -0.53492579840E+02  0.12716302441E+04  0.13083786481E+04  0.17269965191E+03 0.  0.
        -24    2    3    3    0    0 -0.27768931515E+02 -0.19358264861E+02  0.46880030019E+03  0.47484631287E+03  0.67523650748E+02 0.  0.
          6    2    1    2  501    0  0.24924803598E+03  0.53492579840E+02 -0.32974174035E+02  0.31527173390E+03  0.18254569429E+03 0.  0.
         24    2    5    5    0    0  0.51959373551E+02 -0.24474187534E+02 -0.41130247835E+02  0.10292709734E+03  0.74856714622E+02 0.  0.
          5    1    5    5  501    0  0.19728866242E+03  0.77966767374E+02  0.81560737999E+01  0.21234463656E+03  0.47000000000E+01 0. -1.
        -11    1    6    6    0    0  0.52317626901E+01  0.23527710921E+02 -0.23485104907E+02  0.33652261061E+02  0.00000000000E+00 0.  1.
         12    1    6    6    0    0  0.46727610861E+02 -0.48001898455E+02 -0.17645142927E+02  0.69274836276E+02  0.00000000000E+00 0. -1.
         -5    1    3    3    0  503 -0.22147910446E+03 -0.34134314979E+02  0.80282994387E+03  0.83353233527E+03  0.47000000000E+01 0.  1.
         11    1    4    4    0    0 -0.27193814048E+02 -0.41343748245E+02  0.24365459997E+03  0.24862898691E+03  0.00000000000E+00 0. -1.
        -12    1    4    4    0    0 -0.57511746687E+00  0.21985483384E+02  0.22514570021E+03  0.22621732596E+03  0.00000000000E+00 0.  1.
</event>
<event>
12    1  0.9966151E-001  0.2036656E+03  0.7818608E-02  0.1147079E+00
         21   -1    0    0  501  502  0.00000000000E+00  0.00000000000E+00  0.78268300873E+02  0.78268300873E+02  0.00000000000E+00 0. -1.
         21   -1    0    0  502  503 -0.00000000000E+00 -0.00000000000E+00 -0.55366614598E+03  0.55366614598E+03  0.00000000000E+00 0. -1.
         -6    2    1    2    0  503 -0.10702440180E+03 -0.26700833344E+02 -0.30852675626E+03  0.36863679650E+03  0.16892948625E+03 0.  0.
        -24    2    3    3    0    0 -0.31366232276E+02 -0.54572315461E+02 -0.89611735099E+02  0.13529829856E+03  0.79456833461E+02 0.  0.
          6    2    1    2  501    0  0.10702440180E+03  0.26700833344E+02 -0.16687108884E+03  0.26329765035E+03  0.17120903979E+03 0.  0.
         24    2    5    5    0    0  0.80235604690E+02  0.50851677853E+02 -0.18493222560E+03  0.22268733636E+03  0.79787695223E+02 0.  0.
          5    1    5    5  501    0  0.26788797108E+02 -0.24150844509E+02  0.18061136762E+02  0.40610313987E+02  0.47000000000E+01 0. -1.
        -13    1    6    6    0    0  0.68762762382E+02  0.10707262133E+02 -0.63244771921E+02  0.94036504232E+02  0.00000000000E+00 0.  1.
         14    1    6    6    0    0  0.11472842308E+02  0.40144415720E+02 -0.12168745368E+03  0.12865083213E+03  0.00000000000E+00 0. -1.
         -5    1    3    3    0  503 -0.75658169522E+02  0.27871482118E+02 -0.21891502116E+03  0.23333849794E+03  0.47000000000E+01 0.  1.
         11    1    4    4    0    0  0.26032463489E+02 -0.27276812019E+02 -0.30433904153E+02  0.48455506923E+02  0.00000000000E+00 0. -1.
        -12    1    4    4    0    0 -0.57398695764E+02 -0.27295503442E+02 -0.59177830947E+02  0.86842791636E+02  0.00000000000E+00 0.  1.
</event>
<event>
12    1  0.9966151E-001  0.6213452E+03  0.7818608E-02  0.9862149E-01
         21   -1    0    0  501  502  0.00000000000E+00  0.00000000000E+00  0.43437755502E+03  0.43437755502E+03  0.00000000000E+00 0.  1.
         21   -1    0    0  502  503 -0.00000000000E+00 -0.00000000000E+00 -0.14963962076E+04  0.14963962076E+04  0.00000000000E+00 0.  1.
         -6    2    1    2    0  503  0.23397478167E+03  0.54943068816E+03  0.84213686367E+02  0.62702615206E+03  0.17161459975E+03 0.  0.
        -24    2    3    3    0    0  0.16891081208E+03  0.51315192775E+03  0.65076971416E+02  0.54996920913E+03  0.79845822625E+02 0.  0.
          6    2    1    2  501    0 -0.23397478167E+03 -0.54943068816E+03 -0.11462323390E+04  0.13037476106E+04  0.17114607109E+03 0.  0.
         24    2    5    5    0    0 -0.72490054953E+02 -0.33444498685E+03 -0.58690836760E+03  0.68313375021E+03  0.71428505720E+02 0.  0.
          5    1    5    5  501    0 -0.16148472671E+03 -0.21498570132E+03 -0.55932397138E+03  0.62061386038E+03  0.47000000000E+01 0. -1.
        -11    1    6    6    0    0 -0.56697290469E+02 -0.31345718998E+03 -0.56632076725E+03  0.64976088225E+03  0.00000000000E+00 0.  1.
         12    1    6    6    0    0 -0.15792764484E+02 -0.20987796870E+02 -0.20587600353E+02  0.33372867959E+02  0.00000000000E+00 0. -1.
         -5    1    3    3    0  503  0.65063969587E+02  0.36278760419E+02  0.19136714951E+02  0.77056942939E+02  0.47000000000E+01 0.  1.
         13    1    4    4    0    0  0.17217178565E+03  0.50543945111E+03  0.54875658066E+02  0.53677136693E+03  0.00000000000E+00 0. -1.
        -14    1    4    4    0    0 -0.32609735667E+01  0.77124766358E+01  0.10201313351E+02  0.13197842192E+02  0.00000000000E+00 0.  1.
</event>
<event>
12    1  0.9966151E-001  0.3174894E+03  0.7818608E-02  0.1076926E+00
         21   -1    0    0  503  502  0.00000000000E+00  0.00000000000E+00  0.27681906256E+04  0.27681906256E+04  0.00000000000E+00 0.  1.
         21   -1    0    0  501  503 -0.00000000000E+00 -0.00000000000E+00 -0.74102600690E+02  0.74102600690E+02  0.00000000000E+00 0. -1.
          6    2    1    2  501    0  0.13536043054E+03 -0.22875229928E+03  0.33303596231E+03  0.46012225603E+03  0.17363604960E+03 0.  0.
         24    2    3    3    0    0  0.13229720638E+03 -0.24791883162E+03  0.32874554686E+03  0.43969587679E+03  0.79325478841E+02 0.  0.
         -6    2    1    2    0  502 -0.13536043054E+03  0.22875229928E+03  0.23610520627E+04  0.23821709703E+04  0.17181859231E+03 0.  0.
        -24    2    5    5    0    0 -0.13641001170E+03  0.20197360592E+03  0.15818606561E+04  0.16025046711E+04  0.79605633530E+02 0.  0.
          5    1    3    3  501    0  0.30632241526E+01  0.19166532340E+02  0.42904154463E+01  0.20426379240E+02  0.47000000000E+01 0. -1.
        -11    1    4    4    0    0 -0.64179139577E+01 -0.44104338659E+02  0.63348241227E+02  0.77455677485E+02  0.00000000000E+00 0.  1.
         12    1    4    4    0    0  0.13871512034E+03 -0.20381449296E+03  0.26539730564E+03  0.36224019930E+03  0.00000000000E+00 0. -1.
         -5    1    5    5    0  502  0.10495811642E+01  0.26778693367E+02  0.77919140659E+03  0.77966629922E+03  0.47000000000E+01 0.  1.
         13    1    6    6    0    0  0.10724123667E+02  0.12086915812E+02  0.95395845542E+02  0.96754677969E+02  0.00000000000E+00 0. -1.
        -14    1    6    6    0    0 -0.14713413537E+03  0.18988669010E+03  0.14864648105E+04  0.15057499931E+04  0.00000000000E+00 0.  1.
</event>
<event>
12    1  0.9966151E-001  0.2613217E+03  0.7818608E-02  0.1106399E+00
         21   -1    0    0  501  502  0.00000000000E+00  0.00000000000E+00  0.10192312099E+04  0.10192312099E+04  0.00000000000E+00 0.  1.
         21   -1    0    0  502  503 -0.00000000000E+00 -0.00000000000E+00 -0.92266779038E+02  0.92266779038E+02  0.00000000000E+00 0.  1.
         -6    2    1    2    0  503 -0.92566578266E+02 -0.17320862208E+03  0.75497499282E+03  0.79892195873E+03  0.17239274401E+03 0.  0.
        -24    2    3    3    0    0 -0.92931760913E+02 -0.17350066289E+03  0.76180893772E+03  0.79061464574E+03  0.77329607857E+02 0.  0.
          6    2    1    2  501    0  0.92566578266E+02  0.17320862208E+03  0.17198943803E+03  0.31257603020E+03  0.17191163336E+03 0.  0.
         24    2    5    5    0    0  0.50391169643E+02  0.17611587800E+03  0.87489571438E+02  0.21797404986E+03  0.79386326533E+02 0.  0.
          5    1    5    5  501    0  0.42175408623E+02 -0.29072559184E+01  0.84499866594E+02  0.94601980338E+02  0.47000000000E+01 0. -1.
        -13    1    6    6    0    0 -0.19950874323E+02  0.51559410520E+02  0.13428940786E+02  0.56892412940E+02  0.00000000000E+00 0.  1.
         14    1    6    6    0    0  0.70342043967E+02  0.12455646748E+03  0.74060630652E+02  0.16108163692E+03  0.00000000000E+00 0. -1.
         -5    1    3    3    0  503  0.36518264705E+00  0.29204081149E+00 -0.68339449044E+01  0.83073129926E+01  0.47000000000E+01 0.  1.
         13    1    4    4    0    0 -0.10295088173E+03 -0.12646006124E+03  0.60549798062E+03  0.62707163520E+03  0.00000000000E+00 0. -1.
        -14    1    4    4    0    0  0.10019120815E+02 -0.47040601648E+02  0.15631095711E+03  0.16354301054E+03  0.00000000000E+00 0.  1.
</event>
<event>
12    1  0.9966151E-001  0.3392689E+03  0.7818608E-02  0.1067122E+00
         21   -1    0    0  503  502  0.00000000000E+00  0.00000000000E+00  0.24881940793E+03  0.24881940793E+03  0.00000000000E+00 0. -1.
         21   -1    0    0  501  503 -0.00000000000E+00 -0.00000000000E+00 -0.50407997856E+03  0.50407997856E+03  0.00000000000E+00 0. -1.
          6    2    1    2  501    0  0.20413813276E+03 -0.20936468076E+03 -0.19372233177E+02  0.33968430953E+03  0.17176786639E+03 0.  0.
         24    2    3    3    0    0  0.19133360167E+03 -0.15489543785E+03 -0.65337820385E+02  0.26711861758E+03  0.80511994708E+02 0.  0.
         -6    2    1    2    0  502 -0.20413813276E+03  0.20936468076E+03 -0.23588833745E+03  0.41321507696E+03  0.17203908068E+03 0.  0.
        -24    2    5    5    0    0 -0.20417968332E+03  0.15117582991E+03 -0.13918120659E+03  0.30025356471E+03  0.78976706833E+02 0.  0.
          5    1    3    3  501    0  0.12804531091E+02 -0.54469242915E+02  0.45965587208E+02  0.72565691946E+02  0.47000000000E+01 0. -1.
        -13    1    4    4    0    0  0.34489184127E+02 -0.26355227253E+02  0.19139870841E+02  0.47438765594E+02  0.00000000000E+00 0.  1.
         14    1    4    4    0    0  0.15684441755E+03 -0.12854021060E+03 -0.84477691226E+02  0.21967985199E+03  0.00000000000E+00 0. -1.
         -5    1    5    5    0  502  0.41550560353E-01  0.58188850856E+02 -0.96707130862E+02  0.11296151225E+03  0.47000000000E+01 0.  1.
         11    1    6    6    0    0 -0.24638078134E+00 -0.69158985774E+01  0.31248215445E+00  0.69273372748E+01  0.00000000000E+00 0. -1.
        -12    1    6    6    0    0 -0.20393330254E+03  0.15809172848E+03 -0.13949368875E+03  0.29332622744E+03  0.00000000000E+00 0.  1.
</event>
<event>
12    1  0.9966151E-001  0.2229172E+03  0.7818608E-02  0.1131948E+00
         21   -1    0    0  503  502  0.00000000000E+00  0.00000000000E+00  0.14460057030E+04  0.14460057030E+04  0.00000000000E+00 0.  1.
         21   -1    0    0  501  503 -0.00000000000E+00 -0.00000000000E+00 -0.98454151500E+02  0.98454151500E+02  0.00000000000E+00 0.  1.
          6    2    1    2  501    0  0.13682460702E+03 -0.31164355335E+02  0.49196865167E+02  0.22710759715E+03  0.17165470868E+03 0.  0.
         24    2    3    3    0    0  0.15011398537E+03 -0.34044811337E+02  0.85248964257E+02  0.18829073930E+03  0.67028045001E+02 0.  0.
         -6    2    1    2    0  502 -0.13682460702E+03  0.31164355335E+02  0.12983546864E+04  0.13173522574E+04  0.17320475831E+03 0.  0.
        -24    2    5    5    0    0 -0.13239035353E+03  0.30429965052E+02  0.65822830471E+03  0.67719284254E+03  0.82900279705E+02 0.  0.
          5    1    3    3  501    0 -0.13289378359E+02  0.28804560024E+01 -0.36052099090E+02  0.38816857842E+02  0.47000000000E+01 0. -1.
        -11    1    4    4    0    0  0.52692259149E+02  0.56037715783E+01  0.60140426923E+02  0.80154521897E+02  0.00000000000E+00 0.  1.
         12    1    4    4    0    0  0.97421726225E+02 -0.39648582915E+02  0.25108537334E+02  0.10813621741E+03  0.00000000000E+00 0. -1.
         -5    1    5    5    0  502 -0.44342534835E+01  0.73439028234E+00  0.64012638164E+03  0.64015941484E+03  0.47000000000E+01 0.  1.
         13    1    6    6    0    0 -0.68267864232E+02 -0.61151186037E+01  0.47068785704E+03  0.47565213626E+03  0.00000000000E+00 0. -1.
        -14    1    6    6    0    0 -0.64122489300E+02  0.36545083656E+02  0.18754044767E+03  0.20154070628E+03  0.00000000000E+00 0.  1.
</event>
<event>
12    1  0.9966151E-001  0.1817496E+03  0.7818608E-02  0.1166975E+00
         21   -1    0    0  501  502  0.00000000000E+00  0.00000000000E+00  0.26066757441E+03  0.26066757441E+03  0.00000000000E+00 0.  1.
         21   -1    0    0  502  503 -0.00000000000E+00 -0.00000000000E+00 -0.46434797394E+03  0.46434797394E+03  0.00000000000E+00 0.  1.
         -6    2    1    2    0  503  0.45448849782E+02  0.30797863000E+00 -0.41233493193E+03  0.45061405935E+03  0.17597511641E+03 0.  0.
        -24    2    3    3    0    0  0.53249632257E+02  0.18280340256E+01 -0.42465422750E+03  0.43521867631E+03  0.79026693116E+02 0.  0.
          6    2    1    2  501    0 -0.45448849782E+02 -0.30797863000E+00  0.20865453239E+03  0.27440148900E+03  0.17231880478E+03 0.  0.
         24    2    5    5    0    0 -0.28667189915E+02 -0.41694755979E+01  0.22989700469E+03  0.24665499561E+03  0.84539113962E+02 0.  0.
          5    1    5    5  501    0 -0.16781659866E+02  0.38614969679E+01 -0.21242472294E+02  0.27746493398E+02  0.47000000000E+01 0. -1.
        -13    1    6    6    0    0 -0.37591176092E+02 -0.20653315192E+01  0.34567468334E+02  0.51110390150E+02  0.00000000000E+00 0.  1.
         14    1    6    6    0    0  0.89239861764E+01 -0.21041440787E+01  0.19532953635E+03  0.19554460546E+03  0.00000000000E+00 0. -1.
         -5    1    3    3    0  503 -0.78007824749E+01 -0.15200553956E+01  0.12319295573E+02  0.15395383043E+02  0.47000000000E+01 0.  1.
         13    1    4    4    0    0  0.27166826378E+02  0.40183654211E+02 -0.19659990069E+03  0.20249514432E+03  0.00000000000E+00 0. -1.
        -14    1    4    4    0    0  0.26082805879E+02 -0.38355620186E+02 -0.22805432681E+03  0.23272353198E+03  0.00000000000E+00 0.  1.
</event>
<event>
12    1  0.9966151E-001  0.1838658E+03  0.7818608E-02  0.1165180E+00
         21   -1    0    0  503  502  0.00000000000E+00  0.00000000000E+00  0.21071242040E+03  0.21071242040E+03  0.00000000000E+00 0. -1.
         21   -1    0    0  501  503 -0.00000000000E+00 -0.00000000000E+00 -0.20029503865E+03  0.20029503865E+03  0.00000000000E+00 0. -1.
          6    2    1    2  501    0 -0.95289250206E+01  0.64236373034E+02 -0.90862136322E+02  0.20109273753E+03  0.16722813530E+03 0.  0.
         24    2    3    3    0    0 -0.29622039274E+02  0.10385727805E+03 -0.75672534105E+02  0.15390838238E+03  0.79357786853E+02 0.  0.
         -6    2    1    2    0  502  0.95289250206E+01 -0.64236373034E+02  0.10127951807E+03  0.20991472152E+03  0.17201609663E+03 0.  0.
        -24    2    5    5    0    0 -0.41626256128E+02 -0.23422360367E+02  0.10473022944E+03  0.14421362871E+03  0.86878061571E+02 0.  0.
          5    1    3    3  501    0  0.20093114254E+02 -0.39620905020E+02 -0.15189602218E+02  0.47184355146E+02  0.47000000000E+01 0. -1.
        -11    1    4    4    0    0  0.24592765556E+02  0.20762863112E+02 -0.32389818217E+02  0.45661810372E+02  0.00000000000E+00 0.  1.
         12    1    4    4    0    0 -0.54214804830E+02  0.83094414943E+02 -0.43282715887E+02  0.10824657201E+03  0.00000000000E+00 0. -1.
         -5    1    5    5    0  502  0.51155181149E+02 -0.40814012667E+02 -0.34507113663E+01  0.65701092816E+02  0.47000000000E+01 0.  1.
         13    1    6    6    0    0 -0.84259619672E+01  0.30371580492E+02  0.56516937975E+02  0.64711621944E+02  0.00000000000E+00 0. -1.
        -14    1    6    6    0    0 -0.33200294161E+02 -0.53793940860E+02  0.48213291462E+02  0.79502006762E+02  0.00000000000E+00 0.  1.
</event>
<event>
12    1  0.9966151E-001  0.2281185E+03  0.7818608E-02  0.1128061E+00
         21   -1    0    0  503  502  0.00000000000E+00  0.00000000000E+00  0.33610005444E+03  0.33610005444E+03  0.00000000000E+00 0. -1.
         21   -1    0    0  501  503 -0.00000000000E+00 -0.00000000000E+00 -0.47178269409E+03  0.47178269409E+03  0.00000000000E+00 0. -1.
          6    2    1    2  501    0  0.12672002302E+03  0.77353201872E+02  0.26340191112E+03  0.34845175567E+03  0.17319519963E+03 0.  0.
         24    2    3    3    0    0  0.15865822634E+03  0.48900191715E+02  0.20984575526E+03  0.27974968548E+03  0.81614851535E+02 0.  0.
         -6    2    1    2    0  502 -0.12672002302E+03 -0.77353201872E+02 -0.39908455077E+03  0.45943099286E+03  0.17253079859E+03 0.  0.
        -24    2    5    5    0    0 -0.28574666261E+02 -0.53185405987E+02 -0.91960510319E+02  0.13606763743E+03  0.80077884188E+02 0.  0.
          5    1    3    3  501    0 -0.31938203315E+02  0.28453010157E+02  0.53556155860E+02  0.68702070191E+02  0.47000000000E+01 0. -1.
        -11    1    4    4    0    0  0.11863812648E+03  0.71916427146E+02  0.15343378727E+03  0.20685479116E+03  0.00000000000E+00 0.  1.
         12    1    4    4    0    0  0.40020099857E+02 -0.23016235431E+02  0.56411967989E+02  0.72894894323E+02  0.00000000000E+00 0. -1.
         -5    1    5    5    0  502 -0.98145356763E+02 -0.24167795885E+02 -0.30712404045E+03  0.32336335543E+03  0.47000000000E+01 0.  1.
         13    1    6    6    0    0  0.13759196787E+02  0.17109571465E+01  0.67701009783E+01  0.15429748470E+02  0.00000000000E+00 0. -1.
        -14    1    6    6    0    0 -0.42333863048E+02 -0.54896363133E+02 -0.98730611297E+02  0.12063788896E+03  0.00000000000E+00 0.  1.
</event>
<event>
12    1  0.9966151E-001  0.2181668E+03  0.7818608E-02  0.1135426E+00
         21   -1    0    0  501  502  0.00000000000E+00  0.00000000000E+00  0.56317780017E+03  0.56317780017E+03  0.00000000000E+00 0.  1.
         21   -1    0    0  502  503 -0.00000000000E+00 -0.00000000000E+00 -0.12574689562E+03  0.12574689562E+03  0.00000000000E+00 0.  1.
         -6    2    1    2    0  503  0.72739431695E+02 -0.11205742884E+03  0.41648854273E+03  0.46975507549E+03  0.17134536014E+03 0.  0.
        -24    2    3    3    0    0  0.95037858727E+02 -0.89234352235E+02  0.40877250756E+03  0.43659274939E+03  0.80766959048E+02 0.  0.
          6    2    1    2  501    0 -0.72739431695E+02  0.11205742884E+03  0.20942361815E+02  0.21916962029E+03  0.17247854260E+03 0.  0.
         24    2    5    5    0    0 -0.23702600281E+02 -0.19124386823E+02  0.83558221697E+01  0.78479213453E+02  0.71844357807E+02 0.  0.
          5    1    5    5  501    0 -0.49036831414E+02  0.13118181566E+03  0.12586539645E+02  0.14069040684E+03  0.47000000000E+01 0. -1.
        -11    1    6    6    0    0 -0.84337237760E+01 -0.22554165527E+02  0.37983239550E+02  0.44972709125E+02  0.00000000000E+00 0.  1.
         12    1    6    6    0    0 -0.15268876505E+02  0.34297787037E+01 -0.29627417380E+02  0.33506504328E+02  0.00000000000E+00 0. -1.
         -5    1    3    3    0  503 -0.22298427032E+02 -0.22823076605E+02  0.77160351795E+01  0.33162326106E+02  0.47000000000E+01 0.  1.
         13    1    4    4    0    0  0.51587790423E+02 -0.89165795711E+02  0.22057217063E+03  0.24344182406E+03  0.00000000000E+00 0. -1.
        -14    1    4    4    0    0  0.43450068304E+02 -0.68556524835E-01  0.18820033693E+03  0.19315092533E+03  0.00000000000E+00 0.  1.
</event>
<event>
12    1  0.9966151E-001  0.2102694E+03  0.7818608E-02  0.1141685E+00
         21   -1    0    0  503  502  0.00000000000E+00  0.00000000000E+00  0.20628245640E+03  0.20628245640E+03  0.00000000000E+00 0. -1.
         21   -1    0    0  501  503 -0.00000000000E+00 -0.00000000000E+00 -0.22830396546E+03  0.22830396546E+03  0.00000000000E+00 0. -1.
          6    2    1    2  501    0  0.11858201408E+03  0.11719828758E+02  0.45963678566E+02  0.21359949563E+03  0.17121050300E+03 0.  0.
         24    2    3    3    0    0  0.12950917158E+03  0.46937810116E+02  0.65437072451E+02  0.17163508152E+03  0.78745204402E+02 0.  0.
         -6    2    1    2    0  502 -0.11858201408E+03 -0.11719828758E+02 -0.67985187631E+02  0.22098692623E+03  0.17324603135E+03 0.  0.
        -24    2    5    5    0    0 -0.19092168485E+02  0.46312277861E+02 -0.27463970461E+02  0.98798490539E+02  0.80607283054E+02 0.  0.
          5    1    3    3  501    0 -0.10927157504E+02 -0.35217981358E+02 -0.19473393885E+02  0.41964414108E+02  0.47000000000E+01 0. -1.
        -13    1    4    4    0    0  0.11007082019E+03  0.28674357222E+02  0.15198706277E+02  0.11475541334E+03  0.00000000000E+00 0.  1.
         14    1    4    4    0    0  0.19438351394E+02  0.18263452894E+02  0.50238366173E+02  0.56879668180E+02  0.00000000000E+00 0. -1.
         -5    1    5    5    0  502 -0.99489845595E+02 -0.58032106619E+02 -0.40521217170E+02  0.12218843569E+03  0.47000000000E+01 0.  1.
         11    1    6    6    0    0 -0.40239326644E+01  0.39248642960E+02  0.22994786747E+02  0.45666270111E+02  0.00000000000E+00 0. -1.
        -12    1    6    6    0    0 -0.15068235821E+02  0.70636349007E+01 -0.50458757208E+02  0.53132220429E+02  0.00000000000E+00 0.  1.
</event>
<event>
12    1  0.9966151E-001  0.2028932E+03  0.7818608E-02  0.1147539E+00
         21   -1    0    0  501  502  0.00000000000E+00  0.00000000000E+00  0.26208708774E+03  0.26208708774E+03  0.00000000000E+00 0.  1.
         21   -1    0    0  502  503 -0.00000000000E+00 -0.00000000000E+00 -0.15748766520E+03  0.15748766520E+03  0.00000000000E+00 0.  1.
         -6    2    1    2    0  503  0.79134868221E+02 -0.77799046547E+02  0.70713670903E+02  0.21387131224E+03  0.16859862376E+03 0.  0.
        -24    2    3    3    0    0  0.66938188577E+02 -0.47289116420E+02  0.11272814221E+03  0.16032767929E+03  0.79248653480E+02 0.  0.
          6    2    1    2  501    0 -0.79134868221E+02  0.77799046547E+02  0.33885751638E+02  0.20570344070E+03  0.16985476838E+03 0.  0.
         24    2    5    5    0    0 -0.26331761107E+02  0.10951951850E+03  0.38343814497E+02  0.14376540081E+03  0.80686775762E+02 0.  0.
          5    1    5    5  501    0 -0.52803107114E+02 -0.31720471955E+02 -0.44580628591E+01  0.61938039898E+02  0.47000000000E+01 0. -1.
        -13    1    6    6    0    0  0.29136386938E+02  0.33184888807E+02  0.10665773567E+02  0.45430437096E+02  0.00000000000E+00 0.  1.
         14    1    6    6    0    0 -0.55468148045E+02  0.76334629694E+02  0.27678040930E+02  0.98334963710E+02  0.00000000000E+00 0. -1.
         -5    1    3    3    0  503  0.12196679644E+02 -0.30509930127E+02 -0.42014471305E+02  0.53543632952E+02  0.47000000000E+01 0.  1.
         11    1    4    4    0    0  0.21672546823E+02 -0.11190648311E+02  0.97439533613E+02  0.10044596859E+03  0.00000000000E+00 0. -1.
        -12    1    4    4    0    0  0.45265641754E+02 -0.36098468109E+02  0.15288608595E+02  0.59881710697E+02  0.00000000000E+00 0.  1.
</event>
<event>
12    1  0.1109793E+000  0.3236770E+03  0.7818608E-02  0.1074013E+00
         21   -1    0    0  503  502  0.00000000000E+00  0.00000000000E+00  0.97137866856E+03  0.97137866856E+03  0.00000000000E+00 0. -1.
         21   -1    0    0  501  503 -0.00000000000E+00 -0.00000000000E+00 -0.29416830925E+03  0.29416830925E+03  0.00000000000E+00 0. -1.
          6    2    1    2  501    0 -0.26553457188E+03  0.68166739936E+02  0.84243556263E+03  0.90247685066E+03  0.17207985208E+03 0.  0.
         24    2    3    3    0    0 -0.17877581312E+03 -0.17593415871E+02  0.59104345887E+03  0.62300956030E+03  0.80859274764E+02 0.  0.
         -6    2    1    2    0  502  0.26553457188E+03 -0.68166739936E+02 -0.16522520332E+03  0.36307012714E+03  0.17136287845E+03 0.  0.
        -24    2    5    5    0    0  0.17402847765E+03 -0.70021685917E+02 -0.40082164861E+02  0.20795830882E+03  0.80318931374E+02 0.  0.
          5    1    3    3  501    0 -0.86758758763E+02  0.85760155807E+02  0.25139210376E+03  0.27946729036E+03  0.47000000000E+01 0. -1.
        -13    1    4    4    0    0 -0.13202039343E+03 -0.80581769788E+01  0.29701446912E+03  0.32513368537E+03  0.00000000000E+00 0.  1.
         14    1    4    4    0    0 -0.46755419692E+02 -0.95352388919E+01  0.29402898975E+03  0.29787587493E+03  0.00000000000E+00 0. -1.
         -5    1    5    5    0  502  0.91506094232E+02  0.18549459809E+01 -0.12514303846E+03  0.15511181832E+03  0.47000000000E+01 0.  1.
         13    1    6    6    0    0  0.13275991166E+02 -0.35276746350E+02 -0.18806244642E+02  0.42123338092E+02  0.00000000000E+00 0. -1.
        -14    1    6    6    0    0  0.16075248649E+03 -0.34744939567E+02 -0.21275920220E+02  0.16583497073E+03  0.00000000000E+00 0.  1.
</event>
<event>
12    1  0.9966151E-001  0.2843645E+03  0.7818608E-02  0.1093612E+00
         21   -1    0    0  503  502  0.00000000000E+00  0.00000000000E+00  0.13670439268E+03  0.13670439268E+03  0.00000000000E+00 0. -1.
         21   -1    0    0  501  503 -0.00000000000E+00 -0.00000000000E+00 -0.10548313715E+04  0.10548313715E+04  0.00000000000E+00 0.  1.
          6    2    1    2  501    0 -0.23749079003E+02 -0.22619161956E+03 -0.85671558436E+03  0.90267643314E+03  0.17069412100E+03 0.  0.
         24    2    3    3    0    0 -0.56736063728E+02 -0.14688401615E+03 -0.39176405168E+03  0.42983411813E+03  0.80525783401E+02 0.  0.
         -6    2    1    2    0  502  0.23749079003E+02  0.22619161956E+03 -0.61411394494E+02  0.28885933107E+03  0.16715766886E+03 0.  0.
        -24    2    5    5    0    0  0.37232160667E+02  0.18801924800E+03  0.87776962293E+01  0.20769578076E+03  0.79517406829E+02 0.  0.
          5    1    3    3  501    0  0.32986984725E+02 -0.79307603410E+02 -0.46495153269E+03  0.47284231501E+03  0.47000000000E+01 0. -1.
        -11    1    4    4    0    0 -0.34076298954E+01 -0.84007994139E+02 -0.26996810339E+03  0.28275737279E+03  0.00000000000E+00 0.  1.
         12    1    4    4    0    0 -0.53328433833E+02 -0.62876022014E+02 -0.12179594829E+03  0.14707674533E+03  0.00000000000E+00 0. -1.
         -5    1    5    5    0  502 -0.13483081663E+02  0.38172371562E+02 -0.70189090723E+02  0.81163550306E+02  0.47000000000E+01 0.  1.
         13    1    6    6    0    0  0.37962620633E+02  0.29459556253E+02  0.10223323548E+02  0.49127816604E+02  0.00000000000E+00 0. -1.
        -14    1    6    6    0    0 -0.73045996617E+00  0.15855969175E+03 -0.14456273190E+01  0.15856796416E+03  0.00000000000E+00 0.  1.
</event>
<event>
12    1  0.9966151E-001  0.5510317E+03  0.7818608E-02  0.1001268E+00
         21   -1    0    0  503  502  0.00000000000E+00  0.00000000000E+00  0.27298428991E+03  0.27298428991E+03  0.00000000000E+00 0. -1.
         21   -1    0    0  501  503 -0.00000000000E+00 -0.00000000000E+00 -0.12737488884E+04  0.12737488884E+04  0.00000000000E+00 0.  1.
          6    2    1    2  501    0 -0.27574613860E+03 -0.44509758889E+03 -0.22458546825E+03  0.59484559065E+03  0.17104048519E+03 0.  0.
         24    2    3    3    0    0 -0.16476663998E+03 -0.37887791618E+03 -0.18577784014E+03  0.45982849481E+03  0.78945029804E+02 0.  0.
         -6    2    1    2    0  502  0.27574613860E+03  0.44509758889E+03 -0.77617913026E+03  0.95188758768E+03  0.17172111327E+03 0.  0.
        -24    2    5    5    0    0  0.63928095391E+02  0.18167888424E+03 -0.24796861337E+03  0.32476340736E+03  0.82998910747E+02 0.  0.
          5    1    3    3  501    0 -0.11097949863E+03 -0.66219672707E+02 -0.38807628105E+02  0.13501709584E+03  0.47000000000E+01 0. -1.
        -11    1    4    4    0    0 -0.11858456046E+03 -0.29523159475E+03 -0.10599056590E+03  0.33534756981E+03  0.00000000000E+00 0.  1.
         12    1    4    4    0    0 -0.46182079514E+02 -0.83646321439E+02 -0.79787274244E+02  0.12448092500E+03  0.00000000000E+00 0. -1.
         -5    1    5    5    0  502  0.21181804321E+03  0.26341870465E+03 -0.52821051689E+03  0.62712418032E+03  0.47000000000E+01 0.  1.
         13    1    6    6    0    0 -0.19085001979E+02  0.52985859622E+02 -0.59660327724E+02  0.82043240578E+02  0.00000000000E+00 0. -1.
        -14    1    6    6    0    0  0.83013097370E+02  0.12869302462E+03 -0.18830828565E+03  0.24272016678E+03  0.00000000000E+00 0.  1.
</event>
<event>
12    1  0.9966151E-001  0.2170190E+03  0.7818608E-02  0.1136399E+00
         21   -1    0    0  501  502  0.00000000000E+00  0.00000000000E+00  0.68571028849E+02  0.68571028849E+02  0.00000000000E+00 0.  1.
         21   -1    0    0  502  503 -0.00000000000E+00 -0.00000000000E+00 -0.69428459103E+03  0.69428459103E+03  0.00000000000E+00 0. -1.
         -6    2    1    2    0  503  0.89589519235E+02 -0.98107627818E+02 -0.36194475882E+03  0.42128389388E+03  0.16977845036E+03 0.  0.
        -24    2    3    3    0    0 -0.19422854066E+02 -0.47122410556E+02 -0.17719228233E+03  0.20074193079E+03  0.79387965224E+02 0.  0.
          6    2    1    2  501    0 -0.89589519235E+02  0.98107627818E+02 -0.26376880336E+03  0.34157172601E+03  0.17159800054E+03 0.  0.
         24    2    5    5    0    0 -0.12297452320E+03  0.96228553026E+02 -0.18355473651E+03  0.25454026082E+03  0.81949590062E+02 0.  0.
          5    1    5    5  501    0  0.33385003961E+02  0.18790747918E+01 -0.80214066849E+02  0.87031465184E+02  0.47000000000E+01 0. -1.
        -11    1    6    6    0    0 -0.49862930221E+02  0.56820793840E+02 -0.32770071497E+02  0.82394126057E+02  0.00000000000E+00 0.  1.
         12    1    6    6    0    0 -0.73111592976E+02  0.39407759186E+02 -0.15078466501E+03  0.17214613476E+03  0.00000000000E+00 0. -1.
         -5    1    3    3    0  503  0.10901237330E+03 -0.50985217262E+02 -0.18475247650E+03  0.22054196309E+03  0.47000000000E+01 0.  1.
         13    1    4    4    0    0  0.80292258411E+01  0.12199109607E+01 -0.12245561624E+03  0.12272462914E+03  0.00000000000E+00 0. -1.
        -14    1    4    4    0    0 -0.27452079907E+02 -0.48342321517E+02 -0.54736666091E+02  0.78017301643E+02  0.00000000000E+00 0.  1.
</event>
<event>
12    1  0.9966151E-001  0.1732670E+03  0.7818608E-02  0.1174551E+00
         21   -1    0    0  501  502  0.00000000000E+00  0.00000000000E+00  0.71282448506E+03  0.71282448506E+03  0.00000000000E+00 0. -1.
         21   -1    0    0  502  503 -0.00000000000E+00 -0.00000000000E+00 -0.42231038021E+02  0.42231038021E+02  0.00000000000E+00 0. -1.
         -6    2    1    2    0  503  0.74398673683E+01  0.13893052471E+02  0.36014379551E+03  0.39965609721E+03  0.17254875850E+03 0.  0.
        -24    2    3    3    0    0 -0.38149684930E+02  0.61069364445E+02  0.23768329782E+03  0.26065007149E+03  0.79121703560E+02 0.  0.
          6    2    1    2  501    0 -0.74398673683E+01 -0.13893052471E+02  0.31044965152E+03  0.35539942587E+03  0.17228289887E+03 0.  0.
         24    2    5    5    0    0 -0.61541299441E+02 -0.29366028530E+02  0.13673730933E+03  0.17274005499E+03  0.80575056098E+02 0.  0.
          5    1    5    5  501    0  0.54101432073E+02  0.15472976059E+02  0.17371234219E+03  0.18265937088E+03  0.47000000000E+01 0. -1.
        -13    1    6    6    0    0  0.38772068425E-01  0.59387608214E+01 -0.89149144058E+01  0.10711959775E+02  0.00000000000E+00 0.  1.
         14    1    6    6    0    0 -0.61580071509E+02 -0.35304789352E+02  0.14565222374E+03  0.16202809521E+03  0.00000000000E+00 0. -1.
         -5    1    3    3    0  503  0.45589552298E+02 -0.47176311974E+02  0.12246049770E+03  0.13900602572E+03  0.47000000000E+01 0.  1.
         13    1    4    4    0    0  0.28215425865E+01  0.27023491654E+02  0.13718749317E+02  0.30437383043E+02  0.00000000000E+00 0. -1.
        -14    1    4    4    0    0 -0.40971227516E+02  0.34045872792E+02  0.22396454850E+03  0.23021268845E+03  0.00000000000E+00 0.  1.
</event>
<event>
12    1  0.9966151E-001  0.1820211E+03  0.7818608E-02  0.1166556E+00
         21   -1    0    0  501  502  0.00000000000E+00  0.00000000000E+00  0.84918383767E+02  0.84918383767E+02  0.00000000000E+00 0.  1.
         21   -1    0    0  502  503 -0.00000000000E+00 -0.00000000000E+00 -0.41936378377E+03  0.41936378377E+03  0.00000000000E+00 0.  1.
         -6    2    1    2    0  503 -0.38423351888E+02  0.30031883044E+02 -0.92775442843E+02  0.20173292468E+03  0.17236769458E+03 0.  0.
        -24    2    3    3    0    0  0.22018123980E+02 -0.11295063735E+02 -0.97383808594E+02  0.12821819439E+03  0.79648747305E+02 0.  0.
          6    2    1    2  501    0  0.38423351888E+02 -0.30031883044E+02 -0.24166995716E+03  0.30254924286E+03  0.17536649677E+03 0.  0.
         24    2    5    5    0    0  0.15330099750E+02 -0.74018109065E+02 -0.22317659011E+03  0.24933100352E+03  0.81513597111E+02 0.  0.
          5    1    5    5  501    0  0.23093252138E+02  0.43986226021E+02 -0.18493367054E+02  0.53218239344E+02  0.47000000000E+01 0. -1.
        -11    1    6    6    0    0  0.44726162046E+02 -0.64705194586E+02 -0.13942140991E+03  0.16007973425E+03  0.00000000000E+00 0.  1.
         12    1    6    6    0    0 -0.29396062296E+02 -0.93129144789E+01 -0.83755180203E+02  0.89251269265E+02  0.00000000000E+00 0. -1.
         -5    1    3    3    0  503 -0.60441475868E+02  0.41326946779E+02  0.46083657503E+01  0.73514730293E+02  0.47000000000E+01 0.  1.
         13    1    4    4    0    0 -0.16929839395E+02 -0.34194826507E+02 -0.42036364112E+02  0.56771132889E+02  0.00000000000E+00 0. -1.
        -14    1    4    4    0    0  0.38947963374E+02  0.22899762772E+02 -0.55347444481E+02  0.71447061498E+02  0.00000000000E+00 0.  1.
</event>
<event>
12    1  0.9966151E-001  0.2163736E+03  0.7818608E-02  0.1136816E+00
         21   -1    0    0  503  502  0.00000000000E+00  0.00000000000E+00  0.85306259598E+02  0.85306259598E+02  0.00000000000E+00 0.  1.
         21   -1    0    0  501  503 -0.00000000000E+00 -0.00000000000E+00 -0.56327468319E+03  0.56327468319E+03  0.00000000000E+00 0.  1.
          6    2    1    2  501    0  0.13278706061E+03  0.31723252879E+02 -0.18189188341E+03  0.28186737778E+03  0.16651063980E+03 0.  0.
         24    2    3    3    0    0  0.15017457438E+03  0.42166474876E+01 -0.11030347505E+03  0.20308965766E+03  0.80674466431E+02 0.  0.
         -6    2    1    2    0  502 -0.13278706061E+03 -0.31723252879E+02 -0.29607654018E+03  0.36671356501E+03  0.16786528193E+03 0.  0.
        -24    2    5    5    0    0 -0.48772320303E+02  0.16747376084E+02 -0.52066133307E+02  0.10409017092E+03  0.73923390150E+02 0.  0.
          5    1    3    3  501    0 -0.17387513773E+02  0.27506605392E+02 -0.71588408361E+02  0.78777720118E+02  0.47000000000E+01 0. -1.
        -11    1    4    4    0    0  0.24349245313E+02 -0.30120286519E+02 -0.36550385617E+02  0.53254559392E+02  0.00000000000E+00 0.  1.
         12    1    4    4    0    0  0.12582532907E+03  0.34336934007E+02 -0.73753089436E+02  0.14983509827E+03  0.00000000000E+00 0. -1.
         -5    1    5    5    0  502 -0.84014740307E+02 -0.48470628963E+02 -0.24401040687E+03  0.26262339409E+03  0.47000000000E+01 0.  1.
         11    1    6    6    0    0 -0.33367518681E+02 -0.11246134541E+02  0.79503163911E+01  0.36098121499E+02  0.00000000000E+00 0. -1.
        -12    1    6    6    0    0 -0.15404801622E+02  0.27993510625E+02 -0.60016449699E+02  0.67992049421E+02  0.00000000000E+00 0.  1.
</event>
<event>
12    1  0.9966151E-001  0.1991320E+03  0.7818608E-02  0.1150557E+00
         21   -1    0    0  503  502  0.00000000000E+00  0.00000000000E+00  0.66688100371E+02  0.66688100371E+02  0.00000000000E+00 0. -1.
         21   -1    0    0  501  503 -0.00000000000E+00 -0.00000000000E+00 -0.59352810093E+03  0.59352810093E+03  0.00000000000E+00 0. -1.
          6    2    1    2  501    0  0.78585896247E+02  0.62363920449E+02 -0.25950154738E+03  0.32710028138E+03  0.17201319520E+03 0.  0.
         24    2    3    3    0    0  0.23626158966E+02  0.70121905710E+02 -0.24761546754E+03  0.27014303468E+03  0.78667416226E+02 0.  0.
         -6    2    1    2    0  502 -0.78585896247E+02 -0.62363920449E+02 -0.26733845317E+03  0.33311591992E+03  0.17155572242E+03 0.  0.
        -24    2    5    5    0    0 -0.70816555136E+02  0.19151205325E+02 -0.11841872644E+03  0.16310341037E+03  0.84840877867E+02 0.  0.
          5    1    3    3  501    0  0.54959737281E+02 -0.77579852611E+01 -0.11886079846E+02  0.56957246698E+02  0.47000000000E+01 0. -1.
        -11    1    4    4    0    0  0.15564603072E+02  0.21901089231E+02 -0.20034160921E+03  0.20213528875E+03  0.00000000000E+00 0.  1.
         12    1    4    4    0    0  0.80615558938E+01  0.48220816479E+02 -0.47273858330E+02  0.68007745932E+02  0.00000000000E+00 0. -1.
         -5    1    5    5    0  502 -0.77693411111E+01 -0.81515125774E+02 -0.14891972674E+03  0.17001250955E+03  0.47000000000E+01 0.  1.
         11    1    6    6    0    0 -0.85946833196E+01  0.14419133530E+02 -0.94969195928E+02  0.96441319819E+02  0.00000000000E+00 0. -1.
        -12    1    6    6    0    0 -0.62221871816E+02  0.47320717953E+01 -0.23449530508E+02  0.66662090552E+02  0.00000000000E+00 0.  1.
</event>
<event>
12    1  0.9966151E-001  0.3401770E+03  0.7818608E-02  0.1067011E+00
         21   -1    0    0  503  502  0.00000000000E+00  0.00000000000E+00  0.38827944593E+03  0.38827944593E+03  0.00000000000E+00 0. -1.
         21   -1    0    0  501  503 -0.00000000000E+00 -0.00000000000E+00 -0.30124550321E+03  0.30124550321E+03  0.00000000000E+00 0. -1.
          6    2    1    2  501    0 -0.25014440596E+03 -0.14735208466E+03 -0.32797332537E+01  0.34019282939E+03  0.17730071582E+03 0.  0.
         24    2    3    3    0    0 -0.14647275091E+03 -0.84072356667E+02 -0.73161702481E+02  0.19998685356E+03  0.78228377018E+02 0.  0.
         -6    2    1    2    0  502  0.25014440596E+03  0.14735208466E+03  0.90313675975E+02  0.34933211976E+03  0.17202182752E+03 0.  0.
        -24    2    5    5    0    0  0.13524469861E+03  0.15590530414E+03  0.89337887279E+02  0.23401454749E+03  0.64683521647E+02 0.  0.
          5    1    3    3  501    0 -0.10367165505E+03 -0.63279727995E+02  0.69881969228E+02  0.14020597583E+03  0.47000000000E+01 0. -1.
        -11    1    4    4    0    0 -0.35663771452E+02 -0.29658030914E+02  0.14479291601E+02  0.48591699674E+02  0.00000000000E+00 0.  1.
         12    1    4    4    0    0 -0.11080897946E+03 -0.54414325753E+02 -0.87640994082E+02  0.15139515388E+03  0.00000000000E+00 0. -1.
         -5    1    5    5    0  502  0.11489970734E+03 -0.85532194734E+01  0.97578869583E+00  0.11531757227E+03  0.47000000000E+01 0.  1.
         13    1    6    6    0    0  0.52105916390E+02  0.40493155668E+02 -0.10534632267E+00  0.65990402913E+02  0.00000000000E+00 0. -1.
        -14    1    6    6    0    0  0.83138782224E+02  0.11541214847E+03  0.89443233602E+02  0.16802414458E+03  0.00000000000E+00 0.  1.
</event>
<event>
12    1  0.9966151E-001  0.3810871E+03  0.7818608E-02  0.1050649E+00
         21   -1    0    0  503  502  0.00000000000E+00  0.00000000000E+00  0.72350156555E+03  0.72350156555E+03  0.00000000000E+00 0. -1.
         21   -1    0    0  501  503 -0.00000000000E+00 -0.00000000000E+00 -0.20940521973E+03  0.20940521973E+03  0.00000000000E+00 0.  1.
          6    2    1    2  501    0 -0.32495360210E+03 -0.93020239134E+02  0.15812056533E+03  0.41142220642E+03  0.17325850729E+03 0.  0.
         24    2    3    3    0    0 -0.27183743468E+03 -0.13737468634E+02  0.11218922379E+03  0.30540870221E+03  0.81263426644E+02 0.  0.
         -6    2    1    2    0  502  0.32495360210E+03  0.93020239134E+02  0.35597578050E+03  0.52148457887E+03  0.17601079879E+03 0.  0.
        -24    2    5    5    0    0  0.14910694584E+03  0.11453617708E+03  0.18897351041E+03  0.27797517389E+03  0.78789545632E+02 0.  0.
          5    1    3    3  501    0 -0.53116167417E+02 -0.79282770500E+02  0.45931341536E+02  0.10601350421E+03  0.47000000000E+01 0. -1.
        -13    1    4    4    0    0 -0.11271700231E+03  0.17829489819E+02  0.12012539654E+02  0.11474891906E+03  0.00000000000E+00 0.  1.
         14    1    4    4    0    0 -0.15912043237E+03 -0.31566958452E+02  0.10017668414E+03  0.19065978315E+03  0.00000000000E+00 0. -1.
         -5    1    5    5    0  502  0.17584665626E+03 -0.21515937944E+02  0.16700227008E+03  0.24350940498E+03  0.47000000000E+01 0.  1.
         11    1    6    6    0    0  0.71159312018E+02  0.36282766659E+02  0.13049086404E+03  0.15299657657E+03  0.00000000000E+00 0. -1.
        -12    1    6    6    0    0  0.77947633825E+02  0.78253410418E+02  0.58482646374E+02  0.12497859732E+03  0.00000000000E+00 0.  1.
</event>
<event>
12    1  0.9966151E-001  0.1818159E+03  0.7818608E-02  0.1166805E+00
         21   -1    0    0  503  502  0.00000000000E+00  0.00000000000E+00  0.89983878126E+03  0.89983878126E+03  0.00000000000E+00 0.  1.
         21   -1    0    0  501  503 -0.00000000000E+00 -0.00000000000E+00 -0.90757495825E+02  0.90757495825E+02  0.00000000000E+00 0.  1.
          6    2    1    2  501    0  0.21062802525E+02 -0.42829244258E+02  0.78747669131E+03  0.80750127515E+03  0.17222306523E+03 0.  0.
         24    2    3    3    0    0  0.10821271961E+00 -0.79283582331E+02  0.71271325151E+03  0.72159623729E+03  0.80343342363E+02 0.  0.
         -6    2    1    2    0  502 -0.21062802525E+02  0.42829244258E+02  0.21604594123E+02  0.18309500193E+03  0.17543954922E+03 0.  0.
        -24    2    5    5    0    0  0.14681739239E+02  0.90423746548E+02  0.49059874545E+02  0.11737749029E+03  0.54576519939E+02 0.  0.
          5    1    3    3  501    0  0.20954589805E+02  0.36454338073E+02  0.74763439800E+02  0.85905037855E+02  0.47000000000E+01 0. -1.
        -11    1    4    4    0    0 -0.12727217574E+01  0.15825345485E+02  0.63645825409E+02  0.65596131535E+02  0.00000000000E+00 0.  1.
         12    1    4    4    0    0  0.13809344770E+01 -0.95108927816E+02  0.64906742610E+03  0.65600010576E+03  0.00000000000E+00 0. -1.
         -5    1    5    5    0  502 -0.35744541764E+02 -0.47594502290E+02 -0.27455280421E+02  0.65717511648E+02  0.47000000000E+01 0.  1.
         13    1    6    6    0    0 -0.20786055350E+02  0.37912510060E+02  0.18553544494E+02  0.47049468960E+02  0.00000000000E+00 0. -1.
        -14    1    6    6    0    0  0.35467794590E+02  0.52511236487E+02  0.30506330051E+02  0.70328021326E+02  0.00000000000E+00 0.  1.
</event>
<event>
12    1  0.1221871E+000  0.3086074E+03  0.7818608E-02  0.1081327E+00
         21   -1    0    0  503  502  0.00000000000E+00  0.00000000000E+00  0.25473814088E+03  0.25473814088E+03  0.00000000000E+00 0.  1.
         21   -1    0    0  501  503 -0.00000000000E+00 -0.00000000000E+00 -0.73334944764E+03  0.73334944764E+03  0.00000000000E+00 0. -1.
          6    2    1    2  501    0  0.25337709543E+03  0.22126579774E+02  0.10859109083E+03  0.32472857418E+03  0.17019719111E+03 0.  0.
         24    2    3    3    0    0  0.18142031553E+03  0.76569129693E+02  0.94090989824E+02  0.23321839800E+03  0.82228609932E+02 0.  0.
         -6    2    1    2    0  502 -0.25337709543E+03 -0.22126579774E+02 -0.58720239759E+03  0.66335901435E+03  0.17478268837E+03 0.  0.
        -24    2    5    5    0    0 -0.45371420318E+02 -0.36767997869E+02 -0.20230209436E+03  0.22557931469E+03  0.80928600534E+02 0.  0.
          5    1    3    3  501    0  0.71956779897E+02 -0.54442549919E+02  0.14500101008E+02  0.91510176178E+02  0.47000000000E+01 0. -1.
        -11    1    4    4    0    0  0.66697653050E+02 -0.42052577730E+01  0.57643755883E+02  0.88255672382E+02  0.00000000000E+00 0.  1.
         12    1    4    4    0    0  0.11472266248E+03  0.80774387466E+02  0.36447233941E+02  0.14496272562E+03  0.00000000000E+00 0. -1.
         -5    1    5    5    0  502 -0.20800567511E+03  0.14641418095E+02 -0.38490030323E+03  0.43777969965E+03  0.47000000000E+01 0.  1.
         13    1    6    6    0    0 -0.13994332203E+02 -0.73805909708E+01  0.27592305216E+01  0.16060131069E+02  0.00000000000E+00 0. -1.
        -14    1    6    6    0    0 -0.31377088116E+02 -0.29387406898E+02 -0.20506132488E+03  0.20951918362E+03  0.00000000000E+00 0.  1.
</event>
<event>
12    1  0.9966151E-001  0.2499802E+03  0.7818608E-02  0.1113387E+00
         21   -1    0    0  501  502  0.00000000000E+00  0.00000000000E+00  0.73292418231E+03  0.73292418231E+03  0.00000000000E+00 0. -1.
         21   -1    0    0  502  503 -0.00000000000E+00 -0.00000000000E+00 -0.20621968019E+03  0.20621968019E+03  0.00000000000E+00 0. -1.
         -6    2    1    2    0  503 -0.15888662774E+03 -0.87134220459E+02  0.62329875480E+03  0.67155897803E+03  0.17219985595E+03 0.  0.
        -24    2    3    3    0    0 -0.12452872198E+03 -0.60999795218E+02  0.25764646938E+03  0.30333736310E+03  0.80021716131E+02 0.  0.
          6    2    1    2  501    0  0.15888662774E+03  0.87134220459E+02 -0.96594252689E+02  0.26758488447E+03  0.17156307264E+03 0.  0.
         24    2    5    5    0    0  0.77594585996E+02  0.79463894450E+02  0.51133225099E+01  0.13707147211E+03  0.80168647880E+02 0.  0.
          5    1    5    5  501    0  0.81292041740E+02  0.76703260083E+01 -0.10170757520E+03  0.13051341235E+03  0.47000000000E+01 0. -1.
        -13    1    6    6    0    0  0.19934977262E+01  0.49419445850E+02  0.21757937079E+02  0.54033910530E+02  0.00000000000E+00 0.  1.
         14    1    6    6    0    0  0.75601088270E+02  0.30044448601E+02 -0.16644614569E+02  0.83037561582E+02  0.00000000000E+00 0. -1.
         -5    1    3    3    0  503 -0.34357905754E+02 -0.26134425241E+02  0.36565228542E+03  0.36822161493E+03  0.47000000000E+01 0.  1.
         11    1    4    4    0    0 -0.10310803711E+03 -0.11031978562E+02  0.19095722078E+03  0.21729618505E+03  0.00000000000E+00 0. -1.
        -12    1    4    4    0    0 -0.21420684868E+02 -0.49967816656E+02  0.66689248607E+02  0.86041178056E+02  0.00000000000E+00 0.  1.
</event>
<event>
12    1  0.9966151E-001  0.3729676E+03  0.7818608E-02  0.1053727E+00
         21   -1    0    0  501  502  0.00000000000E+00  0.00000000000E+00  0.10748157571E+04  0.10748157571E+04  0.00000000000E+00 0.  1.
         21   -1    0    0  502  503 -0.00000000000E+00 -0.00000000000E+00 -0.24712574040E+03  0.24712574040E+03  0.00000000000E+00 0.  1.
         -6    2    1    2    0  503  0.32810757996E+03 -0.33822214982E+02 -0.42968458045E+02  0.37543453916E+03  0.17408698561E+03 0.  0.
        -24    2    3    3    0    0  0.25159240221E+03  0.29100397851E+02  0.48368000504E+01  0.26533794370E+03  0.78963660794E+02 0.  0.
          6    2    1    2  501    0 -0.32810757996E+03  0.33822214982E+02  0.87065847478E+03  0.94650695837E+03  0.17038402590E+03 0.  0.
         24    2    5    5    0    0 -0.78588831515E+02  0.39087377629E+02  0.21884412007E+03  0.24853033213E+03  0.78552845735E+02 0.  0.
          5    1    5    5  501    0 -0.24951874844E+03 -0.52651626467E+01  0.65181435471E+03  0.69797662623E+03  0.47000000000E+01 0. -1.
        -13    1    6    6    0    0 -0.37209136655E+01  0.15509226135E+02  0.12576790479E+03  0.12677518357E+03  0.00000000000E+00 0.  1.
         14    1    6    6    0    0 -0.74867917849E+02  0.23578151494E+02  0.93076215271E+02  0.12175514856E+03  0.00000000000E+00 0. -1.
         -5    1    3    3    0  503  0.76515177749E+02 -0.62922612833E+02 -0.47805258096E+02  0.11009659547E+03  0.47000000000E+01 0.  1.
         13    1    4    4    0    0  0.15063123504E+03  0.26319285558E+02 -0.34827325632E+02  0.15682925866E+03  0.00000000000E+00 0. -1.
        -14    1    4    4    0    0  0.10096116717E+03  0.27811122930E+01  0.39664125682E+02  0.10850868503E+03  0.00000000000E+00 0.  1.
</event>
<event>
12    1  0.9966151E-001  0.1833687E+03  0.7818608E-02  0.1165056E+00
         21   -1    0    0  503  502  0.00000000000E+00  0.00000000000E+00  0.14321856889E+03  0.14321856889E+03  0.00000000000E+00 0.  1.
         21   -1    0    0  501  503 -0.00000000000E+00 -0.00000000000E+00 -0.24107792327E+03  0.24107792327E+03  0.00000000000E+00 0.  1.
          6    2    1    2  501    0  0.44255220524E+02 -0.36808299459E+02 -0.85485556486E+02  0.20051072465E+03  0.17199824092E+03 0.  0.
         24    2    3    3    0    0  0.73130242889E+02  0.22417772869E+02 -0.78753666512E+02  0.13411115461E+03  0.77026442443E+02 0.  0.
         -6    2    1    2    0  502 -0.44255220524E+02  0.36808299459E+02 -0.12373797893E+02  0.18378576751E+03  0.17409974731E+03 0.  0.
        -24    2    5    5    0    0 -0.21080504421E+01  0.79855078433E+02 -0.37491132664E+02  0.11834587424E+03  0.78859897871E+02 0.  0.
          5    1    3    3  501    0 -0.28875022365E+02 -0.59226072328E+02 -0.67318899740E+01  0.66399570048E+02  0.47000000000E+01 0. -1.
        -13    1    4    4    0    0  0.57475449171E+02  0.20720352509E+02 -0.79898690970E+01  0.61616542208E+02  0.00000000000E+00 0.  1.
         14    1    4    4    0    0  0.15654793718E+02  0.16974203603E+01 -0.70763797415E+02  0.72494612399E+02  0.00000000000E+00 0. -1.
         -5    1    5    5    0  502 -0.42147170082E+02 -0.43046778974E+02  0.25117334771E+02  0.65439893276E+02  0.47000000000E+01 0.  1.
         13    1    6    6    0    0 -0.38165622881E+02  0.37378426663E+02 -0.32207693535E+02  0.62378658791E+02  0.00000000000E+00 0. -1.
        -14    1    6    6    0    0  0.36057572439E+02  0.42476651770E+02 -0.52834391292E+01  0.55967215446E+02  0.00000000000E+00 0.  1.
</event>
<event>
12    1  0.9966151E-001  0.2348094E+03  0.7818608E-02  0.1123419E+00
         21   -1    0    0  503  502  0.00000000000E+00  0.00000000000E+00  0.35037716150E+03  0.35037716150E+03  0.00000000000E+00 0.  1.
         21   -1    0    0  501  503 -0.00000000000E+00 -0.00000000000E+00 -0.92237327568E+03  0.92237327568E+03  0.00000000000E+00 0.  1.
          6    2    1    2  501    0 -0.15904216148E+03  0.10942717404E+02  0.29366087119E+03  0.37599487470E+03  0.17239862628E+03 0.  0.
         24    2    3    3    0    0 -0.11132650203E+03 -0.34259062626E+02  0.10299270892E+03  0.17426132970E+03  0.78690784172E+02 0.  0.
         -6    2    1    2    0  502  0.15904216148E+03 -0.10942717404E+02 -0.86565698536E+03  0.89675556247E+03  0.17144786474E+03 0.  0.
        -24    2    5    5    0    0  0.44011387243E+02  0.50835152456E+02 -0.43125340682E+03  0.44312890620E+03  0.76567040479E+02 0.  0.
          5    1    3    3  501    0 -0.47715659455E+02  0.45201780030E+02  0.19066816227E+03  0.20173354500E+03  0.47000000000E+01 0. -1.
        -11    1    4    4    0    0 -0.14003896736E+02  0.23529811386E+02  0.20079416681E+02  0.33955030878E+02  0.00000000000E+00 0.  1.
         12    1    4    4    0    0 -0.97322605293E+02 -0.57788874012E+02  0.82913292236E+02  0.14030629882E+03  0.00000000000E+00 0. -1.
         -5    1    5    5    0  502  0.11503077424E+03 -0.61777869860E+02 -0.43440357855E+03  0.45362665627E+03  0.47000000000E+01 0.  1.
         11    1    6    6    0    0 -0.80408016246E+00  0.53890015203E+02 -0.18015038574E+03  0.18803973454E+03  0.00000000000E+00 0. -1.
        -12    1    6    6    0    0  0.44815467406E+02 -0.30548627465E+01 -0.25110302107E+03  0.25508917166E+03  0.00000000000E+00 0.  1.
</event>
<event>
12    1  0.9966151E-001  0.1843439E+03  0.7818608E-02  0.1164190E+00
         21   -1    0    0  501  502  0.00000000000E+00  0.00000000000E+00  0.52993441752E+02  0.52993441752E+02  0.00000000000E+00 0. -1.
         21   -1    0    0  502  503 -0.00000000000E+00 -0.00000000000E+00 -0.10013191003E+04  0.10013191003E+04  0.00000000000E+00 0. -1.
         -6    2    1    2    0  503 -0.60421791474E+02 -0.10557284891E+01 -0.15650603855E+03  0.24181982132E+03  0.17415733815E+03 0.  0.
        -24    2    3    3    0    0  0.36906186576E+02 -0.18618685867E+00 -0.48077398544E+02  0.96037958980E+02  0.74496657919E+02 0.  0.
          6    2    1    2  501    0  0.60421791474E+02  0.10557284891E+01 -0.79181961998E+03  0.81249272072E+03  0.17179698245E+03 0.  0.
         24    2    5    5    0    0  0.42994310127E+01 -0.34155693352E+02 -0.27661177688E+03  0.29302108995E+03  0.90344825825E+02 0.  0.
          5    1    5    5  501    0  0.56122360461E+02  0.35211421841E+02 -0.51520784310E+03  0.51947163076E+03  0.47000000000E+01 0. -1.
        -11    1    6    6    0    0  0.14251655470E+02 -0.54847151245E+02 -0.10014347864E+03  0.11506535533E+03  0.00000000000E+00 0.  1.
         12    1    6    6    0    0 -0.99522244575E+01  0.20691457892E+02 -0.17646829824E+03  0.17795573462E+03  0.00000000000E+00 0. -1.
         -5    1    3    3    0  503 -0.97327978050E+02 -0.86954163044E+00 -0.10842864000E+03  0.14578186234E+03  0.47000000000E+01 0.  1.
         13    1    4    4    0    0  0.53965421002E+02 -0.15875890582E+02 -0.46186078852E+02  0.72783682549E+02  0.00000000000E+00 0. -1.
        -14    1    4    4    0    0 -0.17059234426E+02  0.15689703724E+02 -0.18913196924E+01  0.23254276431E+02  0.00000000000E+00 0.  1.
</event>
<event>
12    1  0.9966151E-001  0.1840341E+03  0.7818608E-02  0.1164022E+00
         21   -1    0    0  503  502  0.00000000000E+00  0.00000000000E+00  0.65632417939E+03  0.65632417939E+03  0.00000000000E+00 0.  1.
         21   -1    0    0  501  503 -0.00000000000E+00 -0.00000000000E+00 -0.55262118919E+02  0.55262118919E+02  0.00000000000E+00 0.  1.
          6    2    1    2  501    0  0.52200713233E+02  0.39227876578E+02  0.20820408556E+03  0.27788037255E+03  0.17206051099E+03 0.  0.
         24    2    3    3    0    0  0.12970599896E+02  0.11835071486E+02  0.20608426554E+02  0.84221939115E+02  0.79751629478E+02 0.  0.
         -6    2    1    2    0  502 -0.52200713233E+02 -0.39227876578E+02  0.39285797491E+03  0.43370592576E+03  0.17175476944E+03 0.  0.
        -24    2    5    5    0    0 -0.59788279007E+02  0.27521928349E+02  0.31039919360E+03  0.32724162081E+03  0.80045762904E+02 0.  0.
          5    1    3    3  501    0  0.39230113337E+02  0.27392805092E+02  0.18759565900E+03  0.19365843343E+03  0.47000000000E+01 0. -1.
        -11    1    4    4    0    0  0.20810792493E+02  0.43035894173E+02  0.38772807036E+01  0.47960510602E+02  0.00000000000E+00 0.  1.
         12    1    4    4    0    0 -0.78401925973E+01 -0.31200822687E+02  0.16731145851E+02  0.36261428513E+02  0.00000000000E+00 0. -1.
         -5    1    5    5    0  502  0.75875657740E+01 -0.66749804927E+02  0.82458781317E+02  0.10646430495E+03  0.47000000000E+01 0.  1.
         13    1    6    6    0    0  0.19510277562E+02  0.11743053591E+02  0.69716197778E+02  0.73340974024E+02  0.00000000000E+00 0. -1.
        -14    1    6    6    0    0 -0.79298556569E+02  0.15778874758E+02  0.24068299582E+03  0.25390064679E+03  0.00000000000E+00 0.  1.
</event>
<event>
12    1  0.9966151E-001  0.1871889E+03  0.7818608E-02  0.1161326E+00
         21   -1    0    0  503  502  0.00000000000E+00  0.00000000000E+00  0.40684902401E+03  0.40684902401E+03  0.00000000000E+00 0.  1.
         21   -1    0    0  501  503 -0.00000000000E+00 -0.00000000000E+00 -0.89026557098E+02  0.89026557098E+02  0.00000000000E+00 0.  1.
          6    2    1    2  501    0 -0.70648305606E+02 -0.46700591152E+01  0.20866711241E+03  0.28032420850E+03  0.17328215584E+03 0.  0.
         24    2    3    3    0    0  0.18216107418E+02 -0.36519869169E+02  0.82409874467E+02  0.12260840576E+03  0.81091962232E+02 0.  0.
         -6    2    1    2    0  502  0.70648305606E+02  0.46700591152E+01  0.10915535451E+03  0.21555137261E+03  0.17185607432E+03 0.  0.
        -24    2    5    5    0    0  0.81155845678E+02  0.54246820653E+02  0.46262710414E+02  0.13464501709E+03  0.80374457470E+02 0.  0.
          5    1    3    3  501    0 -0.88864413024E+02  0.31849810054E+02  0.12625723794E+03  0.15771580274E+03  0.47000000000E+01 0. -1.
        -13    1    4    4    0    0 -0.11614819572E+02 -0.79883478158E+01  0.80029041496E+02  0.81261092888E+02  0.00000000000E+00 0.  1.
         14    1    4    4    0    0  0.29830926989E+02 -0.28531521353E+02  0.23808329710E+01  0.41347312868E+02  0.00000000000E+00 0. -1.
         -5    1    5    5    0  502 -0.10507540071E+02 -0.49576761538E+02  0.62892644096E+02  0.80906355525E+02  0.47000000000E+01 0.  1.
         11    1    6    6    0    0  0.84936913623E+02  0.17294356518E+02  0.44555040761E+02  0.97460380260E+02  0.00000000000E+00 0. -1.
        -12    1    6    6    0    0 -0.37810679459E+01  0.36952464135E+02  0.17076696534E+01  0.37184636829E+02  0.00000000000E+00 0.  1.
</event>
<event>
12    1  0.9966151E-001  0.2084159E+03  0.7818608E-02  0.1143220E+00
         21   -1    0    0  503  502  0.00000000000E+00  0.00000000000E+00  0.10033022377E+03  0.10033022377E+03  0.00000000000E+00 0.  1.
         21   -1    0    0  501  503 -0.00000000000E+00 -0.00000000000E+00 -0.68489666341E+03  0.68489666341E+03  0.00000000000E+00 0.  1.
          6    2    1    2  501    0  0.11104818981E+03 -0.29000624531E+02 -0.51379245801E+02  0.21275351122E+03  0.17161437281E+03 0.  0.
         24    2    3    3    0    0  0.13142913148E+03  0.23983714997E+01 -0.67591125773E+02  0.17169020903E+03  0.87347574696E+02 0.  0.
         -6    2    1    2    0  502 -0.11104818981E+03  0.29000624531E+02 -0.53318719384E+03  0.57247337595E+03  0.17396679516E+03 0.  0.
        -24    2    5    5    0    0 -0.68752745734E+02  0.47813753270E+02 -0.16701444020E+03  0.20335630250E+03  0.80292387467E+02 0.  0.
          5    1    3    3  501    0 -0.20380941671E+02 -0.31398996031E+02  0.16211879972E+02  0.41063302198E+02  0.47000000000E+01 0. -1.
        -11    1    4    4    0    0 -0.10975680949E+02  0.77092821060E+01  0.11714725080E+01  0.13463690085E+02  0.00000000000E+00 0.  1.
         12    1    4    4    0    0  0.14240481243E+03 -0.53109106063E+01 -0.68762598281E+02  0.15822651894E+03  0.00000000000E+00 0. -1.
         -5    1    5    5    0  502 -0.42295444074E+02 -0.18813128739E+02 -0.36617275365E+03  0.36911707345E+03  0.47000000000E+01 0.  1.
         11    1    6    6    0    0  0.18086545237E+01  0.45177813573E+02 -0.59545238364E+02  0.74765911232E+02  0.00000000000E+00 0. -1.
        -12    1    6    6    0    0 -0.70561400257E+02  0.26359396961E+01 -0.10746920183E+03  0.12859039127E+03  0.00000000000E+00 0.  1.
</event>
<event>
12    1  0.9966151E-001  0.5548912E+03  0.7818608E-02  0.1000379E+00
         21   -1    0    0  503  502  0.00000000000E+00  0.00000000000E+00  0.76721315127E+03  0.76721315127E+03  0.00000000000E+00 0. -1.
         21   -1    0    0  501  503 -0.00000000000E+00 -0.00000000000E+00 -0.12099097215E+04  0.12099097215E+04  0.00000000000E+00 0.  1.
          6    2    1    2  501    0  0.46359641945E+03  0.25066624750E+03 -0.10295476942E+04  0.11694729135E+04  0.17304113081E+03 0.  0.
         24    2    3    3    0    0  0.91287644646E+02  0.53533198435E+02 -0.22442447626E+03  0.26078113465E+03  0.80257194357E+02 0.  0.
         -6    2    1    2    0  502 -0.46359641945E+03 -0.25066624750E+03  0.58685112398E+03  0.80764995929E+03  0.17363469483E+03 0.  0.
        -24    2    5    5    0    0 -0.29298526119E+03 -0.78733189000E+02  0.31056825721E+03  0.44019457913E+03  0.72659113603E+02 0.  0.
          5    1    3    3  501    0  0.37230877481E+03  0.19713304907E+03 -0.80512321796E+03  0.90869177884E+03  0.47000000000E+01 0. -1.
        -13    1    4    4    0    0  0.33092848675E+01  0.41303800282E+02 -0.49160332449E+02  0.64293806627E+02  0.00000000000E+00 0.  1.
         14    1    4    4    0    0  0.87978359779E+02  0.12229398152E+02 -0.17526414381E+03  0.19648732802E+03  0.00000000000E+00 0. -1.
         -5    1    5    5    0  502 -0.17061115827E+03 -0.17193305850E+03  0.27628286677E+03  0.36745538015E+03  0.47000000000E+01 0.  1.
         11    1    6    6    0    0 -0.22253706287E+03 -0.88639138285E+02  0.25551582400E+03  0.35023988565E+03  0.00000000000E+00 0. -1.
        -12    1    6    6    0    0 -0.70448198313E+02  0.99059492850E+01  0.55052433210E+02  0.89954693481E+02  0.00000000000E+00 0.  1.
</event>
<event>
12    1  0.9966151E-001  0.4276896E+03  0.7818608E-02  0.1034593E+00
         21   -1    0    0  503  502  0.00000000000E+00  0.00000000000E+00  0.12574058100E+04  0.12574058100E+04  0.00000000000E+00 0.  1.
         21   -1    0    0  501  503 -0.00000000000E+00 -0.00000000000E+00 -0.29619677759E+03  0.29619677759E+03  0.00000000000E+00 0.  1.
          6    2    1    2  501    0  0.12131900307E+02  0.39123747932E+03 -0.73526180520E+02  0.43396372919E+03  0.17234985002E+03 0.  0.
         24    2    3    3    0    0  0.67108377547E+02  0.15687478186E+03 -0.45070204436E+02  0.19151761232E+03  0.74393823536E+02 0.  0.
         -6    2    1    2    0  502 -0.12131900307E+02 -0.39123747932E+03  0.10347352130E+04  0.11196388584E+04  0.17233764578E+03 0.  0.
        -24    2    5    5    0    0 -0.57204224698E+02 -0.33966671268E+03  0.79035474596E+03  0.86579843405E+03  0.79375720018E+02 0.  0.
          5    1    3    3  501    0 -0.54976477240E+02  0.23436269746E+03 -0.28455976084E+02  0.24244611687E+03  0.47000000000E+01 0. -1.
        -11    1    4    4    0    0 -0.97544945453E+01 -0.57137674344E+00 -0.75270759576E+01  0.12334241269E+02  0.00000000000E+00 0.  1.
         12    1    4    4    0    0  0.76862872092E+02  0.15744615860E+03 -0.37543128479E+02  0.17918337105E+03  0.00000000000E+00 0. -1.
         -5    1    5    5    0  502  0.45072324391E+02 -0.51570766636E+02  0.24438046700E+03  0.25384042438E+03  0.47000000000E+01 0.  1.
         11    1    6    6    0    0 -0.52005469624E+01 -0.77246193251E+02  0.26748448766E+03  0.27846359043E+03  0.00000000000E+00 0. -1.
        -12    1    6    6    0    0 -0.52003677735E+02 -0.26242051943E+03  0.52287025830E+03  0.58733484362E+03  0.00000000000E+00 0.  1.
</event>
<event>
12    1  0.9966151E-001  0.2311711E+03  0.7818608E-02  0.1128788E+00
         21   -1    0    0  501  502  0.00000000000E+00  0.00000000000E+00  0.10487470073E+04  0.10487470073E+04  0.00000000000E+00 0. -1.
         21   -1    0    0  502  503 -0.00000000000E+00 -0.00000000000E+00 -0.86466438565E+02  0.86466438565E+02  0.00000000000E+00 0. -1.
         -6    2    1    2    0  503 -0.11132496252E+03 -0.59839810002E+02  0.87209816543E+03  0.90221687645E+03  0.19356144209E+03 0.  0.
        -24    2    3    3    0    0  0.90046819841E+01  0.19749016359E+02  0.30157429446E+03  0.31371608462E+03  0.83663724102E+02 0.  0.
          6    2    1    2  501    0  0.11132496252E+03  0.59839810002E+02  0.90182403317E+02  0.23299656943E+03  0.17372531582E+03 0.  0.
         24    2    5    5    0    0  0.98749285711E+02  0.10622798925E+03  0.79373355640E+02  0.18350984058E+03  0.79623645197E+02 0.  0.
          5    1    5    5  501    0  0.12575676809E+02 -0.46388179245E+02  0.10809047677E+02  0.49486728853E+02  0.47000000000E+01 0. -1.
        -11    1    6    6    0    0  0.10630214502E+03  0.68229675221E+02  0.55233954940E+02  0.13786306392E+03  0.00000000000E+00 0.  1.
         12    1    6    6    0    0 -0.75528593064E+01  0.37998314026E+02  0.24139400701E+02  0.45646776652E+02  0.00000000000E+00 0. -1.
         -5    1    3    3    0  503 -0.12032964450E+03 -0.79588826361E+02  0.57052387098E+03  0.58850079183E+03  0.47000000000E+01 0.  1.
         13    1    4    4    0    0  0.24068911307E+02 -0.25440531227E+02  0.17511834376E+03  0.17858602253E+03  0.00000000000E+00 0. -1.
        -14    1    4    4    0    0 -0.15064229323E+02  0.45189547586E+02  0.12645595069E+03  0.13513006210E+03  0.00000000000E+00 0.  1.
</event>
<event>
12    1  0.9966151E-001  0.2171036E+03  0.7818608E-02  0.1136109E+00
         21   -1    0    0  501  502  0.00000000000E+00  0.00000000000E+00  0.15497545328E+03  0.15497545328E+03  0.00000000000E+00 0. -1.
         21   -1    0    0  502  503 -0.00000000000E+00 -0.00000000000E+00 -0.79467376417E+03  0.79467376417E+03  0.00000000000E+00 0. -1.
         -6    2    1    2    0  503 -0.80720942495E+02 -0.10565345496E+03  0.53412797029E+02  0.22333179393E+03  0.17130569224E+03 0.  0.
        -24    2    3    3    0    0 -0.10166654668E+03 -0.87528197322E+02  0.91157198674E+02  0.17627891778E+03  0.69045998746E+02 0.  0.
          6    2    1    2  501    0  0.80720942495E+02  0.10565345496E+03 -0.69311110792E+03  0.72631742352E+03  0.17162595577E+03 0.  0.
         24    2    5    5    0    0  0.24757906941E+01  0.83022884429E+02 -0.51873279728E+03  0.53379643318E+03  0.94636083086E+02 0.  0.
          5    1    5    5  501    0  0.78245151801E+02  0.22630570531E+02 -0.17437831063E+03  0.19252099034E+03  0.47000000000E+01 0. -1.
        -13    1    6    6    0    0 -0.20347105325E+02  0.64657455476E+02 -0.15864603119E+03  0.17252001176E+03  0.00000000000E+00 0.  1.
         14    1    6    6    0    0  0.22822896019E+02  0.18365428953E+02 -0.36008676609E+03  0.36127642142E+03  0.00000000000E+00 0. -1.
         -5    1    3    3    0  503  0.20945604183E+02 -0.18125257639E+02 -0.37744401644E+02  0.47052876156E+02  0.47000000000E+01 0.  1.
         13    1    4    4    0    0 -0.19459969915E+02  0.69220913877E+01  0.31279950702E+02  0.37483877790E+02  0.00000000000E+00 0. -1.
        -14    1    4    4    0    0 -0.82206576763E+02 -0.94450288709E+02  0.59877247972E+02  0.13879503999E+03  0.00000000000E+00 0.  1.
</event>
<event>
12    1  0.9966151E-001  0.3018564E+03  0.7818608E-02  0.1084324E+00
         21   -1    0    0  501  502  0.00000000000E+00  0.00000000000E+00  0.14689509780E+04  0.14689509780E+04  0.00000000000E+00 0. -1.
         21   -1    0    0  502  503 -0.00000000000E+00 -0.00000000000E+00 -0.80401042877E+02  0.80401042877E+02  0.00000000000E+00 0. -1.
         -6    2    1    2    0  503  0.37656374526E+02 -0.24489544764E+03  0.10646628145E+04  0.11066104103E+04  0.17230179555E+03 0.  0.
        -24    2    3    3    0    0 -0.29278522916E+02 -0.20471809178E+03  0.75095360168E+03  0.78329932073E+03  0.82823818886E+02 0.  0.
          6    2    1    2  501    0 -0.37656374526E+02  0.24489544764E+03  0.32388712059E+03  0.44274161056E+03  0.17241080018E+03 0.  0.
         24    2    5    5    0    0  0.48733949072E+01  0.17634646015E+03  0.15206847977E+03  0.25286933689E+03  0.98469563909E+02 0.  0.
          5    1    5    5  501    0 -0.42529769433E+02  0.68548987492E+02  0.17181864082E+03  0.18987227366E+03  0.47000000000E+01 0. -1.
        -11    1    6    6    0    0 -0.39828452630E+02  0.48817546205E+02  0.72488521198E+02  0.96041887538E+02  0.00000000000E+00 0.  1.
         12    1    6    6    0    0  0.44701847537E+02  0.12752891394E+03  0.79579958572E+02  0.15682744936E+03  0.00000000000E+00 0. -1.
         -5    1    3    3    0  503  0.66934897442E+02 -0.40177355863E+02  0.31370921282E+03  0.32331108955E+03  0.47000000000E+01 0.  1.
         11    1    4    4    0    0 -0.33073326883E+02 -0.19925808619E+03  0.61781156658E+03  0.64999135507E+03  0.00000000000E+00 0. -1.
        -12    1    4    4    0    0  0.37948039670E+01 -0.54600055841E+01  0.13314203510E+03  0.13330796566E+03  0.00000000000E+00 0.  1.
</event>
<event>
12    1  0.9966151E-001  0.2139869E+03  0.7818608E-02  0.1138710E+00
         21   -1    0    0  501  502  0.00000000000E+00  0.00000000000E+00  0.10269895178E+03  0.10269895178E+03  0.00000000000E+00 0.  1.
         21   -1    0    0  502  503 -0.00000000000E+00 -0.00000000000E+00 -0.44439825553E+03  0.44439825553E+03  0.00000000000E+00 0.  1.
         -6    2    1    2    0  503  0.12333733200E+03  0.27503502677E+02 -0.15630459038E+03  0.26499340717E+03  0.17269001345E+03 0.  0.
        -24    2    3    3    0    0  0.10984395434E+03 -0.41761095891E+02 -0.11806257221E+03  0.18459317204E+03  0.79537316844E+02 0.  0.
          6    2    1    2  501    0 -0.12333733200E+03 -0.27503502677E+02 -0.18539471337E+03  0.28210380014E+03  0.17100530455E+03 0.  0.
         24    2    5    5    0    0 -0.73532225825E+02  0.10469257958E+02 -0.19026838037E+03  0.21910918306E+03  0.79310679835E+02 0.  0.
          5    1    5    5  501    0 -0.49805106176E+02 -0.37972760635E+02  0.48736669969E+01  0.62994617083E+02  0.47000000000E+01 0. -1.
        -13    1    6    6    0    0  0.67912322271E+01  0.15952315434E+02 -0.84088090072E+02  0.85856881465E+02  0.00000000000E+00 0.  1.
         14    1    6    6    0    0 -0.80323458052E+02 -0.54830574760E+01 -0.10618029029E+03  0.13325230159E+03  0.00000000000E+00 0. -1.
         -5    1    3    3    0  503  0.13493377659E+02  0.69264598567E+02 -0.38242018168E+02  0.80400235130E+02  0.47000000000E+01 0.  1.
         13    1    4    4    0    0  0.69796967832E+02  0.13549366075E+02 -0.77476702220E+02  0.10515627146E+03  0.00000000000E+00 0. -1.
        -14    1    4    4    0    0  0.40046986510E+02 -0.55310461966E+02 -0.40585869994E+02  0.79436900585E+02  0.00000000000E+00 0.  1.
</event>
<event>
12    1  0.9966151E-001  0.1915647E+03  0.7818608E-02  0.1157245E+00
         21   -1    0    0  501  502  0.00000000000E+00  0.00000000000E+00  0.50023135827E+03  0.50023135827E+03  0.00000000000E+00 0. -1.
         21   -1    0    0  502  503 -0.00000000000E+00 -0.00000000000E+00 -0.73310167003E+02  0.73310167003E+02  0.00000000000E+00 0. -1.
         -6    2    1    2    0  503  0.61803807259E+02 -0.56862437124E+02  0.19558626351E+03  0.27318690046E+03  0.17124266045E+03 0.  0.
        -24    2    3    3    0    0  0.12608244254E+02  0.36052574287E+02  0.96082624287E+02  0.12835435237E+03  0.76054014671E+02 0.  0.
          6    2    1    2  501    0 -0.61803807259E+02  0.56862437124E+02  0.23133492775E+03  0.30035462482E+03  0.17217434334E+03 0.  0.
         24    2    5    5    0    0 -0.10118489575E+03  0.12716205608E+02  0.13875036869E+03  0.19038303547E+03  0.81203142596E+02 0.  0.
          5    1    5    5  501    0  0.39381088493E+02  0.44146231516E+02  0.92584559061E+02  0.10997158935E+03  0.47000000000E+01 0. -1.
        -11    1    6    6    0    0 -0.29247543251E+02  0.41909091461E+02  0.70081470798E+02  0.86736401139E+02  0.00000000000E+00 0.  1.
         12    1    6    6    0    0 -0.71937352501E+02 -0.29192885853E+02  0.68668897895E+02  0.10364663433E+03  0.00000000000E+00 0. -1.
         -5    1    3    3    0  503  0.49195563005E+02 -0.92915011411E+02  0.99503639228E+02  0.14483254808E+03  0.47000000000E+01 0.  1.
         13    1    4    4    0    0 -0.12143156047E+02 -0.17404197044E+02  0.86255522548E+01  0.22907694454E+02  0.00000000000E+00 0. -1.
        -14    1    4    4    0    0  0.24751400301E+02  0.53456771330E+02  0.87457072032E+02  0.10544665792E+03  0.00000000000E+00 0.  1.
</event>
<event>
12    1  0.9966151E-001  0.2204015E+03  0.7818608E-02  0.1134082E+00
         21   -1    0    0  503  502  0.00000000000E+00  0.00000000000E+00  0.37034917393E+03  0.37034917393E+03  0.00000000000E+00 0.  1.
         21   -1    0    0  501  503 -0.00000000000E+00 -0.00000000000E+00 -0.12958650202E+03  0.12958650202E+03  0.00000000000E+00 0.  1.
          6    2    1    2  501    0 -0.89100003946E+02 -0.10595996555E+03  0.12038774734E+03  0.24880436123E+03  0.16805973775E+03 0.  0.
         24    2    3    3    0    0 -0.52845574093E+02 -0.60557276402E+01  0.10929583854E+02  0.96166161585E+02  0.79367173896E+02 0.  0.
         -6    2    1    2    0  502  0.89100003946E+02  0.10595996555E+03  0.12037492457E+03  0.25113131473E+03  0.17149486805E+03 0.  0.
        -24    2    5    5    0    0  0.12171367350E+03  0.47327608501E+02  0.85670254631E+02  0.17544836519E+03  0.79928815061E+02 0.  0.
          5    1    3    3  501    0 -0.36254429853E+02 -0.99904237911E+02  0.10945816349E+03  0.15263819964E+03  0.47000000000E+01 0. -1.
        -11    1    4    4    0    0  0.13944041332E+01 -0.24164567354E+02 -0.19779778738E+02  0.31258763975E+02  0.00000000000E+00 0.  1.
         12    1    4    4    0    0 -0.54239978226E+02  0.18108839714E+02  0.30709362592E+02  0.64907397610E+02  0.00000000000E+00 0. -1.
         -5    1    5    5    0  502 -0.32613669550E+02  0.58632357050E+02  0.34704669941E+02  0.75682949536E+02  0.47000000000E+01 0.  1.
         13    1    6    6    0    0  0.47249741350E+02  0.58303441005E+02  0.59462644937E+02  0.95747769862E+02  0.00000000000E+00 0. -1.
        -14    1    6    6    0    0  0.74463932146E+02 -0.10975832504E+02  0.26207609694E+02  0.79700595329E+02  0.00000000000E+00 0.  1.
</event>
<event>
12    1  0.9966151E-001  0.4046875E+03  0.7818608E-02  0.1042170E+00
         21   -1    0    0  501  502  0.00000000000E+00  0.00000000000E+00  0.11543530530E+04  0.11543530530E+04  0.00000000000E+00 0.  1.
         21   -1    0    0  502  503 -0.00000000000E+00 -0.00000000000E+00 -0.15986286483E+03  0.15986286483E+03  0.00000000000E+00 0.  1.
         -6    2    1    2    0  503 -0.74635785043E+02 -0.35820188219E+03  0.71772304034E+03  0.82395286992E+03  0.17289557659E+03 0.  0.
        -24    2    3    3    0    0 -0.73386384634E+02 -0.27831515685E+03  0.41924090245E+03  0.51492677632E+03  0.80881164096E+02 0.  0.
          6    2    1    2  501    0  0.74635785043E+02  0.35820188219E+03  0.27676714783E+03  0.49026304790E+03  0.17285460133E+03 0.  0.
         24    2    5    5    0    0  0.24095500187E+02  0.28996711237E+03  0.14825953761E+03  0.33616372898E+03  0.79772443899E+02 0.  0.
          5    1    5    5  501    0  0.50540284856E+02  0.68234769822E+02  0.12850761022E+03  0.15409931891E+03  0.47000000000E+01 0. -1.
        -13    1    6    6    0    0  0.41489560309E+02  0.24925271167E+03  0.14600569137E+03  0.29183207466E+03  0.00000000000E+00 0.  1.
         14    1    6    6    0    0 -0.17394060122E+02  0.40714400707E+02  0.22538462418E+01  0.44331654327E+02  0.00000000000E+00 0. -1.
         -5    1    3    3    0  503 -0.12494004085E+01 -0.79886725347E+02  0.29848213789E+03  0.30902609360E+03  0.47000000000E+01 0.  1.
         11    1    4    4    0    0 -0.16114585288E+02 -0.18311544164E+03  0.30090170853E+03  0.35260854077E+03  0.00000000000E+00 0. -1.
        -12    1    4    4    0    0 -0.57271799346E+02 -0.95199715206E+02  0.11833919392E+03  0.16231823555E+03  0.00000000000E+00 0.  1.
</event>
<event>
12    1  0.9966151E-001  0.2607592E+03  0.7818608E-02  0.1106716E+00
         21   -1    0    0  501  502  0.00000000000E+00  0.00000000000E+00  0.67939493199E+03  0.67939493199E+03  0.00000000000E+00 0.  1.
         21   -1    0    0  502  503 -0.00000000000E+00 -0.00000000000E+00 -0.10260526531E+03  0.10260526531E+03  0.00000000000E+00 0.  1.
         -6    2    1    2    0  503 -0.18898610886E+03  0.50582434262E+02  0.22631583017E+03  0.34527411150E+03  0.17239786858E+03 0.  0.
        -24    2    3    3    0    0 -0.12524685450E+03  0.96592261259E+02  0.18566004571E+03  0.25664804572E+03  0.79885713993E+02 0.  0.
          6    2    1    2  501    0  0.18898610886E+03 -0.50582434262E+02  0.35047383651E+03  0.43672608580E+03  0.17211458958E+03 0.  0.
         24    2    5    5    0    0  0.15699822541E+03 -0.88834101547E+02  0.21168708114E+03  0.28917857412E+03  0.79201559518E+02 0.  0.
          5    1    5    5  501    0  0.31987883453E+02  0.38251667285E+02  0.13878675537E+03  0.14754751169E+03  0.47000000000E+01 0. -1.
        -11    1    6    6    0    0  0.51721722299E+02 -0.11552068031E+02  0.11519621556E+03  0.12680203040E+03  0.00000000000E+00 0.  1.
         12    1    6    6    0    0  0.10527650311E+03 -0.77282033516E+02  0.96490865575E+02  0.16237654372E+03  0.00000000000E+00 0. -1.
         -5    1    3    3    0  503 -0.63739254357E+02 -0.46009826997E+02  0.40655784453E+02  0.88626065780E+02  0.47000000000E+01 0.  1.
         13    1    4    4    0    0 -0.11904800077E+03  0.51976193272E+02  0.15462237482E+03  0.20194561136E+03  0.00000000000E+00 0. -1.
        -14    1    4    4    0    0 -0.61988537344E+01  0.44616067987E+02  0.31037670896E+02  0.54702434360E+02  0.00000000000E+00 0.  1.
</event>
<event>
12    1  0.9966151E-001  0.1986681E+03  0.7818608E-02  0.1150886E+00
         21   -1    0    0  501  502  0.00000000000E+00  0.00000000000E+00  0.14991179503E+03  0.14991179503E+03  0.00000000000E+00 0.  1.
         21   -1    0    0  502  503 -0.00000000000E+00 -0.00000000000E+00 -0.28816658196E+03  0.28816658196E+03  0.00000000000E+00 0.  1.
         -6    2    1    2    0  503  0.39262715329E+02 -0.90536614104E+02 -0.13363084255E+03  0.23935650017E+03  0.17232496274E+03 0.  0.
        -24    2    3    3    0    0 -0.11883843235E+02 -0.57743372824E+02 -0.14680175349E+03  0.17701125158E+03  0.79414768925E+02 0.  0.
          6    2    1    2  501    0 -0.39262715329E+02  0.90536614104E+02 -0.46239443784E+01  0.19872187683E+03  0.17242553221E+03 0.  0.
         24    2    5    5    0    0 -0.84038008061E+02  0.77465774743E+02 -0.35132209237E+02  0.14278872114E+03  0.78044946681E+02 0.  0.
          5    1    5    5  501    0  0.44775292732E+02  0.13070839361E+02  0.30508264859E+02  0.55933155690E+02  0.47000000000E+01 0. -1.
        -11    1    6    6    0    0 -0.50426140025E+02  0.90201474450E+00  0.37507313575E+01  0.50573483310E+02  0.00000000000E+00 0.  1.
         12    1    6    6    0    0 -0.33611868036E+02  0.76563759999E+02 -0.38882940594E+02  0.92215237826E+02  0.00000000000E+00 0. -1.
         -5    1    3    3    0  503  0.51146558564E+02 -0.32793241281E+02  0.13170910934E+02  0.62345248588E+02  0.47000000000E+01 0.  1.
         11    1    4    4    0    0  0.33512434000E+02 -0.28741380866E+02 -0.78016645154E+02  0.89642328884E+02  0.00000000000E+00 0. -1.
        -12    1    4    4    0    0 -0.45396277235E+02 -0.29001991958E+02 -0.68785108333E+02  0.87368922694E+02  0.00000000000E+00 0.  1.
</event>
<event>
12    1  0.9966151E-001  0.2670648E+03  0.7818608E-02  0.1103085E+00
         21   -1    0    0  503  502  0.00000000000E+00  0.00000000000E+00  0.27745156089E+03  0.27745156089E+03  0.00000000000E+00 0.  1.
         21   -1    0    0  501  503 -0.00000000000E+00 -0.00000000000E+00 -0.26159014501E+03  0.26159014501E+03  0.00000000000E+00 0.  1.
          6    2    1    2  501    0  0.20250922584E+03 -0.28782420943E+02 -0.30339373044E+02  0.26878258814E+03  0.17171251505E+03 0.  0.
         24    2    3    3    0    0  0.12058404446E+03 -0.77108789108E+02  0.12542584843E+02  0.16434061613E+03  0.79776215378E+02 0.  0.
         -6    2    1    2    0  502 -0.20250922584E+03  0.28782420943E+02  0.46200788928E+02  0.27025911776E+03  0.17049065526E+03 0.  0.
        -24    2    5    5    0    0 -0.16243310687E+03 -0.39899609212E+02  0.43768715860E+02  0.19056393875E+03  0.80140010250E+02 0.  0.
          5    1    3    3  501    0  0.81925181380E+02  0.48326368166E+02 -0.42881957887E+02  0.10444197201E+03  0.47000000000E+01 0. -1.
        -11    1    4    4    0    0  0.26641069468E+02  0.13122532852E+02 -0.11567184781E+02  0.31870789363E+02  0.00000000000E+00 0.  1.
         12    1    4    4    0    0  0.93942974995E+02 -0.90231321960E+02  0.24109769625E+02  0.13246982677E+03  0.00000000000E+00 0. -1.
         -5    1    5    5    0  502 -0.40076118976E+02  0.68682030154E+02  0.24320730680E+01  0.79695179012E+02  0.47000000000E+01 0.  1.
         13    1    6    6    0    0 -0.54837286034E+02 -0.59780192277E+01  0.54114946504E+02  0.77274135961E+02  0.00000000000E+00 0. -1.
        -14    1    6    6    0    0 -0.10759582083E+03 -0.33921589984E+02 -0.10346230643E+02  0.11328980279E+03  0.00000000000E+00 0.  1.
</event>
<event>
12    1  0.9966151E-001  0.4542790E+03  0.7818608E-02  0.1026672E+00
         21   -1    0    0  503  502  0.00000000000E+00  0.00000000000E+00  0.94927279936E+03  0.94927279936E+03  0.00000000000E+00 0.  1.
         21   -1    0    0  501  503 -0.00000000000E+00 -0.00000000000E+00 -0.26472490963E+03  0.26472490963E+03  0.00000000000E+00 0.  1.
          6    2    1    2  501    0 -0.30141447403E+03 -0.29209142530E+03  0.80916403213E+02  0.45852411177E+03  0.16591808483E+03 0.  0.
         24    2    3    3    0    0 -0.13482275416E+03 -0.21088452012E+03  0.74560687620E+02  0.27302519614E+03  0.79586466966E+02 0.  0.
         -6    2    1    2    0  502  0.30141447403E+03  0.29209142530E+03  0.60363148652E+03  0.75547359722E+03  0.17378520849E+03 0.  0.
        -24    2    5    5    0    0  0.23771486881E+03  0.20813995302E+03  0.54455740146E+03  0.63457145940E+03  0.79420241175E+02 0.  0.
          5    1    3    3  501    0 -0.16659171987E+03 -0.81206905187E+02  0.63557155936E+01  0.18549891563E+03  0.47000000000E+01 0. -1.
        -11    1    4    4    0    0 -0.38088263294E+02 -0.10651261414E+03  0.64848836068E+02  0.13038797610E+03  0.00000000000E+00 0.  1.
         12    1    4    4    0    0 -0.96734490864E+02 -0.10437190598E+03  0.97118515514E+01  0.14263722004E+03  0.00000000000E+00 0. -1.
         -5    1    5    5    0  502  0.63699605222E+02  0.83951472280E+02  0.59074085061E+02  0.12090213782E+03  0.47000000000E+01 0.  1.
         13    1    6    6    0    0  0.19801393962E+03  0.17941880782E+03  0.39257379210E+03  0.47488399754E+03  0.00000000000E+00 0. -1.
        -14    1    6    6    0    0  0.39700929190E+02  0.28721145208E+02  0.15198360936E+03  0.15968746186E+03  0.00000000000E+00 0.  1.
</event>
<event>
12    1  0.9966151E-001  0.1849364E+03  0.7818608E-02  0.1163544E+00
         21   -1    0    0  501  502  0.00000000000E+00  0.00000000000E+00  0.57938127465E+02  0.57938127465E+02  0.00000000000E+00 0.  1.
         21   -1    0    0  502  503 -0.00000000000E+00 -0.00000000000E+00 -0.58872698027E+03  0.58872698027E+03  0.00000000000E+00 0.  1.
         -6    2    1    2    0  503  0.23465948545E+02  0.63146334843E+02 -0.29173444364E+03  0.34442598334E+03  0.17024148158E+03 0.  0.
        -24    2    3    3    0    0  0.76998297435E+02  0.44510582019E+02 -0.15050984398E+03  0.19217789235E+03  0.79807264428E+02 0.  0.
          6    2    1    2  501    0 -0.23465948545E+02 -0.63146334843E+02 -0.23905440917E+03  0.30223912439E+03  0.17223056472E+03 0.  0.
         24    2    5    5    0    0  0.17972500108E+01 -0.22747355105E+02 -0.14778749548E+02  0.72909736256E+02  0.67651651354E+02 0.  0.
          5    1    5    5  501    0 -0.25263198556E+02 -0.40398979738E+02 -0.22427565962E+03  0.22932938813E+03  0.47000000000E+01 0. -1.
        -11    1    6    6    0    0 -0.29025087036E+02  0.66959551199E+00 -0.17846891727E+02  0.34079547824E+02  0.00000000000E+00 0.  1.
         12    1    6    6    0    0  0.30822337047E+02 -0.23416950617E+02  0.30681421788E+01  0.38830188432E+02  0.00000000000E+00 0. -1.
         -5    1    3    3    0  503 -0.53532348890E+02  0.18635752823E+02 -0.14122459966E+03  0.15224809099E+03  0.47000000000E+01 0.  1.
         13    1    4    4    0    0 -0.16060614191E+02  0.14663405609E+02 -0.26075010464E+02  0.33953865214E+02  0.00000000000E+00 0. -1.
        -14    1    4    4    0    0  0.93058911626E+02  0.29847176410E+02 -0.12443483352E+03  0.15822402714E+03  0.00000000000E+00 0.  1.
</event>
<event>
12    1  0.9966151E-001  0.2957399E+03  0.7818608E-02  0.1087391E+00
         21   -1    0    0  501  502  0.00000000000E+00  0.00000000000E+00  0.36607077578E+03  0.36607077578E+03  0.00000000000E+00 0.  1.
         21   -1    0    0  502  503 -0.00000000000E+00 -0.00000000000E+00 -0.28349285149E+03  0.28349285149E+03  0.00000000000E+00 0.  1.
         -6    2    1    2    0  503 -0.22195653056E+03  0.95379706532E+02  0.17007652356E+03  0.34115701591E+03  0.17058750177E+03 0.  0.
        -24    2    3    3    0    0 -0.14686528976E+03  0.72373699588E+02  0.18938423959E+03  0.26014560499E+03  0.70724676471E+02 0.  0.
          6    2    1    2  501    0  0.22195653056E+03 -0.95379706532E+02 -0.87498599271E+02  0.30840661136E+03  0.17057738180E+03 0.  0.
         24    2    5    5    0    0  0.11310416153E+03 -0.31824046032E+02 -0.11389477871E+03  0.17953842866E+03  0.73869516630E+02 0.  0.
          5    1    5    5  501    0  0.10885236903E+03 -0.63555660500E+02  0.26396179437E+02  0.12886818270E+03  0.47000000000E+01 0. -1.
        -11    1    6    6    0    0  0.16729412509E+02 -0.38706383722E+02 -0.34827658309E+02  0.54690247458E+02  0.00000000000E+00 0.  1.
         12    1    6    6    0    0  0.96374749021E+02  0.68823376902E+01 -0.79067120399E+02  0.12484818120E+03  0.00000000000E+00 0. -1.
         -5    1    3    3    0  503 -0.75091240798E+02  0.23006006943E+02 -0.19307716031E+02  0.81011410915E+02  0.47000000000E+01 0.  1.
         13    1    4    4    0    0 -0.83611836638E+02  0.65085219084E+01  0.11518907957E+03  0.14248446981E+03  0.00000000000E+00 0. -1.
        -14    1    4    4    0    0 -0.63253453123E+02  0.65865177680E+02  0.74195160025E+02  0.11766113519E+03  0.00000000000E+00 0.  1.
</event>
<event>
12    1  0.9966151E-001  0.1721964E+03  0.7818608E-02  0.1175751E+00
         21   -1    0    0  501  502  0.00000000000E+00  0.00000000000E+00  0.78829904884E+02  0.78829904884E+02  0.00000000000E+00 0.  1.
         21   -1    0    0  502  503 -0.00000000000E+00 -0.00000000000E+00 -0.54280689218E+03  0.54280689218E+03  0.00000000000E+00 0. -1.
         -6    2    1    2    0  503  0.78917369736E+01  0.16022910388E+02 -0.58680297744E+02  0.18127672495E+03  0.17058388111E+03 0.  0.
        -24    2    3    3    0    0 -0.15006689399E+02  0.21692196597E+02 -0.10474243271E+03  0.12931241976E+03  0.71098330313E+02 0.  0.
          6    2    1    2  501    0 -0.78917369736E+01 -0.16022910388E+02 -0.40529668956E+03  0.44036007212E+03  0.17126754912E+03 0.  0.
         24    2    5    5    0    0 -0.37786517799E+01 -0.31756752832E+02 -0.41276123239E+03  0.42185924328E+03  0.81059340112E+02 0.  0.
          5    1    5    5  501    0 -0.41130851937E+01  0.15733842444E+02  0.74645428355E+01  0.18500828836E+02  0.47000000000E+01 0. -1.
        -11    1    6    6    0    0 -0.53744031037E+01 -0.34861371606E+02 -0.63968810017E+02  0.73049353823E+02  0.00000000000E+00 0.  1.
         12    1    6    6    0    0  0.15957513238E+01  0.31046187745E+01 -0.34879242237E+03  0.34880988946E+03  0.00000000000E+00 0. -1.
         -5    1    3    3    0  503  0.22898426372E+02 -0.56692862097E+01  0.46062134966E+02  0.51964305192E+02  0.47000000000E+01 0.  1.
         13    1    4    4    0    0  0.14032419223E+02  0.37978550966E+02 -0.42336103952E+02  0.58580071872E+02  0.00000000000E+00 0. -1.
        -14    1    4    4    0    0 -0.29039108621E+02 -0.16286354369E+02 -0.62406328758E+02  0.70732347884E+02  0.00000000000E+00 0.  1.
</event>
<event>
12    1  0.9966151E-001  0.1986155E+03  0.7818608E-02  0.1151188E+00
         21   -1    0    0  501  502  0.00000000000E+00  0.00000000000E+00  0.19731672664E+02  0.19731672664E+02  0.00000000000E+00 0. -1.
         21   -1    0    0  502  503 -0.00000000000E+00 -0.00000000000E+00 -0.19932603950E+04  0.19932603950E+04  0.00000000000E+00 0. -1.
         -6    2    1    2    0  503  0.31803363077E+02  0.94813187370E+02 -0.10431551767E+04  0.10616545542E+04  0.17010783405E+03 0.  0.
        -24    2    3    3    0    0 -0.43872999696E+02  0.77817076917E+02 -0.62457182049E+03  0.63592001740E+03  0.79523405540E+02 0.  0.
          6    2    1    2  501    0 -0.31803363077E+02 -0.94813187370E+02 -0.93037354554E+03  0.95133751345E+03  0.17160167788E+03 0.  0.
         24    2    5    5    0    0 -0.18645068763E+02  0.16018890207E+02 -0.50013372175E+03  0.50683184857E+03  0.78361595604E+02 0.  0.
          5    1    5    5  501    0 -0.13158294314E+02 -0.11083207758E+03 -0.43023982379E+03  0.44450566488E+03  0.47000000000E+01 0. -1.
        -13    1    6    6    0    0 -0.15004936001E+02 -0.28403223927E+02 -0.30426123423E+03  0.30595226734E+03  0.00000000000E+00 0.  1.
         14    1    6    6    0    0 -0.36401327626E+01  0.44422114135E+02 -0.19587248752E+03  0.20087958124E+03  0.00000000000E+00 0. -1.
         -5    1    3    3    0  503  0.75676362773E+02  0.16996110454E+02 -0.41858335626E+03  0.42573453676E+03  0.47000000000E+01 0.  1.
         13    1    4    4    0    0 -0.48843206242E+02  0.82822710090E+01 -0.23587925429E+03  0.24102547047E+03  0.00000000000E+00 0. -1.
        -14    1    4    4    0    0  0.49702065463E+01  0.69534805908E+02 -0.38869256619E+03  0.39489454694E+03  0.00000000000E+00 0.  1.
</event>
<event>
12    1  0.9966151E-001  0.1779070E+03  0.7818608E-02  0.1170126E+00
         21   -1    0    0  501  502  0.00000000000E+00  0.00000000000E+00  0.18851689010E+03  0.18851689010E+03  0.00000000000E+00 0.  1.
         21   -1    0    0  502  503 -0.00000000000E+00 -0.00000000000E+00 -0.18388044465E+03  0.18388044465E+03  0.00000000000E+00 0.  1.
         -6    2    1    2    0  503 -0.20660046096E+02  0.32772959296E+02  0.59047774189E+02  0.18745012395E+03  0.17363756784E+03 0.  0.
        -24    2    3    3    0    0 -0.37792219559E+02  0.24414623580E+01  0.99576316454E+02  0.13380160288E+03  0.80951921152E+02 0.  0.
          6    2    1    2  501    0  0.20660046096E+02 -0.32772959296E+02 -0.54411328743E+02  0.18494721080E+03  0.17246441292E+03 0.  0.
         24    2    5    5    0    0  0.66347156135E+02 -0.56306995423E+02 -0.12584647138E+02  0.11851887217E+03  0.79472805759E+02 0.  0.
          5    1    5    5  501    0 -0.45687110039E+02  0.23534036127E+02 -0.41826681605E+02  0.66428338638E+02  0.47000000000E+01 0. -1.
        -11    1    6    6    0    0  0.66018600965E+02 -0.72159814810E+02 -0.21766298236E+02  0.10019613908E+03  0.00000000000E+00 0.  1.
         12    1    6    6    0    0  0.32855516995E+00  0.15852819387E+02  0.91816510986E+01  0.18322733091E+02  0.00000000000E+00 0. -1.
         -5    1    3    3    0  503  0.17132173463E+02  0.30331496938E+02 -0.40528542266E+02  0.53648521063E+02  0.47000000000E+01 0.  1.
         11    1    4    4    0    0 -0.15011587228E+02 -0.24620061739E+02  0.76104248501E+00  0.28845699451E+02  0.00000000000E+00 0. -1.
        -12    1    4    4    0    0 -0.22780632331E+02  0.27061524097E+02  0.98815273969E+02  0.10495590343E+03  0.00000000000E+00 0.  1.
</event>
<event>
12    1  0.9966151E-001  0.2146037E+03  0.7818608E-02  0.1138252E+00
         21   -1    0    0  503  502  0.00000000000E+00  0.00000000000E+00  0.47257709495E+02  0.47257709495E+02  0.00000000000E+00 0. -1.
         21   -1    0    0  501  503 -0.00000000000E+00 -0.00000000000E+00 -0.96998830801E+03  0.96998830801E+03  0.00000000000E+00 0. -1.
          6    2    1    2  501    0  0.32489103912E+01 -0.12552352872E+03 -0.48613759690E+03  0.53139862527E+03  0.17403454870E+03 0.  0.
         24    2    3    3    0    0  0.38174445468E-01 -0.15137444620E+03 -0.31388147679E+03  0.35712057250E+03  0.78097998805E+02 0.  0.
         -6    2    1    2    0  502 -0.32489103912E+01  0.12552352872E+03 -0.43659300161E+03  0.48584739223E+03  0.17224264223E+03 0.  0.
        -24    2    5    5    0    0  0.31016708660E+02  0.15979549405E+01 -0.15942542418E+03  0.18027311900E+03  0.78213437981E+02 0.  0.
          5    1    3    3  501    0  0.32107359457E+01  0.25850917479E+02 -0.17225612011E+03  0.17427805277E+03  0.47000000000E+01 0. -1.
        -13    1    4    4    0    0  0.33404391089E+02 -0.10443663960E+03 -0.17176761472E+03  0.20378169324E+03  0.00000000000E+00 0.  1.
         14    1    4    4    0    0 -0.33366216644E+02 -0.46937806599E+02 -0.14211386207E+03  0.15333887926E+03  0.00000000000E+00 0. -1.
         -5    1    5    5    0  502 -0.34265619051E+02  0.12392557378E+03 -0.27716757743E+03  0.30557427324E+03  0.47000000000E+01 0.  1.
         13    1    6    6    0    0  0.32320878849E+02  0.21974194421E+01 -0.16824602847E+03  0.17133649337E+03  0.00000000000E+00 0. -1.
        -14    1    6    6    0    0 -0.13041701893E+01 -0.59946450162E+00  0.88206042918E+01  0.89366256296E+01  0.00000000000E+00 0.  1.
</event>
<event>
12    1  0.9966151E-001  0.3794171E+03  0.7818608E-02  0.1051151E+00
         21   -1    0    0  501  502  0.00000000000E+00  0.00000000000E+00  0.22499227657E+03  0.22499227657E+03  0.00000000000E+00 0. -1.
         21   -1    0    0  502  503 -0.00000000000E+00 -0.00000000000E+00 -0.66156209092E+03  0.66156209092E+03  0.00000000000E+00 0.  1.
         -6    2    1    2    0  503  0.13275775697E+03  0.31185051932E+03 -0.29867430808E+03  0.48285585341E+03  0.17049359058E+03 0.  0.
        -24    2    3    3    0    0  0.12105073415E+03  0.11888772312E+03 -0.13572141312E+03  0.22997756040E+03  0.75377751091E+02 0.  0.
          6    2    1    2  501    0 -0.13275775697E+03 -0.31185051932E+03 -0.13789550627E+03  0.40369851407E+03  0.17053431086E+03 0.  0.
         24    2    5    5    0    0 -0.10525472230E+03 -0.28200766464E+03 -0.61880834220E+02  0.31740058097E+03  0.79416696439E+02 0.  0.
          5    1    5    5  501    0 -0.27503034668E+02 -0.29842854681E+02 -0.76014672047E+02  0.86297933103E+02  0.47000000000E+01 0. -1.
        -13    1    6    6    0    0 -0.31166814321E+02 -0.18775526597E+03 -0.50899956663E+02  0.19701323763E+03  0.00000000000E+00 0.  1.
         14    1    6    6    0    0 -0.74087907977E+02 -0.94252398674E+02 -0.10980877557E+02  0.12038734334E+03  0.00000000000E+00 0. -1.
         -5    1    3    3    0  503  0.11707022812E+02  0.19296279620E+03 -0.16295289496E+03  0.25287829301E+03  0.47000000000E+01 0.  1.
         13    1    4    4    0    0  0.12365472842E+03  0.10518133792E+03 -0.14103806797E+03  0.21504730252E+03  0.00000000000E+00 0. -1.
        -14    1    4    4    0    0 -0.26039942639E+01  0.13706385202E+02  0.53166548483E+01  0.14930257875E+02  0.00000000000E+00 0.  1.
</event>
<event>
12    1  0.9966151E-001  0.1766648E+03  0.7818608E-02  0.1171794E+00
         21   -1    0    0  503  502  0.00000000000E+00  0.00000000000E+00  0.96747392340E+03  0.96747392340E+03  0.00000000000E+00 0. -1.
         21   -1    0    0  501  503 -0.00000000000E+00 -0.00000000000E+00 -0.43885506380E+02  0.43885506380E+02  0.00000000000E+00 0. -1.
          6    2    1    2  501    0  0.17912644239E+02 -0.10319086889E+02  0.72512634513E+03  0.74565727505E+03  0.17253755837E+03 0.  0.
         24    2    3    3    0    0  0.20723762149E+02 -0.39326219904E+02  0.70273123181E+03  0.70860397222E+03  0.79450483910E+02 0.  0.
         -6    2    1    2    0  502 -0.17912644239E+02  0.10319086889E+02  0.19846207189E+03  0.26570215474E+03  0.17545111762E+03 0.  0.
        -24    2    5    5    0    0 -0.53139524091E+02  0.53328773908E+02  0.17156131322E+03  0.20376261116E+03  0.80113359466E+02 0.  0.
          5    1    3    3  501    0 -0.28111179098E+01  0.29007133015E+02  0.22395113319E+02  0.37053302825E+02  0.47000000000E+01 0. -1.
        -13    1    4    4    0    0  0.22454326666E+01  0.24396935857E+02  0.21064154636E+03  0.21206157950E+03  0.00000000000E+00 0.  1.
         14    1    4    4    0    0  0.18478329482E+02 -0.63723155761E+02  0.49208968545E+03  0.49654239272E+03  0.00000000000E+00 0. -1.
         -5    1    5    5    0  502  0.35226879852E+02 -0.43009687019E+02  0.26900758668E+02  0.61939543577E+02  0.47000000000E+01 0.  1.
         13    1    6    6    0    0  0.30596074433E+00  0.50592440294E+02  0.11633896927E+03  0.12686388137E+03  0.00000000000E+00 0. -1.
        -14    1    6    6    0    0 -0.53445484836E+02  0.27363336145E+01  0.55222343955E+02  0.76898729787E+02  0.00000000000E+00 0.  1.
</event>
<event>
12    1  0.9966151E-001  0.2531731E+03  0.7818608E-02  0.1111459E+00
         21   -1    0    0  503  502  0.00000000000E+00  0.00000000000E+00  0.70115299966E+03  0.70115299966E+03  0.00000000000E+00 0. -1.
         21   -1    0    0  501  503 -0.00000000000E+00 -0.00000000000E+00 -0.21456717530E+03  0.21456717530E+03  0.00000000000E+00 0.  1.
          6    2    1    2  501    0  0.18287872409E+03  0.25446761632E+02  0.59082065680E+03  0.64277963004E+03  0.17321789425E+03 0.  0.
         24    2    3    3    0    0  0.19741635355E+03  0.25127379421E+02  0.58925407165E+03  0.62741770098E+03  0.82631765712E+02 0.  0.
         -6    2    1    2    0  502 -0.18287872409E+03 -0.25446761632E+02 -0.10423483244E+03  0.27294054493E+03  0.17187051921E+03 0.  0.
        -24    2    5    5    0    0 -0.19543577002E+03 -0.56324445150E+02 -0.75057102150E+02  0.22839236105E+03  0.71846493836E+02 0.  0.
          5    1    3    3  501    0 -0.14537629460E+02  0.31938221082E+00  0.15665851510E+01  0.15361929057E+02  0.47000000000E+01 0. -1.
        -13    1    4    4    0    0  0.16571832749E+03  0.47509486223E+02  0.42481104506E+03  0.45845843798E+03  0.00000000000E+00 0.  1.
         14    1    4    4    0    0  0.31698026052E+02 -0.22382106802E+02  0.16444302659E+03  0.16895926300E+03  0.00000000000E+00 0. -1.
         -5    1    5    5    0  502  0.12557045939E+02  0.30877683518E+02 -0.29177730291E+02  0.44548183881E+02  0.47000000000E+01 0.  1.
         11    1    6    6    0    0 -0.58425817470E+01 -0.69238242415E+01 -0.24397708776E+02  0.26025435580E+02  0.00000000000E+00 0. -1.
        -12    1    6    6    0    0 -0.18959318828E+03 -0.49400620908E+02 -0.50659393374E+02  0.20236692547E+03  0.00000000000E+00 0.  1.
</event>
<event>
12    1  0.9966151E-001  0.2038170E+03  0.7818608E-02  0.1146896E+00
         21   -1    0    0  501  502  0.00000000000E+00  0.00000000000E+00  0.23965193066E+04  0.23965193066E+04  0.00000000000E+00 0.  1.
         21   -1    0    0  502  503 -0.00000000000E+00 -0.00000000000E+00 -0.83008353541E+02  0.83008353541E+02  0.00000000000E+00 0.  1.
         -6    2    1    2    0  503 -0.10196658429E+03  0.33599503620E+02  0.22597002095E+04  0.22687269156E+04  0.17132037165E+03 0.  0.
        -24    2    3    3    0    0 -0.13149881834E+03 -0.56312887441E-01  0.16071600860E+04  0.16146355079E+04  0.82415647443E+02 0.  0.
          6    2    1    2  501    0  0.10196658429E+03 -0.33599503620E+02  0.53810743590E+02  0.21080074458E+03  0.17324908899E+03 0.  0.
         24    2    5    5    0    0  0.60053350622E+02 -0.78142878804E+02  0.74637752794E+02  0.14601891271E+03  0.77704660717E+02 0.  0.
          5    1    5    5  501    0  0.41913233664E+02  0.44543375184E+02 -0.20827009205E+02  0.64781831878E+02  0.47000000000E+01 0. -1.
        -11    1    6    6    0    0  0.13209816558E+02  0.65932705058E+01 -0.96588836905E+01  0.17642689806E+02  0.00000000000E+00 0.  1.
         12    1    6    6    0    0  0.46843534064E+02 -0.84736149310E+02  0.84296636485E+02  0.12837622290E+03  0.00000000000E+00 0. -1.
         -5    1    3    3    0  503  0.29532234056E+02  0.33655816508E+02  0.65254012350E+03  0.65409140769E+03  0.47000000000E+01 0.  1.
         13    1    4    4    0    0 -0.91383565865E+01 -0.14185590809E+02  0.56029885038E+03  0.56055288982E+03  0.00000000000E+00 0. -1.
        -14    1    4    4    0    0 -0.12236046176E+03  0.14129277922E+02  0.10468612356E+04  0.10540826180E+04  0.00000000000E+00 0.  1.
</event>
<event>
12    1  0.9966151E-001  0.2007517E+03  0.7818608E-02  0.1149918E+00
         21   -1    0    0  503  502  0.00000000000E+00  0.00000000000E+00  0.16123901069E+03  0.16123901069E+03  0.00000000000E+00 0. -1.
         21   -1    0    0  501  503 -0.00000000000E+00 -0.00000000000E+00 -0.34841632704E+03  0.34841632704E+03  0.00000000000E+00 0. -1.
          6    2    1    2  501    0 -0.72564385758E+02  0.71435763606E+02  0.44466643032E+02  0.20561741145E+03  0.17301034405E+03 0.  0.
         24    2    3    3    0    0 -0.38741937154E+02  0.83851481555E+02 -0.28470443293E+02  0.12413111418E+03  0.77884264863E+02 0.  0.
         -6    2    1    2    0  502  0.72564385758E+02 -0.71435763606E+02 -0.23164395938E+03  0.30403792627E+03  0.16855704759E+03 0.  0.
        -24    2    5    5    0    0  0.13881600171E+02 -0.43307844410E+02 -0.38082969112E+02  0.99776338804E+02  0.80229277935E+02 0.  0.
          5    1    3    3  501    0 -0.33822448604E+02 -0.12415717948E+02  0.72937086325E+02  0.81486297273E+02  0.47000000000E+01 0. -1.
        -11    1    4    4    0    0  0.15223315165E+02  0.54151949839E+02  0.49491065152E-01  0.56251092837E+02  0.00000000000E+00 0.  1.
         12    1    4    4    0    0 -0.53965252319E+02  0.29699531716E+02 -0.28519934358E+02  0.67880021345E+02  0.00000000000E+00 0. -1.
         -5    1    5    5    0  502  0.58682785587E+02 -0.28127919196E+02 -0.19356099026E+03  0.20426158747E+03  0.47000000000E+01 0.  1.
         11    1    6    6    0    0 -0.15446393559E+02 -0.33464390404E+02 -0.53692419521E+02  0.65125512766E+02  0.00000000000E+00 0. -1.
        -12    1    6    6    0    0  0.29327993730E+02 -0.98434540066E+01  0.15609450409E+02  0.34650826038E+02  0.00000000000E+00 0.  1.
</event>
<event>
12    1  0.9966151E-001  0.5602845E+03  0.7818608E-02  0.9991496E-01
         21   -1    0    0  501  502  0.00000000000E+00  0.00000000000E+00  0.80472230152E+03  0.80472230152E+03  0.00000000000E+00 0. -1.
         21   -1    0    0  502  503 -0.00000000000E+00 -0.00000000000E+00 -0.39229572150E+03  0.39229572150E+03  0.00000000000E+00 0. -1.
         -6    2    1    2    0  503  0.12620505615E+02 -0.53300897570E+03  0.16031495792E+03  0.58262482933E+03  0.17173514689E+03 0.  0.
        -24    2    3    3    0    0 -0.62553757594E+01 -0.18452786105E+03  0.82585403527E+01  0.20191676494E+03  0.81317373579E+02 0.  0.
          6    2    1    2  501    0 -0.12620505615E+02  0.53300897570E+03  0.25211162210E+03  0.61439319369E+03  0.17222334664E+03 0.  0.
         24    2    5    5    0    0  0.19395980858E+02  0.51103700907E+03  0.25416894697E+03  0.57522502665E+03  0.68898105760E+02 0.  0.
          5    1    5    5  501    0 -0.32016486474E+02  0.21971966632E+02 -0.20573248706E+01  0.39168167042E+02  0.47000000000E+01 0. -1.
        -13    1    6    6    0    0  0.18216732503E+02  0.19501663217E+03  0.13307695210E+03  0.23679698340E+03  0.00000000000E+00 0.  1.
         14    1    6    6    0    0  0.11792483552E+01  0.31602037690E+03  0.12109199486E+03  0.33842804325E+03  0.00000000000E+00 0. -1.
         -5    1    3    3    0  503  0.18875881375E+02 -0.34848111464E+03  0.15205641757E+03  0.38070806438E+03  0.47000000000E+01 0.  1.
         11    1    4    4    0    0 -0.14545869310E+02 -0.17487172404E+03 -0.14256322332E+02  0.17605381254E+03  0.00000000000E+00 0. -1.
        -12    1    4    4    0    0  0.82904935509E+01 -0.96561370102E+01  0.22514862684E+02  0.25862952402E+02  0.00000000000E+00 0.  1.
</event>
<event>
12    1  0.9966151E-001  0.3361618E+03  0.7818608E-02  0.1068472E+00
         21   -1    0    0  503  502  0.00000000000E+00  0.00000000000E+00  0.81253954843E+02  0.81253954843E+02  0.00000000000E+00 0.  1.
         21   -1    0    0  501  503 -0.00000000000E+00 -0.00000000000E+00 -0.15018810708E+04  0.15018810708E+04  0.00000000000E+00 0.  1.
          6    2    1    2  501    0  0.28922914906E+03 -0.86913231270E+01 -0.49363186234E+03  0.59706962022E+03  0.17055989010E+03 0.  0.
         24    2    3    3    0    0  0.15822763014E+03 -0.34668212506E+02 -0.17423005404E+03  0.25083876965E+03  0.79536838826E+02 0.  0.
         -6    2    1    2    0  502 -0.28922914906E+03  0.86913231270E+01 -0.92699525358E+03  0.98606540539E+03  0.17110155983E+03 0.  0.
        -24    2    5    5    0    0 -0.22666559602E+03  0.46978990320E+02 -0.55900388810E+03  0.61080565709E+03  0.83748945447E+02 0.  0.
          5    1    3    3  501    0  0.13100151891E+03  0.25976889379E+02 -0.31940180830E+03  0.34623085057E+03  0.47000000000E+01 0. -1.
        -11    1    4    4    0    0 -0.73940408141E+01 -0.18468754142E+01 -0.22790822136E+02  0.24031320437E+02  0.00000000000E+00 0.  1.
         12    1    4    4    0    0  0.16562167096E+03 -0.32821337092E+02 -0.15143923190E+03  0.22680744921E+03  0.00000000000E+00 0. -1.
         -5    1    5    5    0  502 -0.62563553033E+02 -0.38287667193E+02 -0.36799136548E+03  0.37525974830E+03  0.47000000000E+01 0.  1.
         13    1    6    6    0    0 -0.11553197772E+03  0.42462013848E+02 -0.19880297733E+03  0.23382319024E+03  0.00000000000E+00 0. -1.
        -14    1    6    6    0    0 -0.11113361831E+03  0.45169764717E+01 -0.36020091077E+03  0.37698246685E+03  0.00000000000E+00 0.  1.
</event>
<event>
12    1  0.9966151E-001  0.2019246E+03  0.7818608E-02  0.1148595E+00
         21   -1    0    0  503  502  0.00000000000E+00  0.00000000000E+00  0.36355083329E+03  0.36355083329E+03  0.00000000000E+00 0. -1.
         21   -1    0    0  501  503 -0.00000000000E+00 -0.00000000000E+00 -0.16050379996E+03  0.16050379996E+03  0.00000000000E+00 0. -1.
          6    2    1    2  501    0  0.58307390905E+02 -0.82878548514E+02 -0.44514155994E+02  0.20458616838E+03  0.17206215323E+03 0.  0.
         24    2    3    3    0    0  0.51180703134E+02 -0.38728533590E+02  0.39056227727E+02  0.10968562818E+03  0.79913605958E+02 0.  0.
         -6    2    1    2    0  502 -0.58307390905E+02  0.82878548514E+02  0.24756118932E+03  0.31946846487E+03  0.17465666878E+03 0.  0.
        -24    2    5    5    0    0  0.92041450055E+01  0.72857892871E+02  0.70666145428E+02  0.12980516432E+03  0.80390843608E+02 0.  0.
          5    1    3    3  501    0  0.71266877711E+01 -0.44150014924E+02 -0.83570383721E+02  0.94900540207E+02  0.47000000000E+01 0. -1.
        -11    1    4    4    0    0  0.42733453319E+02 -0.52961860119E+02  0.86011163043E+00  0.68057670044E+02  0.00000000000E+00 0.  1.
         12    1    4    4    0    0  0.84472498147E+01  0.14233326529E+02  0.38196116096E+02  0.41627958133E+02  0.00000000000E+00 0. -1.
         -5    1    5    5    0  502 -0.67511535911E+02  0.10020655643E+02  0.17689504390E+03  0.18966330055E+03  0.47000000000E+01 0.  1.
         11    1    6    6    0    0  0.29054588416E+02  0.40590028089E+02  0.76629623545E+02  0.91453915679E+02  0.00000000000E+00 0. -1.
        -12    1    6    6    0    0 -0.19850443410E+02  0.32267864782E+02 -0.59634781173E+01  0.38351248643E+02  0.00000000000E+00 0.  1.
</event>
<event>
12    1  0.9966151E-001  0.2143901E+03  0.7818608E-02  0.1139345E+00
         21   -1    0    0  503  502  0.00000000000E+00  0.00000000000E+00  0.99329858323E+02  0.99329858323E+02  0.00000000000E+00 0.  1.
         21   -1    0    0  501  503 -0.00000000000E+00 -0.00000000000E+00 -0.47978372404E+03  0.47978372404E+03  0.00000000000E+00 0.  1.
          6    2    1    2  501    0  0.37792729325E+02  0.11239245255E+03 -0.26557074525E+03  0.34130770366E+03  0.17861347671E+03 0.  0.
         24    2    3    3    0    0  0.24527678536E+02  0.10323988346E+03 -0.28579833867E+03  0.31502126934E+03  0.79357603293E+02 0.  0.
         -6    2    1    2    0  502 -0.37792729325E+02 -0.11239245255E+03 -0.11488312047E+03  0.23780587871E+03  0.17115241979E+03 0.  0.
        -24    2    5    5    0    0 -0.67533628616E+02 -0.10914406454E+03 -0.39953880242E+02  0.15698784758E+03  0.81090405858E+02 0.  0.
          5    1    3    3  501    0  0.13265050789E+02  0.91525690880E+01  0.20227593420E+02  0.26286434313E+02  0.47000000000E+01 0. -1.
        -13    1    4    4    0    0 -0.94639173738E+01  0.90911692767E+01 -0.12449009471E+03  0.12517986568E+03  0.00000000000E+00 0.  1.
         14    1    4    4    0    0  0.33991595910E+02  0.94148714182E+02 -0.16130824396E+03  0.18984140366E+03  0.00000000000E+00 0. -1.
         -5    1    5    5    0  502  0.29740899291E+02 -0.32483880078E+01 -0.74929240225E+02  0.80818031132E+02  0.47000000000E+01 0.  1.
         13    1    6    6    0    0 -0.17685577011E+02 -0.72033765011E+02 -0.55842215038E+02  0.92843933114E+02  0.00000000000E+00 0. -1.
        -14    1    6    6    0    0 -0.49848051605E+02 -0.37110299529E+02  0.15888334796E+02  0.64143914462E+02  0.00000000000E+00 0.  1.
</event>
<event>
12    1  0.9966151E-001  0.2589017E+03  0.7818608E-02  0.1107848E+00
         21   -1    0    0  503  502  0.00000000000E+00  0.00000000000E+00  0.36216707205E+03  0.36216707205E+03  0.00000000000E+00 0. -1.
         21   -1    0    0  501  503 -0.00000000000E+00 -0.00000000000E+00 -0.21159222042E+03  0.21159222042E+03  0.00000000000E+00 0. -1.
          6    2    1    2  501    0  0.19372591357E+03  0.37511528396E+01  0.17718729328E+03  0.31349343831E+03  0.17128630484E+03 0.  0.
         24    2    3    3    0    0  0.21696952873E+03 -0.17587179723E+01  0.17305154262E+03  0.28879892970E+03  0.79869367766E+02 0.  0.
         -6    2    1    2    0  502 -0.19372591357E+03 -0.37511528396E+01 -0.26612441651E+02  0.26026585415E+03  0.17171573035E+03 0.  0.
        -24    2    5    5    0    0 -0.13525446764E+03 -0.25166756853E+02 -0.79646350059E+02  0.17833769339E+03  0.80831028324E+02 0.  0.
          5    1    3    3  501    0 -0.23243615158E+02  0.55098708120E+01  0.41357506668E+01  0.24694508611E+02  0.47000000000E+01 0. -1.
        -11    1    4    4    0    0  0.14868111314E+03 -0.60678053183E+01  0.68421255712E+02  0.16378143942E+03  0.00000000000E+00 0.  1.
         12    1    4    4    0    0  0.68288415590E+02  0.43090873460E+01  0.10463028691E+03  0.12501749028E+03  0.00000000000E+00 0. -1.
         -5    1    5    5    0  502 -0.58471445933E+02  0.21415604013E+02  0.53033908407E+02  0.81928160761E+02  0.47000000000E+01 0.  1.
         11    1    6    6    0    0 -0.17812014026E+02 -0.37355467298E+02 -0.17841903535E+02  0.45066975741E+02  0.00000000000E+00 0. -1.
        -12    1    6    6    0    0 -0.11744245361E+03  0.12188710445E+02 -0.61804446524E+02  0.13327071765E+03  0.00000000000E+00 0.  1.
</event>
<event>
12    1  0.9966151E-001  0.1789536E+03  0.7818608E-02  0.1168960E+00
         21   -1    0    0  503  502  0.00000000000E+00  0.00000000000E+00  0.16476175109E+03  0.16476175109E+03  0.00000000000E+00 0. -1.
         21   -1    0    0  501  503 -0.00000000000E+00 -0.00000000000E+00 -0.20933082515E+03  0.20933082515E+03  0.00000000000E+00 0. -1.
          6    2    1    2  501    0 -0.38763116849E+02  0.34943829444E+02 -0.73360522813E+02  0.19340670356E+03  0.17117457823E+03 0.  0.
         24    2    3    3    0    0 -0.74749582905E+02 -0.88385388518E+01 -0.84631750817E+02  0.13543212212E+03  0.74254336858E+02 0.  0.
         -6    2    1    2    0  502  0.38763116849E+02 -0.34943829444E+02  0.28791448754E+02  0.18068587267E+03  0.17057193971E+03 0.  0.
        -24    2    5    5    0    0  0.86361521682E+01  0.99048390461E+01  0.73960424566E+02  0.11010709794E+03  0.80503041273E+02 0.  0.
          5    1    3    3  501    0  0.35986466056E+02  0.43782368296E+02  0.11271228003E+02  0.57974581443E+02  0.47000000000E+01 0. -1.
        -11    1    4    4    0    0 -0.69827485479E+02 -0.20070404755E+02 -0.94843640691E+02  0.11947390952E+03  0.00000000000E+00 0.  1.
         12    1    4    4    0    0 -0.49220974260E+01  0.11231865903E+02  0.10211889874E+02  0.15958212605E+02  0.00000000000E+00 0. -1.
         -5    1    5    5    0  502  0.30126964681E+02 -0.44848668490E+02 -0.45168975811E+02  0.70578774728E+02  0.47000000000E+01 0.  1.
         13    1    6    6    0    0 -0.17581403044E+02 -0.11892736787E+02 -0.69267802852E+01  0.22327633246E+02  0.00000000000E+00 0. -1.
        -14    1    6    6    0    0  0.26217555212E+02  0.21797575833E+02  0.80887204851E+02  0.87779464695E+02  0.00000000000E+00 0.  1.
</event>
<event>
12    1  0.9966151E-001  0.3036152E+03  0.7818608E-02  0.1083598E+00
         21   -1    0    0  503  502  0.00000000000E+00  0.00000000000E+00  0.65012020559E+02  0.65012020559E+02  0.00000000000E+00 0.  1.
         21   -1    0    0  501  503 -0.00000000000E+00 -0.00000000000E+00 -0.20106485290E+04  0.20106485290E+04  0.00000000000E+00 0. -1.
          6    2    1    2  501    0 -0.27453520924E+02 -0.24839093553E+03 -0.40800136198E+03  0.50857378269E+03  0.17242513853E+03 0.  0.
         24    2    3    3    0    0 -0.60236312914E+02 -0.17842242660E+03 -0.36888753610E+03  0.42184267485E+03  0.80064051389E+02 0.  0.
         -6    2    1    2    0  502  0.27453520924E+02  0.24839093553E+03 -0.15376351465E+04  0.15670867669E+04  0.17025668447E+03 0.  0.
        -24    2    5    5    0    0  0.58632398828E+02  0.10336789157E+03 -0.96452276708E+03  0.97507013272E+03  0.79592187537E+02 0.  0.
          5    1    3    3  501    0  0.32782791990E+02 -0.69968508931E+02 -0.39113825884E+02  0.86731107845E+02  0.47000000000E+01 0. -1.
        -11    1    4    4    0    0  0.12756425089E+02 -0.41934824723E+01 -0.44282380924E+02  0.46273544672E+02  0.00000000000E+00 0.  1.
         12    1    4    4    0    0 -0.72992738002E+02 -0.17422894413E+03 -0.32460515517E+03  0.37556913017E+03  0.00000000000E+00 0. -1.
         -5    1    5    5    0  502 -0.31178877904E+02  0.14502304396E+03 -0.57311237941E+03  0.59201663418E+03  0.47000000000E+01 0.  1.
         11    1    6    6    0    0  0.11877093634E+02  0.86692068356E+02 -0.73817249300E+03  0.74334057436E+03  0.00000000000E+00 0. -1.
        -12    1    6    6    0    0  0.46755305194E+02  0.16675823215E+02 -0.22635027407E+03  0.23172955836E+03  0.00000000000E+00 0.  1.
</event>
<event>
12    1  0.9966151E-001  0.5753081E+03  0.7818608E-02  0.9959388E-01
         21   -1    0    0  501  502  0.00000000000E+00  0.00000000000E+00  0.21198279347E+04  0.21198279347E+04  0.00000000000E+00 0. -1.
         21   -1    0    0  502  503 -0.00000000000E+00 -0.00000000000E+00 -0.16507006780E+03  0.16507006780E+03  0.00000000000E+00 0. -1.
         -6    2    1    2    0  503 -0.90909382110E+02  0.53790543138E+03  0.12511608897E+04  0.13760370949E+04  0.17455012365E+03 0.  0.
        -24    2    3    3    0    0 -0.91489127078E+02  0.30533063187E+03  0.86393838146E+03  0.92431291535E+03  0.79798392166E+02 0.  0.
          6    2    1    2  501    0  0.90909382110E+02 -0.53790543138E+03  0.70359697714E+03  0.90886090758E+03  0.18268189351E+03 0.  0.
         24    2    5    5    0    0  0.12438169069E+03 -0.50515195708E+03  0.66150736542E+03  0.84571970918E+03  0.83669153613E+02 0.  0.
          5    1    5    5  501    0 -0.33472308580E+02 -0.32753474297E+02  0.42089611719E+02  0.63141198396E+02  0.47000000000E+01 0. -1.
        -13    1    6    6    0    0  0.56540430351E+02 -0.30591194264E+03  0.33422606968E+03  0.45660267472E+03  0.00000000000E+00 0.  1.
         14    1    6    6    0    0  0.67841260339E+02 -0.19924001444E+03  0.32728129575E+03  0.38911703446E+03  0.00000000000E+00 0. -1.
         -5    1    3    3    0  503  0.57974496743E+00  0.23257479951E+03  0.38722250825E+03  0.45172417952E+03  0.47000000000E+01 0.  1.
         13    1    4    4    0    0 -0.65634795644E+02  0.13557681970E+03  0.31532365882E+03  0.34945387428E+03  0.00000000000E+00 0. -1.
        -14    1    4    4    0    0 -0.25854331434E+02  0.16975381217E+03  0.54861472265E+03  0.57485904107E+03  0.00000000000E+00 0.  1.
</event>
<event>
12    1  0.9966151E-001  0.2358724E+03  0.7818608E-02  0.1122693E+00
         21   -1    0    0  503  502  0.00000000000E+00  0.00000000000E+00  0.76474658133E+03  0.76474658133E+03  0.00000000000E+00 0. -1.
         21   -1    0    0  501  503 -0.00000000000E+00 -0.00000000000E+00 -0.72629648314E+02  0.72629648314E+02  0.00000000000E+00 0. -1.
          6    2    1    2  501    0 -0.97618872185E+02 -0.12879125982E+03  0.36167119793E+03  0.43178913487E+03  0.17181143376E+03 0.  0.
         24    2    3    3    0    0  0.12399142223E+01 -0.83586588050E+02  0.11900190540E+03  0.16584365637E+03  0.79714551871E+02 0.  0.
         -6    2    1    2    0  502  0.97618872185E+02  0.12879125982E+03  0.33044573509E+03  0.40558709478E+03  0.17085044570E+03 0.  0.
        -24    2    5    5    0    0 -0.29704096444E+01  0.59849913988E+02  0.21821854738E+03  0.23979160495E+03  0.79308535774E+02 0.  0.
          5    1    3    3  501    0 -0.98858786407E+02 -0.45204671772E+02  0.24266929253E+03  0.26594547850E+03  0.47000000000E+01 0. -1.
        -13    1    4    4    0    0 -0.28578641632E+02 -0.76868757470E+02  0.68696405629E+02  0.10698009525E+03  0.00000000000E+00 0.  1.
         14    1    4    4    0    0  0.29818555854E+02 -0.67178305803E+01  0.50305499769E+02  0.58863561122E+02  0.00000000000E+00 0. -1.
         -5    1    5    5    0  502  0.10058928183E+03  0.68941345834E+02  0.11222718771E+03  0.16579548982E+03  0.47000000000E+01 0.  1.
         13    1    6    6    0    0  0.27732089771E+02 -0.42789519375E+01  0.69514133063E+02  0.74963944188E+02  0.00000000000E+00 0. -1.
        -14    1    6    6    0    0 -0.30702499416E+02  0.64128865926E+02  0.14870441432E+03  0.16482766077E+03  0.00000000000E+00 0.  1.
</event>
<event>
12    1  0.9966151E-001  0.2045954E+03  0.7818608E-02  0.1145920E+00
         21   -1    0    0  501  502  0.00000000000E+00  0.00000000000E+00  0.10489394754E+03  0.10489394754E+03  0.00000000000E+00 0.  1.
         21   -1    0    0  502  503 -0.00000000000E+00 -0.00000000000E+00 -0.51259095943E+03  0.51259095943E+03  0.00000000000E+00 0.  1.
         -6    2    1    2    0  503  0.41169737653E+02  0.10271419818E+03 -0.34915562360E+03  0.40468375653E+03  0.17208759253E+03 0.  0.
        -24    2    3    3    0    0 -0.24052652853E+02  0.11392999185E+03 -0.22879245000E+03  0.26724599677E+03  0.74268866001E+02 0.  0.
          6    2    1    2  501    0 -0.41169737653E+02 -0.10271419818E+03 -0.58541388294E+02  0.21280115043E+03  0.17208161342E+03 0.  0.
         24    2    5    5    0    0 -0.33962995785E+02 -0.13875989258E+03 -0.60827873896E+02  0.17567235798E+03  0.82176360618E+02 0.  0.
          5    1    5    5  501    0 -0.72067418680E+01  0.36045694394E+02  0.22864856016E+01  0.37128792454E+02  0.47000000000E+01 0. -1.
        -13    1    6    6    0    0  0.19942890204E+02 -0.13155975708E+02  0.42850416252E+01  0.24272621371E+02  0.00000000000E+00 0.  1.
         14    1    6    6    0    0 -0.53905885989E+02 -0.12560391687E+03 -0.65112915521E+02  0.15139973661E+03  0.00000000000E+00 0. -1.
         -5    1    3    3    0  503  0.65222390507E+02 -0.11215793669E+02 -0.12036317360E+03  0.13743775977E+03  0.47000000000E+01 0.  1.
         11    1    4    4    0    0 -0.14399408664E+02  0.57713586805E+02 -0.44381777990E+02  0.74215519195E+02  0.00000000000E+00 0. -1.
        -12    1    4    4    0    0 -0.96532441893E+01  0.56216405049E+02 -0.18441067201E+03  0.19303047757E+03  0.00000000000E+00 0.  1.
</event>
<event>
12    1  0.9966151E-001  0.2581649E+03  0.7818608E-02  0.1108267E+00
         21   -1    0    0  501  502  0.00000000000E+00  0.00000000000E+00  0.53903959580E+03  0.53903959580E+03  0.00000000000E+00 0. -1.
         21   -1    0    0  502  503 -0.00000000000E+00 -0.00000000000E+00 -0.16054845699E+03  0.16054845699E+03  0.00000000000E+00 0. -1.
         -6    2    1    2    0  503  0.15369446104E+03 -0.11619199499E+03  0.21454394120E+02  0.25905488272E+03  0.17183298338E+03 0.  0.
        -24    2    3    3    0    0  0.10763246559E+03  0.11163954041E+01 -0.31866129571E+01  0.13055494065E+03  0.73813576247E+02 0.  0.
          6    2    1    2  501    0 -0.15369446104E+03  0.11619199499E+03  0.35703674469E+03  0.44053317006E+03  0.17167314820E+03 0.  0.
         24    2    5    5    0    0 -0.96878592739E+02  0.14686692298E+03  0.25064706026E+03  0.31599462562E+03  0.77931378857E+02 0.  0.
          5    1    5    5  501    0 -0.56815868305E+02 -0.30674927989E+02  0.10638968443E+03  0.12453854444E+03  0.47000000000E+01 0. -1.
        -13    1    6    6    0    0 -0.73037221454E+02  0.11679974070E+03  0.23906162191E+03  0.27591135209E+03  0.00000000000E+00 0.  1.
         14    1    6    6    0    0 -0.23841371285E+02  0.30067182280E+02  0.11585438349E+02  0.40083273528E+02  0.00000000000E+00 0. -1.
         -5    1    3    3    0  503  0.46061995452E+02 -0.11730839039E+03  0.24641007077E+02  0.12849994207E+03  0.47000000000E+01 0.  1.
         11    1    4    4    0    0  0.80295144731E+02 -0.26940943076E+02 -0.21397755733E+02  0.87355530058E+02  0.00000000000E+00 0. -1.
        -12    1    4    4    0    0  0.27337320860E+02  0.28057338480E+02  0.18211142776E+02  0.43199410594E+02  0.00000000000E+00 0.  1.
</event>
<event>
12    1  0.9966151E-001  0.1999031E+03  0.7818608E-02  0.1149938E+00
         21   -1    0    0  503  502  0.00000000000E+00  0.00000000000E+00  0.16204838356E+04  0.16204838356E+04  0.00000000000E+00 0.  1.
         21   -1    0    0  501  503 -0.00000000000E+00 -0.00000000000E+00 -0.30744253388E+02  0.30744253388E+02  0.00000000000E+00 0.  1.
          6    2    1    2  501    0  0.10089875386E+03  0.14134616640E+02  0.11650840188E+04  0.11821091457E+04  0.17199103297E+03 0.  0.
         24    2    3    3    0    0  0.10011077220E+03  0.54982830616E+02  0.10629943051E+04  0.10720473578E+04  0.79267687702E+02 0.  0.
         -6    2    1    2    0  502 -0.10089875386E+03 -0.14134616640E+02  0.42465556339E+03  0.46911894333E+03  0.17134727763E+03 0.  0.
        -24    2    5    5    0    0 -0.11203670486E+03 -0.60899151934E+02  0.29954396898E+03  0.33500713635E+03  0.79007987667E+02 0.  0.
          5    1    3    3  501    0  0.78798165916E+00 -0.40848213977E+02  0.10208971375E+03  0.11006178789E+03  0.47000000000E+01 0. -1.
        -13    1    4    4    0    0  0.52161943604E+01  0.32527402547E+02  0.13577437692E+03  0.13971371453E+03  0.00000000000E+00 0.  1.
         14    1    4    4    0    0  0.94894577840E+02  0.22455428069E+02  0.92721992816E+03  0.93233364325E+03  0.00000000000E+00 0. -1.
         -5    1    5    5    0  502  0.11137950996E+02  0.46764535294E+02  0.12511159441E+03  0.13411180697E+03  0.47000000000E+01 0.  1.
         11    1    6    6    0    0 -0.44354046146E+02 -0.31710926467E+02  0.47191131369E+02  0.72110104333E+02  0.00000000000E+00 0. -1.
        -12    1    6    6    0    0 -0.67682658709E+02 -0.29188225466E+02  0.25235283761E+03  0.26289703202E+03  0.00000000000E+00 0.  1.
</event>
<event>
12    1  0.9966151E-001  0.2275885E+03  0.7818608E-02  0.1129392E+00
         21   -1    0    0  503  502  0.00000000000E+00  0.00000000000E+00  0.18436566048E+04  0.18436566048E+04  0.00000000000E+00 0. -1.
         21   -1    0    0  501  503 -0.00000000000E+00 -0.00000000000E+00 -0.27387185189E+02  0.27387185189E+02  0.00000000000E+00 0. -1.
          6    2    1    2  501    0 -0.13295124177E+03  0.65406544124E+02  0.92441591273E+03  0.95201959494E+03  0.17274976337E+03 0.  0.
         24    2    3    3    0    0 -0.14775266485E+03  0.44104525341E+02  0.54872666802E+03  0.57540658837E+03  0.78839879622E+02 0.  0.
         -6    2    1    2    0  502  0.13295124177E+03 -0.65406544124E+02  0.89185350688E+03  0.91902419505E+03  0.16507193777E+03 0.  0.
        -24    2    5    5    0    0  0.14451040306E+03 -0.53085382126E+02  0.88223270055E+03  0.89902231620E+03  0.78773553437E+02 0.  0.
          5    1    3    3  501    0  0.14801423079E+02  0.21302018783E+02  0.37568924471E+03  0.37661300657E+03  0.47000000000E+01 0. -1.
        -11    1    4    4    0    0 -0.14562234957E+03  0.56903211865E+02  0.53032281546E+03  0.55288889734E+03  0.00000000000E+00 0.  1.
         12    1    4    4    0    0 -0.21303152792E+01 -0.12798686524E+02  0.18403852565E+02  0.22517691027E+02  0.00000000000E+00 0. -1.
         -5    1    5    5    0  502 -0.11559161294E+02 -0.12321161997E+02  0.96208063307E+01  0.20001878843E+02  0.47000000000E+01 0.  1.
         13    1    6    6    0    0  0.56095480550E+02 -0.38849926903E+00  0.16123741868E+03  0.17071719027E+03  0.00000000000E+00 0. -1.
        -14    1    6    6    0    0  0.88414922511E+02 -0.52696882857E+02  0.72099528187E+03  0.72830512594E+03  0.00000000000E+00 0.  1.
</event>
<event>
12    1  0.9966151E-001  0.3665494E+03  0.7818608E-02  0.1056253E+00
         21   -1    0    0  503  502  0.00000000000E+00  0.00000000000E+00  0.23161308024E+03  0.23161308024E+03  0.00000000000E+00 0.  1.
         21   -1    0    0  501  503 -0.00000000000E+00 -0.00000000000E+00 -0.61329459219E+03  0.61329459219E+03  0.00000000000E+00 0. -1.
          6    2    1    2  501    0  0.13397244195E+03  0.29142236519E+03 -0.29398551719E+03  0.46801369265E+03  0.17243468923E+03 0.  0.
         24    2    3    3    0    0  0.82443036375E+02  0.74487247990E+02 -0.14766579787E+03  0.20127847754E+03  0.79766116249E+02 0.  0.
         -6    2    1    2    0  502 -0.13397244195E+03 -0.29142236519E+03 -0.87695994754E+02  0.37689397978E+03  0.17743414092E+03 0.  0.
        -24    2    5    5    0    0 -0.40516108176E+02 -0.13193642997E+03  0.23015045962E+02  0.16137397052E+03  0.80393342050E+02 0.  0.
          5    1    3    3  501    0  0.51529405578E+02  0.21693511720E+03 -0.14631971932E+03  0.26673521511E+03  0.47000000000E+01 0. -1.
        -13    1    4    4    0    0  0.91853128590E+02  0.82892603262E+02 -0.13828631914E+03  0.18555669476E+03  0.00000000000E+00 0.  1.
         14    1    4    4    0    0 -0.94100922155E+01 -0.84053552720E+01 -0.93794787308E+01  0.15721782787E+02  0.00000000000E+00 0. -1.
         -5    1    5    5    0  502 -0.93456333776E+02 -0.15948593522E+03 -0.11071104072E+03  0.21552000926E+03  0.47000000000E+01 0.  1.
         13    1    6    6    0    0 -0.62492775747E+02 -0.10926467789E+03  0.72499332677E+01  0.12608203039E+03  0.00000000000E+00 0. -1.
        -14    1    6    6    0    0  0.21976667570E+02 -0.22671752078E+02  0.15765112694E+02  0.35291940129E+02  0.00000000000E+00 0.  1.
</event>
<event>
12    1  0.9966151E-001  0.3146595E+03  0.7818608E-02  0.1078262E+00
         21   -1    0    0  503  502  0.00000000000E+00  0.00000000000E+00  0.47426010993E+02  0.47426010993E+02  0.00000000000E+00 0.  1.
         21   -1    0    0  501  503 -0.00000000000E+00 -0.00000000000E+00 -0.22619036167E+04  0.22619036167E+04  0.00000000000E+00 0.  1.
          6    2    1    2  501    0 -0.26215469599E+03  0.17886847688E+01 -0.77844151350E+03  0.83922410469E+03  0.17203959987E+03 0.  0.
         24    2    3    3    0    0 -0.24186552864E+03 -0.48144123081E+02 -0.66261267072E+03  0.71138300632E+03  0.78698410093E+02 0.  0.
         -6    2    1    2    0  502  0.26215469599E+03 -0.17886847688E+01 -0.14360360922E+04  0.14701055230E+04  0.17401812156E+03 0.  0.
        -24    2    5    5    0    0  0.20800460282E+03 -0.62909981756E+02 -0.10015653448E+04  0.10280026324E+04  0.80204062911E+02 0.  0.
          5    1    3    3  501    0 -0.20289167349E+02  0.49932807850E+02 -0.11582884279E+03  0.12784109837E+03  0.47000000000E+01 0. -1.
        -11    1    4    4    0    0 -0.29372403259E+00 -0.93511140127E+01 -0.72414591981E+01  0.11830821544E+02  0.00000000000E+00 0.  1.
         12    1    4    4    0    0 -0.24157180461E+03 -0.38793009069E+02 -0.65537121152E+03  0.69955218477E+03  0.00000000000E+00 0. -1.
         -5    1    5    5    0  502  0.54150093176E+02  0.61121296987E+02 -0.43447074742E+03  0.44210289062E+03  0.47000000000E+01 0.  1.
         11    1    6    6    0    0  0.15907525682E+03 -0.36419759823E+02 -0.86971826640E+03  0.88489615162E+03  0.00000000000E+00 0. -1.
        -12    1    6    6    0    0  0.48929345994E+02 -0.26490221932E+02 -0.13184707840E+03  0.14310648077E+03  0.00000000000E+00 0.  1.
</event>
<event>
12    1  0.9966151E-001  0.1923321E+03  0.7818608E-02  0.1156557E+00
         21   -1    0    0  501  502  0.00000000000E+00  0.00000000000E+00  0.38019733057E+02  0.38019733057E+02  0.00000000000E+00 0.  1.
         21   -1    0    0  502  503 -0.00000000000E+00 -0.00000000000E+00 -0.96897576867E+03  0.96897576867E+03  0.00000000000E+00 0.  1.
         -6    2    1    2    0  503 -0.67279455266E+02  0.55274864858E+02 -0.47281011593E+03  0.51043219869E+03  0.17149282185E+03 0.  0.
        -24    2    3    3    0    0  0.25401188034E+02  0.83489922612E+01 -0.16601186957E+03  0.18648931309E+03  0.80643642234E+02 0.  0.
          6    2    1    2  501    0  0.67279455266E+02 -0.55274864858E+02 -0.45814591968E+03  0.49656330304E+03  0.17057430761E+03 0.  0.
         24    2    5    5    0    0  0.10608486664E+03 -0.70115483573E+02 -0.34905300664E+03  0.37973240990E+03  0.78667157789E+02 0.  0.
          5    1    5    5  501    0 -0.38805411377E+02  0.14840618716E+02 -0.10909291304E+03  0.11683089314E+03  0.47000000000E+01 0. -1.
        -11    1    6    6    0    0  0.17237710998E+02 -0.56632593612E+02 -0.12418491114E+03  0.13757282251E+03  0.00000000000E+00 0.  1.
         12    1    6    6    0    0  0.88847155644E+02 -0.13482889962E+02 -0.22486809550E+03  0.24215958738E+03  0.00000000000E+00 0. -1.
         -5    1    3    3    0  503 -0.92680643299E+02  0.46925872596E+02 -0.30679824636E+03  0.32394288560E+03  0.47000000000E+01 0.  1.
         11    1    4    4    0    0 -0.12124706348E+02 -0.21192087186E+02 -0.11093440082E+03  0.11358941125E+03  0.00000000000E+00 0. -1.
        -12    1    4    4    0    0  0.37525894381E+02  0.29541079447E+02 -0.55077468755E+02  0.72899901842E+02  0.00000000000E+00 0.  1.
</event>
<event>
12    1  0.9966151E-001  0.2754746E+03  0.7818608E-02  0.1098198E+00
         21   -1    0    0  503  502  0.00000000000E+00  0.00000000000E+00  0.27660692105E+03  0.27660692105E+03  0.00000000000E+00 0.  1.
         21   -1    0    0  501  503 -0.00000000000E+00 -0.00000000000E+00 -0.39812531376E+03  0.39812531376E+03  0.00000000000E+00 0.  1.
          6    2    1    2  501    0  0.21374712498E+03 -0.20392575062E+02  0.12740742945E+03  0.30351092758E+03  0.17257618469E+03 0.  0.
         24    2    3    3    0    0  0.23046349057E+02 -0.26871309826E+01  0.22149852364E+02  0.84921091986E+02  0.78629644706E+02 0.  0.
         -6    2    1    2    0  502 -0.21374712498E+03  0.20392575062E+02 -0.24892582216E+03  0.37122130724E+03  0.17244565362E+03 0.  0.
        -24    2    5    5    0    0 -0.21195187707E+03  0.35564726237E+02 -0.26364559754E+03  0.34949162999E+03  0.80292903705E+02 0.  0.
          5    1    3    3  501    0  0.19070077593E+03 -0.17705444080E+02  0.10525757709E+03  0.21858983559E+03  0.47000000000E+01 0. -1.
        -13    1    4    4    0    0  0.21761632793E+02  0.17431281126E+01 -0.27469279963E+02  0.35088010760E+02  0.00000000000E+00 0.  1.
         14    1    4    4    0    0  0.12847162642E+01 -0.44302590952E+01  0.49619132327E+02  0.49833081226E+02  0.00000000000E+00 0. -1.
         -5    1    5    5    0  502 -0.17952479118E+01 -0.15172151175E+02  0.14719775373E+02  0.21729677250E+02  0.47000000000E+01 0.  1.
         11    1    6    6    0    0 -0.14722596298E+03 -0.12576966201E+02 -0.15465746633E+03  0.21389856508E+03  0.00000000000E+00 0. -1.
        -12    1    6    6    0    0 -0.64725914091E+02  0.48141692438E+02 -0.10898813121E+03  0.13559306491E+03  0.00000000000E+00 0.  1.
</event>
<event>
12    1  0.9966151E-001  0.2017518E+03  0.7818608E-02  0.1148645E+00
         21   -1    0    0  501  502  0.00000000000E+00  0.00000000000E+00  0.21514123397E+03  0.21514123397E+03  0.00000000000E+00 0.  1.
         21   -1    0    0  502  503 -0.00000000000E+00 -0.00000000000E+00 -0.27779921788E+03  0.27779921788E+03  0.00000000000E+00 0.  1.
         -6    2    1    2    0  503  0.94792888761E+02 -0.37990858451E+02  0.10927148056E+03  0.22786774796E+03  0.17191409776E+03 0.  0.
        -24    2    3    3    0    0  0.11335574573E+03 -0.42439867652E+02  0.13324828944E+03  0.19686209193E+03  0.79680042317E+02 0.  0.
          6    2    1    2  501    0 -0.94792888761E+02  0.37990858451E+02 -0.17192946447E+03  0.26507270388E+03  0.17399655314E+03 0.  0.
         24    2    5    5    0    0 -0.50991124055E+02  0.86820557855E+02 -0.14155906959E+03  0.19263386748E+03  0.83252223489E+02 0.  0.
          5    1    5    5  501    0 -0.43801764705E+02 -0.48829699404E+02 -0.30370394879E+02  0.72438836409E+02  0.47000000000E+01 0. -1.
        -11    1    6    6    0    0 -0.34181350372E+02  0.51763555534E+02 -0.20258851820E+02  0.65255279264E+02  0.00000000000E+00 0.  1.
         12    1    6    6    0    0 -0.16809773683E+02  0.35057002322E+02 -0.12130021777E+03  0.12737858821E+03  0.00000000000E+00 0. -1.
         -5    1    3    3    0  503 -0.18562856970E+02  0.44490092014E+01 -0.23976808878E+02  0.31005656028E+02  0.47000000000E+01 0.  1.
         13    1    4    4    0    0  0.85800714400E+02 -0.31698596835E+02  0.13932721750E+03  0.16666924482E+03  0.00000000000E+00 0. -1.
        -14    1    4    4    0    0  0.27555031330E+02 -0.10741270818E+02 -0.60789280559E+01  0.30192847111E+02  0.00000000000E+00 0.  1.
</event>
<event>
12    1  0.1311982E+000  0.1814061E+03  0.7818608E-02  0.1166863E+00
         21   -1    0    0  501  502  0.00000000000E+00  0.00000000000E+00  0.19340645109E+03  0.19340645109E+03  0.00000000000E+00 0.  1.
         21   -1    0    0  502  503 -0.00000000000E+00 -0.00000000000E+00 -0.47075777920E+03  0.47075777920E+03  0.00000000000E+00 0.  1.
         -6    2    1    2    0  503 -0.34608836085E+02  0.35882268767E+02  0.12716271241E+03  0.22153671277E+03  0.17442147498E+03 0.  0.
        -24    2    3    3    0    0 -0.42098145239E+02 -0.36622787531E+02  0.35010107283E+02  0.10394731882E+03  0.80410540837E+02 0.  0.
          6    2    1    2  501    0  0.34608836085E+02 -0.35882268767E+02 -0.40451404052E+03  0.44262751752E+03  0.17263314148E+03 0.  0.
         24    2    5    5    0    0  0.38727726209E+02  0.12894067519E+02 -0.37369122244E+03  0.38459104320E+03  0.81234518662E+02 0.  0.
          5    1    5    5  501    0 -0.41188901237E+01 -0.48776336286E+02 -0.30822818080E+02  0.58036474322E+02  0.47000000000E+01 0. -1.
        -13    1    6    6    0    0  0.45187408655E+02 -0.23638068459E+02 -0.26146563955E+03  0.26639245644E+03  0.00000000000E+00 0.  1.
         14    1    6    6    0    0 -0.64596824465E+01  0.36532135978E+02 -0.11222558289E+03  0.11819858676E+03  0.00000000000E+00 0. -1.
         -5    1    3    3    0  503  0.74893091538E+01  0.72505056298E+02  0.92152605124E+02  0.11758939396E+03  0.47000000000E+01 0.  1.
         11    1    4    4    0    0 -0.31076431656E+02  0.11936433520E+02 -0.12079043732E+02  0.35413646341E+02  0.00000000000E+00 0. -1.
        -12    1    4    4    0    0 -0.11021713583E+02 -0.48559221052E+02  0.47089151016E+02  0.68533672475E+02  0.00000000000E+00 0.  1.
</event>
<event>
12    1  0.9966151E-001  0.2384101E+03  0.7818608E-02  0.1121685E+00
         21   -1    0    0  503  502  0.00000000000E+00  0.00000000000E+00  0.80132592613E+02  0.80132592613E+02  0.00000000000E+00 0. -1.
         21   -1    0    0  501  503 -0.00000000000E+00 -0.00000000000E+00 -0.10164378061E+04  0.10164378061E+04  0.00000000000E+00 0. -1.
          6    2    1    2  501    0  0.15449945770E+03 -0.32846426996E+02 -0.16308511475E+03  0.28885315963E+03  0.17857889848E+03 0.  0.
         24    2    3    3    0    0  0.16801708896E+03 -0.53792982243E+02 -0.17427982200E+03  0.26112418558E+03  0.81786042909E+02 0.  0.
         -6    2    1    2    0  502 -0.15449945770E+03  0.32846426996E+02 -0.77322009876E+03  0.80771723911E+03  0.17201408961E+03 0.  0.
        -24    2    5    5    0    0 -0.22259044363E+02  0.35539220355E+02 -0.44079577980E+03  0.44991450589E+03  0.79772438140E+02 0.  0.
          5    1    3    3  501    0 -0.13517631265E+02  0.20946555247E+02  0.11194707249E+02  0.27728974055E+02  0.47000000000E+01 0. -1.
        -11    1    4    4    0    0  0.13947889240E+03 -0.17294860815E+02 -0.96145425438E+02  0.17028627798E+03  0.00000000000E+00 0.  1.
         12    1    4    4    0    0  0.28538196568E+02 -0.36498121428E+02 -0.78134396561E+02  0.90837907600E+02  0.00000000000E+00 0. -1.
         -5    1    5    5    0  502 -0.13224041334E+03 -0.26927933593E+01 -0.33242431897E+03  0.35780273322E+03  0.47000000000E+01 0.  1.
         13    1    6    6    0    0 -0.19906017772E+01 -0.25385634651E+02 -0.14642829713E+03  0.14862583605E+03  0.00000000000E+00 0. -1.
        -14    1    6    6    0    0 -0.20268442586E+02  0.60924855005E+02 -0.29436748267E+03  0.30128866984E+03  0.00000000000E+00 0.  1.
</event>
<event>
12    1  0.9966151E-001  0.2674205E+03  0.7818608E-02  0.1104035E+00
         21   -1    0    0  501  502  0.00000000000E+00  0.00000000000E+00  0.38807095415E+03  0.38807095415E+03  0.00000000000E+00 0. -1.
         21   -1    0    0  502  503 -0.00000000000E+00 -0.00000000000E+00 -0.24151070900E+03  0.24151070900E+03  0.00000000000E+00 0.  1.
         -6    2    1    2    0  503  0.17001691600E+03  0.11400101368E+03 -0.88521010194E+02  0.27352416244E+03  0.15835881835E+03 0.  0.
        -24    2    3    3    0    0  0.17349208904E+03  0.11972927341E+03 -0.45285901285E+02  0.22952127129E+03  0.78705763773E+02 0.  0.
          6    2    1    2  501    0 -0.17001691600E+03 -0.11400101368E+03  0.23508125535E+03  0.35605750071E+03  0.17208069139E+03 0.  0.
         24    2    5    5    0    0 -0.80759486186E+02 -0.23202990394E+02  0.38952588542E+02  0.12217780139E+03  0.79684613490E+02 0.  0.
          5    1    5    5  501    0 -0.89257429811E+02 -0.90798023285E+02  0.19612866680E+03  0.23387969931E+03  0.47000000000E+01 0. -1.
        -13    1    6    6    0    0 -0.20334467995E+01 -0.35550945001E+02  0.17362087250E+02  0.39616242503E+02  0.00000000000E+00 0.  1.
         14    1    6    6    0    0 -0.78726039386E+02  0.12347954608E+02  0.21590501292E+02  0.82561558891E+02  0.00000000000E+00 0. -1.
         -5    1    3    3    0  503 -0.34751730406E+01 -0.57282597289E+01 -0.43235108909E+02  0.44002891150E+02  0.47000000000E+01 0.  1.
         13    1    4    4    0    0 -0.37679424326E+01  0.85008637067E+01  0.94046435002E+01  0.13225331501E+02  0.00000000000E+00 0. -1.
        -14    1    4    4    0    0  0.17726003147E+03  0.11122840970E+03 -0.54690544785E+02  0.21629593979E+03  0.00000000000E+00 0.  1.
</event>
<event>
12    1  0.9966151E-001  0.1890277E+03  0.7818608E-02  0.1159510E+00
         21   -1    0    0  501  502  0.00000000000E+00  0.00000000000E+00  0.28425748066E+03  0.28425748066E+03  0.00000000000E+00 0.  1.
         21   -1    0    0  502  503 -0.00000000000E+00 -0.00000000000E+00 -0.48146780558E+03  0.48146780558E+03  0.00000000000E+00 0.  1.
         -6    2    1    2    0  503 -0.30926715062E+02 -0.71073564402E+02  0.23078337889E+03  0.29784700524E+03  0.17159241619E+03 0.  0.
        -24    2    3    3    0    0  0.24279867945E+02 -0.96844301658E+02  0.16081693680E+03  0.20495302952E+03  0.78583244997E+02 0.  0.
          6    2    1    2  501    0  0.30926715062E+02  0.71073564402E+02 -0.42799370382E+03  0.46787828100E+03  0.17240522633E+03 0.  0.
         24    2    5    5    0    0  0.43504973461E+02  0.51986374160E+02 -0.43172610989E+03  0.44424452821E+03  0.79815418739E+02 0.  0.
          5    1    5    5  501    0 -0.12578258399E+02  0.19087190242E+02  0.37324060787E+01  0.23633752788E+02  0.47000000000E+01 0. -1.
        -11    1    6    6    0    0  0.34551617181E+02  0.28896079546E+02 -0.40616137955E+03  0.40865127420E+03  0.00000000000E+00 0.  1.
         12    1    6    6    0    0  0.89533562799E+01  0.23090294613E+02 -0.25564730343E+02  0.35593254017E+02  0.00000000000E+00 0. -1.
         -5    1    3    3    0  503 -0.55206583007E+02  0.25770737257E+02  0.69966442091E+02  0.92893975720E+02  0.47000000000E+01 0.  1.
         11    1    4    4    0    0 -0.27885913906E+02 -0.47820680299E+02  0.74453509047E+02  0.92778050572E+02  0.00000000000E+00 0. -1.
        -12    1    4    4    0    0  0.52165781851E+02 -0.49023621359E+02  0.86363427756E+02  0.11217497894E+03  0.00000000000E+00 0.  1.
</event>
<event>
12    1  0.9966151E-001  0.3581344E+03  0.7818608E-02  0.1059338E+00
         21   -1    0    0  501  502  0.00000000000E+00  0.00000000000E+00  0.56527535716E+03  0.56527535716E+03  0.00000000000E+00 0. -1.
         21   -1    0    0  502  503 -0.00000000000E+00 -0.00000000000E+00 -0.29610545667E+03  0.29610545667E+03  0.00000000000E+00 0. -1.
         -6    2    1    2    0  503 -0.25111981603E+03 -0.18918512043E+03  0.34290745747E+03  0.49573415318E+03  0.17121522844E+03 0.  0.
        -24    2    3    3    0    0 -0.21394512238E+03 -0.17221284339E+03  0.35216325015E+03  0.45357047529E+03  0.79230312878E+02 0.  0.
          6    2    1    2  501    0  0.25111981603E+03  0.18918512043E+03 -0.73737556979E+02  0.36564666065E+03  0.17148784604E+03 0.  0.
         24    2    5    5    0    0  0.15580749672E+03  0.97058684858E+02 -0.10988302420E+03  0.22816828728E+03  0.79310301808E+02 0.  0.
          5    1    5    5  501    0  0.95312319311E+02  0.92126435568E+02  0.36145467221E+02  0.13747837337E+03  0.47000000000E+01 0. -1.
        -13    1    6    6    0    0 -0.45122830241E+01  0.20329037729E+02 -0.37582381838E+01  0.21160218036E+02  0.00000000000E+00 0.  1.
         14    1    6    6    0    0  0.16031977974E+03  0.76729647129E+02 -0.10612478602E+03  0.20700806924E+03  0.00000000000E+00 0. -1.
         -5    1    3    3    0  503 -0.37174693646E+02 -0.16972277034E+02 -0.92557926778E+01  0.42163677893E+02  0.47000000000E+01 0.  1.
         13    1    4    4    0    0 -0.12390867493E+01 -0.99790993884E+01 -0.14585194727E+01  0.10160956630E+02  0.00000000000E+00 0. -1.
        -14    1    4    4    0    0 -0.21270603563E+03 -0.16223374400E+03  0.35362176962E+03  0.44340951866E+03  0.00000000000E+00 0.  1.
</event>
<event>
12    1  0.9966151E-001  0.2159232E+03  0.7818608E-02  0.1137341E+00
         21   -1    0    0  501  502  0.00000000000E+00  0.00000000000E+00  0.25318265938E+03  0.25318265938E+03  0.00000000000E+00 0. -1.
         21   -1    0    0  502  503 -0.00000000000E+00 -0.00000000000E+00 -0.21440594533E+03  0.21440594533E+03  0.00000000000E+00 0.  1.
         -6    2    1    2    0  503  0.12531442980E+03  0.29256502877E+02  0.10971743456E+03  0.24219978691E+03  0.17338734687E+03 0.  0.
        -24    2    3    3    0    0  0.25936283327E+02  0.31419237777E+02 -0.57912932215E+01  0.89736513909E+02  0.79744865390E+02 0.  0.
          6    2    1    2  501    0 -0.12531442980E+03 -0.29256502877E+02 -0.70940720514E+02  0.22538881780E+03  0.17090314241E+03 0.  0.
         24    2    5    5    0    0 -0.34606813165E+02 -0.19354112838E+02  0.27510438727E+02  0.91073331723E+02  0.77235447245E+02 0.  0.
          5    1    5    5  501    0 -0.90707616639E+02 -0.99023900398E+01 -0.98451159241E+02  0.13431548608E+03  0.47000000000E+01 0. -1.
        -13    1    6    6    0    0 -0.13997662497E+02  0.85371158157E+01 -0.23946238705E+02  0.29021358513E+02  0.00000000000E+00 0.  1.
         14    1    6    6    0    0 -0.20609150668E+02 -0.27891228653E+02  0.51456677431E+02  0.62051973211E+02  0.00000000000E+00 0. -1.
         -5    1    3    3    0  503  0.99378146477E+02 -0.21627348992E+01  0.11550872779E+03  0.15246327300E+03  0.47000000000E+01 0.  1.
         13    1    4    4    0    0  0.27314845547E+02  0.50317623089E+02  0.17352386757E+02  0.59825323291E+02  0.00000000000E+00 0. -1.
        -14    1    4    4    0    0 -0.13785622204E+01 -0.18898385313E+02 -0.23143679979E+02  0.29911190618E+02  0.00000000000E+00 0.  1.
</event>
<event>
12    1  0.9966151E-001  0.2312293E+03  0.7818608E-02  0.1125816E+00
         21   -1    0    0  503  502  0.00000000000E+00  0.00000000000E+00  0.45985380167E+03  0.45985380167E+03  0.00000000000E+00 0. -1.
         21   -1    0    0  501  503 -0.00000000000E+00 -0.00000000000E+00 -0.11761000412E+03  0.11761000412E+03  0.00000000000E+00 0. -1.
          6    2    1    2  501    0 -0.23906505912E+02 -0.15224545558E+03  0.20311830253E+03  0.30760666785E+03  0.17208898138E+03 0.  0.
         24    2    3    3    0    0 -0.70364924033E+02 -0.12404907941E+03  0.19256800618E+03  0.25204751922E+03  0.78141655367E+02 0.  0.
         -6    2    1    2    0  502  0.23906505912E+02  0.15224545558E+03  0.13912549502E+03  0.26985713794E+03  0.17238553235E+03 0.  0.
        -24    2    5    5    0    0  0.20302441349E+01  0.79646695475E+02  0.15547237577E+03  0.19214960093E+03  0.80013070913E+02 0.  0.
          5    1    3    3  501    0  0.46458418120E+02 -0.28196376164E+02  0.10550296353E+02  0.55559148627E+02  0.47000000000E+01 0. -1.
        -11    1    4    4    0    0 -0.87618692895E+01 -0.17814597088E+02 -0.40198624717E+01  0.20255604586E+02  0.00000000000E+00 0.  1.
         12    1    4    4    0    0 -0.61603054743E+02 -0.10623448232E+03  0.19658786865E+03  0.23179191463E+03  0.00000000000E+00 0. -1.
         -5    1    5    5    0  502  0.21876261777E+02  0.72598760102E+02 -0.16346880756E+02  0.77707537010E+02  0.47000000000E+01 0.  1.
         13    1    6    6    0    0  0.15978361451E+01  0.91488792776E+02  0.10050379416E+03  0.13591822882E+03  0.00000000000E+00 0. -1.
        -14    1    6    6    0    0  0.43240798980E+00 -0.11842097301E+02  0.54968581609E+02  0.56231372109E+02  0.00000000000E+00 0.  1.
</event>
<event>
12    1  0.9966151E-001  0.2045090E+03  0.7818608E-02  0.1146404E+00
         21   -1    0    0  501  502  0.00000000000E+00  0.00000000000E+00  0.78387902474E+02  0.78387902474E+02  0.00000000000E+00 0. -1.
         21   -1    0    0  502  503 -0.00000000000E+00 -0.00000000000E+00 -0.81700673998E+03  0.81700673998E+03  0.00000000000E+00 0. -1.
         -6    2    1    2    0  503 -0.89317100668E+02  0.67156892179E+02 -0.63661093993E+03  0.66865343435E+03  0.17127852696E+03 0.  0.
        -24    2    3    3    0    0 -0.13535204670E+02 -0.56044415728E+01 -0.15259444777E+03  0.17334427622E+03  0.80923180098E+02 0.  0.
          6    2    1    2  501    0  0.89317100668E+02 -0.67156892179E+02 -0.10200789758E+03  0.22674120810E+03  0.16887383351E+03 0.  0.
         24    2    5    5    0    0 -0.11568078290E+02 -0.11470046138E+01 -0.48615079008E+02  0.94801799036E+02  0.80553206880E+02 0.  0.
          5    1    5    5  501    0  0.10088517896E+03 -0.66009887565E+02 -0.53392818574E+02  0.13193940907E+03  0.47000000000E+01 0. -1.
        -13    1    6    6    0    0  0.82712448791E+01  0.33883990763E+01  0.20707191188E+02  0.22553990934E+02  0.00000000000E+00 0.  1.
         14    1    6    6    0    0 -0.19839323169E+02 -0.45354036901E+01 -0.69322270196E+02  0.72247808102E+02  0.00000000000E+00 0. -1.
         -5    1    3    3    0  503 -0.75781895998E+02  0.72761333752E+02 -0.48401649216E+03  0.49530915813E+03  0.47000000000E+01 0.  1.
         13    1    4    4    0    0 -0.45502939051E+02 -0.16592233400E+02 -0.90382181884E+02  0.10254149635E+03  0.00000000000E+00 0. -1.
        -14    1    4    4    0    0  0.31967734381E+02  0.10987791827E+02 -0.62212265885E+02  0.70802779869E+02  0.00000000000E+00 0.  1.
</event>
<event>
12    1  0.9966151E-001  0.2765550E+03  0.7818608E-02  0.1097610E+00
         21   -1    0    0  503  502  0.00000000000E+00  0.00000000000E+00  0.12873479763E+03  0.12873479763E+03  0.00000000000E+00 0. -1.
         21   -1    0    0  501  503 -0.00000000000E+00 -0.00000000000E+00 -0.67021805141E+03  0.67021805141E+03  0.00000000000E+00 0. -1.
          6    2    1    2  501    0 -0.14358028513E+03  0.16139847501E+03 -0.40561725418E+03  0.49082586159E+03  0.17239461566E+03 0.  0.
         24    2    3    3    0    0 -0.59309890474E+02  0.66468411014E+02 -0.30873112086E+03  0.33106907990E+03  0.79725265194E+02 0.  0.
         -6    2    1    2    0  502  0.14358028513E+03 -0.16139847501E+03 -0.13586599960E+03  0.30812698745E+03  0.17267861631E+03 0.  0.
        -24    2    5    5    0    0  0.14180241695E+03 -0.70189179708E+02 -0.12222604494E+03  0.21576663487E+03  0.81126988481E+02 0.  0.
          5    1    3    3  501    0 -0.84270394660E+02  0.94930063997E+02 -0.96886133319E+02  0.15975678169E+03  0.47000000000E+01 0. -1.
        -13    1    4    4    0    0 -0.64659674500E+02  0.69459337971E+02 -0.19194553482E+03  0.21412277196E+03  0.00000000000E+00 0.  1.
         14    1    4    4    0    0  0.53497840261E+01 -0.29909269568E+01 -0.11678558604E+03  0.11694630794E+03  0.00000000000E+00 0. -1.
         -5    1    5    5    0  502  0.17778681859E+01 -0.91209295304E+02 -0.13639954658E+02  0.92360352577E+02  0.47000000000E+01 0.  1.
         11    1    6    6    0    0  0.19255833478E+02 -0.47430916650E+02 -0.21540174363E+02  0.55537897771E+02  0.00000000000E+00 0. -1.
        -12    1    6    6    0    0  0.12254658347E+03 -0.22758263058E+02 -0.10068587058E+03  0.16022873710E+03  0.00000000000E+00 0.  1.
</event>
<event>
12    1  0.9966151E-001  0.1819918E+03  0.7818608E-02  0.1168402E+00
         21   -1    0    0  503  502  0.00000000000E+00  0.00000000000E+00  0.50849419502E+03  0.50849419502E+03  0.00000000000E+00 0. -1.
         21   -1    0    0  501  503 -0.00000000000E+00 -0.00000000000E+00 -0.61833868391E+02  0.61833868391E+02  0.00000000000E+00 0. -1.
          6    2    1    2  501    0 -0.35319039019E+02 -0.48377468030E+02  0.24967986291E+03  0.30896774121E+03  0.17185231226E+03 0.  0.
         24    2    3    3    0    0  0.27771929011E+02 -0.43063022143E+02  0.68578551766E+02  0.11706024140E+03  0.79839704642E+02 0.  0.
         -6    2    1    2    0  502  0.35319039019E+02  0.48377468030E+02  0.19698046371E+03  0.26136032220E+03  0.16099720807E+03 0.  0.
        -24    2    5    5    0    0 -0.34141872819E+02  0.38993790790E+01  0.86556525614E+02  0.12345218330E+03  0.81040340563E+02 0.  0.
          5    1    3    3  501    0 -0.63090968031E+02 -0.53144458870E+01  0.18110131115E+03  0.19190749981E+03  0.47000000000E+01 0. -1.
        -11    1    4    4    0    0 -0.14799737963E+02 -0.46956720094E+02  0.22269237202E+02  0.54035957763E+02  0.00000000000E+00 0.  1.
         12    1    4    4    0    0  0.42571666974E+02  0.38936979507E+01  0.46309314564E+02  0.63024283638E+02  0.00000000000E+00 0. -1.
         -5    1    5    5    0  502  0.69460911838E+02  0.44478088951E+02  0.11042393810E+03  0.13790813890E+03  0.47000000000E+01 0.  1.
         11    1    6    6    0    0  0.17727460725E+02 -0.19083212780E+02  0.94174141479E+01  0.27696923348E+02  0.00000000000E+00 0. -1.
        -12    1    6    6    0    0 -0.51869333543E+02  0.22982591859E+02  0.77139111467E+02  0.95755259953E+02  0.00000000000E+00 0.  1.
</event>
<event>
12    1  0.9966151E-001  0.2063459E+03  0.7818608E-02  0.1144555E+00
         21   -1    0    0  501  502  0.00000000000E+00  0.00000000000E+00  0.78978229325E+03  0.78978229325E+03  0.00000000000E+00 0.  1.
         21   -1    0    0  502  503 -0.00000000000E+00 -0.00000000000E+00 -0.54668305499E+02  0.54668305499E+02  0.00000000000E+00 0.  1.
         -6    2    1    2    0  503 -0.92201635611E+02 -0.65593396515E+02  0.42008170246E+03  0.46802486429E+03  0.17255434383E+03 0.  0.
        -24    2    3    3    0    0 -0.32254787620E+02  0.27677952822E+01  0.32451979451E+03  0.33603605651E+03  0.80988284522E+02 0.  0.
          6    2    1    2  501    0  0.92201635611E+02  0.65593396515E+02  0.31503228529E+03  0.37642573446E+03  0.17218408031E+03 0.  0.
         24    2    5    5    0    0  0.25726817705E+02 -0.31159336402E+02  0.11203453453E+03  0.14188326590E+03  0.77112585364E+02 0.  0.
          5    1    5    5  501    0  0.66474817906E+02  0.96752732917E+02  0.20299775077E+03  0.23454246856E+03  0.47000000000E+01 0. -1.
        -11    1    6    6    0    0  0.87881246594E-01 -0.44166517764E+01 -0.11813679346E+02  0.12612595123E+02  0.00000000000E+00 0.  1.
         12    1    6    6    0    0  0.25638936458E+02 -0.26742684625E+02  0.12384821387E+03  0.12927067078E+03  0.00000000000E+00 0. -1.
         -5    1    3    3    0  503 -0.59946847991E+02 -0.68361191797E+02  0.95561907946E+02  0.13198880778E+03  0.47000000000E+01 0.  1.
         13    1    4    4    0    0 -0.43517337430E+01  0.56084469633E+01 -0.27159357031E+01  0.76005638379E+01  0.00000000000E+00 0. -1.
        -14    1    4    4    0    0 -0.27903053877E+02 -0.28406516811E+01  0.32723573021E+03  0.32843549267E+03  0.00000000000E+00 0.  1.
</event>
<event>
12    1  0.9966151E-001  0.2278554E+03  0.7818608E-02  0.1130269E+00
         21   -1    0    0  501  502  0.00000000000E+00  0.00000000000E+00  0.68430997246E+03  0.68430997246E+03  0.00000000000E+00 0.  1.
         21   -1    0    0  502  503 -0.00000000000E+00 -0.00000000000E+00 -0.77593127247E+02  0.77593127247E+02  0.00000000000E+00 0.  1.
         -6    2    1    2    0  503 -0.24945361357E+02  0.12850697593E+03  0.19452543619E+03  0.29092555149E+03  0.17222432252E+03 0.  0.
        -24    2    3    3    0    0  0.53148143879E+02  0.78811337869E+02  0.87655566974E+02  0.14946350376E+03  0.74965914648E+02 0.  0.
          6    2    1    2  501    0  0.24945361357E+02 -0.12850697593E+03  0.41219140902E+03  0.47097754822E+03  0.18649873817E+03 0.  0.
         24    2    5    5    0    0  0.30579255275E+02 -0.82907138279E+02  0.40644301275E+03  0.42443487947E+03  0.84500650105E+02 0.  0.
          5    1    5    5  501    0 -0.56338939179E+01 -0.45599837649E+02  0.57483962691E+01  0.46542668745E+02  0.47000000000E+01 0. -1.
        -11    1    6    6    0    0  0.13974121231E+01 -0.49296195029E+02  0.73388394725E+02  0.88419025584E+02  0.00000000000E+00 0.  1.
         12    1    6    6    0    0  0.29181843152E+02 -0.33610943249E+02  0.33305461802E+03  0.33601585389E+03  0.00000000000E+00 0. -1.
         -5    1    3    3    0  503 -0.78093505236E+02  0.49695638058E+02  0.10686986922E+03  0.14146204773E+03  0.47000000000E+01 0.  1.
         13    1    4    4    0    0  0.52009134029E+02  0.76237244434E+02  0.38124659072E+02  0.99852676932E+02  0.00000000000E+00 0. -1.
        -14    1    4    4    0    0  0.11390098504E+01  0.25740934352E+01  0.49530907902E+02  0.49610826823E+02  0.00000000000E+00 0.  1.
</event>
<event>
12    1  0.9966151E-001  0.3013119E+03  0.7818608E-02  0.1084609E+00
         21   -1    0    0  501  502  0.00000000000E+00  0.00000000000E+00  0.58617561115E+03  0.58617561115E+03  0.00000000000E+00 0. -1.
         21   -1    0    0  502  503 -0.00000000000E+00 -0.00000000000E+00 -0.19441771646E+03  0.19441771646E+03  0.00000000000E+00 0. -1.
         -6    2    1    2    0  503 -0.10291219153E+03 -0.22546621474E+03  0.19717385688E+02  0.30195630447E+03  0.17135606601E+03 0.  0.
        -24    2    3    3    0    0 -0.89805609486E+02 -0.16388360823E+03 -0.48481386923E+02  0.20901889272E+03  0.80097241489E+02 0.  0.
          6    2    1    2  501    0  0.10291219153E+03  0.22546621474E+03  0.37204050900E+03  0.47863702314E+03  0.17103603839E+03 0.  0.
         24    2    5    5    0    0  0.57051788887E+01  0.17271234336E+03  0.24305127960E+03  0.30865912589E+03  0.79589125288E+02 0.  0.
          5    1    5    5  501    0  0.97207012640E+02  0.52753871376E+02  0.12898922940E+03  0.16997789725E+03  0.47000000000E+01 0. -1.
        -11    1    6    6    0    0  0.29341910262E+02  0.13293006392E+03  0.21522429078E+03  0.25466221733E+03  0.00000000000E+00 0.  1.
         12    1    6    6    0    0 -0.23636731373E+02  0.39782279445E+02  0.27826988821E+02  0.53996908566E+02  0.00000000000E+00 0. -1.
         -5    1    3    3    0  503 -0.13106582042E+02 -0.61582606504E+02  0.68198772611E+02  0.92937411747E+02  0.47000000000E+01 0.  1.
         11    1    4    4    0    0 -0.25228535578E+02 -0.53020227754E+02 -0.55137068206E+02  0.80546383214E+02  0.00000000000E+00 0. -1.
        -12    1    4    4    0    0 -0.64577073908E+02 -0.11086338048E+03  0.66556812836E+01  0.12847250951E+03  0.00000000000E+00 0.  1.
</event>
<event>
12    1  0.9966151E-001  0.1809393E+03  0.7818608E-02  0.1167527E+00
         21   -1    0    0  501  502  0.00000000000E+00  0.00000000000E+00  0.14077738715E+03  0.14077738715E+03  0.00000000000E+00 0.  1.
         21   -1    0    0  502  503 -0.00000000000E+00 -0.00000000000E+00 -0.23107700784E+03  0.23107700784E+03  0.00000000000E+00 0.  1.
         -6    2    1    2    0  503 -0.35375627981E+01  0.49178699693E+02 -0.28850971024E+02  0.18322500743E+03  0.17409183199E+03 0.  0.
        -24    2    3    3    0    0  0.28316440445E+02 -0.32840806261E+02 -0.26111815831E+02  0.95069066899E+02  0.80473357080E+02 0.  0.
          6    2    1    2  501    0  0.35375627981E+01 -0.49178699693E+02 -0.61448649664E+02  0.18862938757E+03  0.17138859488E+03 0.  0.
         24    2    5    5    0    0 -0.24660471284E+02 -0.71012816996E+02 -0.90171836903E+02  0.14259712400E+03  0.80944552501E+02 0.  0.
          5    1    5    5  501    0  0.28198034082E+02  0.21834117303E+02  0.28723187239E+02  0.46032263573E+02  0.47000000000E+01 0. -1.
        -11    1    6    6    0    0 -0.52046960759E+02 -0.27044680995E+02 -0.48984945902E+02  0.76418753061E+02  0.00000000000E+00 0.  1.
         12    1    6    6    0    0  0.27386489476E+02 -0.43968136001E+02 -0.41186891001E+02  0.66178370934E+02  0.00000000000E+00 0. -1.
         -5    1    3    3    0  503 -0.31854003243E+02  0.82019505954E+02 -0.27391551922E+01  0.88155940530E+02  0.47000000000E+01 0.  1.
         11    1    4    4    0    0  0.36706574110E+02 -0.16846596827E+00 -0.43663983139E+02  0.57043355330E+02  0.00000000000E+00 0. -1.
        -12    1    4    4    0    0 -0.83901336651E+01 -0.32672340293E+02  0.17552167308E+02  0.38025711569E+02  0.00000000000E+00 0.  1.
</event>
<event>
12    1  0.9966151E-001  0.1775830E+03  0.7818608E-02  0.1170244E+00
         21   -1    0    0  501  502  0.00000000000E+00  0.00000000000E+00  0.38315477110E+03  0.38315477110E+03  0.00000000000E+00 0.  1.
         21   -1    0    0  502  503 -0.00000000000E+00 -0.00000000000E+00 -0.83731088074E+02  0.83731088074E+02  0.00000000000E+00 0.  1.
         -6    2    1    2    0  503 -0.29577032034E+02 -0.30006493788E+02  0.11779554375E+03  0.21309976515E+03  0.17251240329E+03 0.  0.
        -24    2    3    3    0    0 -0.65008230036E+02 -0.55170623018E+02  0.12297552996E+03  0.16908243392E+03  0.78714807209E+02 0.  0.
          6    2    1    2  501    0  0.29577032034E+02  0.30006493788E+02  0.18162813927E+03  0.25378609402E+03  0.17217261701E+03 0.  0.
         24    2    5    5    0    0  0.47327420525E+02  0.58528985624E+02  0.56526290510E+02  0.12416676137E+03  0.80973058601E+02 0.  0.
          5    1    5    5  501    0 -0.17750388491E+02 -0.28522491836E+02  0.12510184876E+03  0.12961933265E+03  0.47000000000E+01 0. -1.
        -13    1    6    6    0    0 -0.21946404870E+02  0.23505091311E+02  0.10046425388E+02  0.33690720790E+02  0.00000000000E+00 0.  1.
         14    1    6    6    0    0  0.69273825395E+02  0.35023894313E+02  0.46479865121E+02  0.90476040582E+02  0.00000000000E+00 0. -1.
         -5    1    3    3    0  503  0.35431198002E+02  0.25164129230E+02 -0.51799862115E+01  0.44017331233E+02  0.47000000000E+01 0.  1.
         11    1    4    4    0    0 -0.51735471179E+02  0.71995871992E+01  0.53122465895E+02  0.74500935676E+02  0.00000000000E+00 0. -1.
        -12    1    4    4    0    0 -0.13272758857E+02 -0.62370210217E+02  0.69853064070E+02  0.94581498245E+02  0.00000000000E+00 0.  1.
</event>
<event>
12    1  0.9966151E-001  0.2206228E+03  0.7818608E-02  0.1133847E+00
         21   -1    0    0  501  502  0.00000000000E+00  0.00000000000E+00  0.24100542048E+03  0.24100542048E+03  0.00000000000E+00 0. -1.
         21   -1    0    0  502  503 -0.00000000000E+00 -0.00000000000E+00 -0.56891642462E+03  0.56891642462E+03  0.00000000000E+00 0. -1.
         -6    2    1    2    0  503  0.10602945822E+03  0.85204212990E+02 -0.49041175928E+03  0.53775281748E+03  0.17370202978E+03 0.  0.
        -24    2    3    3    0    0  0.13084163561E+03  0.80776332273E+02 -0.48302353100E+03  0.51107087242E+03  0.65094974235E+02 0.  0.
          6    2    1    2  501    0 -0.10602945822E+03 -0.85204212990E+02  0.16250075514E+03  0.27216902762E+03  0.17078489469E+03 0.  0.
         24    2    5    5    0    0 -0.74341036336E+02 -0.83876411271E+02  0.18826436180E+03  0.23103786466E+03  0.73301998144E+02 0.  0.
          5    1    5    5  501    0 -0.31688421881E+02 -0.13278017184E+01 -0.25763606656E+02  0.41131162962E+02  0.47000000000E+01 0. -1.
        -13    1    6    6    0    0 -0.36035088217E+02 -0.34518978123E+02  0.24158658578E+02  0.55441214072E+02  0.00000000000E+00 0.  1.
         14    1    6    6    0    0 -0.38305948119E+02 -0.49357433148E+02  0.16410570322E+03  0.17559665059E+03  0.00000000000E+00 0. -1.
         -5    1    3    3    0  503 -0.24812177398E+02  0.44278807171E+01 -0.73882282722E+01  0.26681945054E+02  0.47000000000E+01 0.  1.
         13    1    4    4    0    0  0.58046240760E+02  0.23605623160E+02 -0.10865508904E+03  0.12542934220E+03  0.00000000000E+00 0. -1.
        -14    1    4    4    0    0  0.72795394854E+02  0.57170709113E+02 -0.37436844197E+03  0.38564153022E+03  0.00000000000E+00 0.  1.
</event>
<event>
12    1  0.9966151E-001  0.1751738E+03  0.7818608E-02  0.1172749E+00
         21   -1    0    0  503  502  0.00000000000E+00  0.00000000000E+00  0.23831648630E+03  0.23831648630E+03  0.00000000000E+00 0.  1.
         21   -1    0    0  501  503 -0.00000000000E+00 -0.00000000000E+00 -0.13897707502E+03  0.13897707502E+03  0.00000000000E+00 0.  1.
          6    2    1    2  501    0 -0.25575112465E+01  0.33020730136E+02 -0.29636614396E+01  0.17443455815E+03  0.17123586746E+03 0.  0.
         24    2    3    3    0    0 -0.65228531933E+02  0.26032098803E+02 -0.20510938304E+02  0.10881066976E+03  0.80539628241E+02 0.  0.
         -6    2    1    2    0  502  0.25575112465E+01 -0.33020730136E+02  0.10230307272E+03  0.20285900317E+03  0.17201438020E+03 0.  0.
        -24    2    5    5    0    0 -0.14128569977E+02  0.44158946670E+02  0.31377850418E+02  0.96615862324E+02  0.78742785670E+02 0.  0.
          5    1    3    3  501    0  0.62671020687E+02  0.69886313324E+01  0.17547276864E+02  0.65623888388E+02  0.47000000000E+01 0. -1.
        -13    1    4    4    0    0 -0.28278523874E+02  0.55312621565E+01  0.30908110123E+02  0.42256136181E+02  0.00000000000E+00 0.  1.
         14    1    4    4    0    0 -0.36950008059E+02  0.20500836647E+02 -0.51419048427E+02  0.66554533579E+02  0.00000000000E+00 0. -1.
         -5    1    5    5    0  502  0.16686081223E+02 -0.77179676805E+02  0.70925222299E+02  0.10624314084E+03  0.47000000000E+01 0.  1.
         11    1    6    6    0    0 -0.34833838755E+02  0.43549385774E+02  0.45140120470E+02  0.71746608281E+02  0.00000000000E+00 0. -1.
        -12    1    6    6    0    0  0.20705268779E+02  0.60956089530E+00 -0.13762270052E+02  0.24869254043E+02  0.00000000000E+00 0.  1.
</event>
<event>
12    1  0.9966151E-001  0.1779295E+03  0.7818608E-02  0.1169984E+00
         21   -1    0    0  503  502  0.00000000000E+00  0.00000000000E+00  0.27113154064E+03  0.27113154064E+03  0.00000000000E+00 0.  1.
         21   -1    0    0  501  503 -0.00000000000E+00 -0.00000000000E+00 -0.11686394732E+03  0.11686394732E+03  0.00000000000E+00 0.  1.
          6    2    1    2  501    0  0.32698296721E+02 -0.29586147817E+02  0.63935477606E+02  0.18844898279E+03  0.17169960707E+03 0.  0.
         24    2    3    3    0    0  0.69262204633E+02 -0.17116990729E+02  0.76737095009E+02  0.14748106060E+03  0.10378746130E+03 0.  0.
         -6    2    1    2    0  502 -0.32698296721E+02  0.29586147817E+02  0.90332115718E+02  0.19954650517E+03  0.17237864672E+03 0.  0.
        -24    2    5    5    0    0  0.26196162326E+02  0.65916728788E+02  0.45104749632E+02  0.11674509779E+03  0.81016821494E+02 0.  0.
          5    1    3    3  501    0 -0.36563907913E+02 -0.12469157088E+02 -0.12801617402E+02  0.40967922188E+02  0.47000000000E+01 0. -1.
        -11    1    4    4    0    0  0.45013187284E+02 -0.16231400600E+01 -0.17972960815E+02  0.48495865118E+02  0.00000000000E+00 0.  1.
         12    1    4    4    0    0  0.24249017349E+02 -0.15493850669E+02  0.94710055823E+02  0.98985195484E+02  0.00000000000E+00 0. -1.
         -5    1    5    5    0  502 -0.58894459046E+02 -0.36330580972E+02  0.45227366086E+02  0.82801407374E+02  0.47000000000E+01 0.  1.
         13    1    6    6    0    0  0.17524758255E+02 -0.15977234781E+02  0.18899064205E+02  0.30324310560E+02  0.00000000000E+00 0. -1.
        -14    1    6    6    0    0  0.86714040708E+01  0.81893963569E+02  0.26205685426E+02  0.86420787234E+02  0.00000000000E+00 0.  1.
</event>
<event>
12    1  0.9966151E-001  0.2520574E+03  0.7818608E-02  0.1112313E+00
         21   -1    0    0  503  502  0.00000000000E+00  0.00000000000E+00  0.19515102897E+04  0.19515102897E+04  0.00000000000E+00 0.  1.
         21   -1    0    0  501  503 -0.00000000000E+00 -0.00000000000E+00 -0.32393445735E+02  0.32393445735E+02  0.00000000000E+00 0.  1.
          6    2    1    2  501    0 -0.14244286450E+03 -0.11741491615E+03  0.10067737043E+04  0.10373822314E+04  0.16879683125E+03 0.  0.
         24    2    3    3    0    0 -0.25357952367E+02 -0.79465406459E+02  0.64939485243E+03  0.65937326897E+03  0.78113103260E+02 0.  0.
         -6    2    1    2    0  502  0.14244286450E+03  0.11741491615E+03  0.91234313964E+03  0.94652150398E+03  0.17162960368E+03 0.  0.
        -24    2    5    5    0    0  0.24317053026E+02  0.25989566969E+02  0.50556613651E+03  0.51316031272E+03  0.80433895267E+02 0.  0.
          5    1    3    3  501    0 -0.11708491214E+03 -0.37949509690E+02  0.35737885186E+03  0.37800896245E+03  0.47000000000E+01 0. -1.
        -11    1    4    4    0    0 -0.21716036485E+02 -0.80864541714E+02  0.34720344110E+03  0.35715667411E+03  0.00000000000E+00 0.  1.
         12    1    4    4    0    0 -0.36419158815E+01  0.13991352544E+01  0.30219141133E+03  0.30221659487E+03  0.00000000000E+00 0. -1.
         -5    1    5    5    0  502  0.11812581148E+03  0.91425349181E+02  0.40677700313E+03  0.43336119126E+03  0.47000000000E+01 0.  1.
         11    1    6    6    0    0  0.95449119763E+01 -0.22812756732E+02  0.63208693118E+02  0.67873898518E+02  0.00000000000E+00 0. -1.
        -12    1    6    6    0    0  0.14772141049E+02  0.48802323701E+02  0.44235744339E+03  0.44528641420E+03  0.00000000000E+00 0.  1.
</event>
<event>
12    1  0.9966151E-001  0.4273515E+03  0.7818608E-02  0.1034709E+00
         21   -1    0    0  501  502  0.00000000000E+00  0.00000000000E+00  0.15304695124E+03  0.15304695124E+03  0.00000000000E+00 0. -1.
         21   -1    0    0  502  503 -0.00000000000E+00 -0.00000000000E+00 -0.15766475969E+04  0.15766475969E+04  0.00000000000E+00 0. -1.
         -6    2    1    2    0  503  0.37052790034E+03  0.12504302851E+03 -0.28523336119E+03  0.51379705144E+03  0.17234458453E+03 0.  0.
        -24    2    3    3    0    0  0.78277481874E+02  0.25711390098E+02 -0.40692079881E+02  0.11997017355E+03  0.77126891718E+02 0.  0.
          6    2    1    2  501    0 -0.37052790034E+03 -0.12504302851E+03 -0.11383672845E+04  0.12158974967E+04  0.17204640141E+03 0.  0.
         24    2    5    5    0    0 -0.36212337245E+03 -0.93241115800E+02 -0.11029766498E+04  0.11673528290E+04  0.79548066084E+02 0.  0.
          5    1    5    5  501    0 -0.84045278940E+01 -0.31801912712E+02 -0.35390634697E+02  0.48544667735E+02  0.47000000000E+01 0. -1.
        -13    1    6    6    0    0 -0.18598205083E+03 -0.89324157791E+01 -0.57678476306E+03  0.60609386582E+03  0.00000000000E+00 0.  1.
         14    1    6    6    0    0 -0.17614132162E+03 -0.84308700020E+02 -0.52619188673E+03  0.56125896317E+03  0.00000000000E+00 0. -1.
         -5    1    3    3    0  503  0.29225041847E+03  0.99331638413E+02 -0.24454128131E+03  0.39382687789E+03  0.47000000000E+01 0.  1.
         13    1    4    4    0    0  0.29013416356E+02 -0.28057804150E+01 -0.54133266855E+02  0.61482203220E+02  0.00000000000E+00 0. -1.
        -14    1    4    4    0    0  0.49264065518E+02  0.28517170513E+02  0.13441186974E+02  0.58487970325E+02  0.00000000000E+00 0.  1.
</event>
<event>
12    1  0.9966151E-001  0.2329112E+03  0.7818608E-02  0.1124672E+00
         21   -1    0    0  501  502  0.00000000000E+00  0.00000000000E+00  0.31357016499E+03  0.31357016499E+03  0.00000000000E+00 0. -1.
         21   -1    0    0  502  503 -0.00000000000E+00 -0.00000000000E+00 -0.43663770642E+03  0.43663770642E+03  0.00000000000E+00 0. -1.
         -6    2    1    2    0  503 -0.15112758998E+03 -0.37001961614E+02 -0.35313833921E+03  0.42282401816E+03  0.17281426475E+03 0.  0.
        -24    2    3    3    0    0 -0.22923345427E+02 -0.44142865814E+02 -0.20995251261E+03  0.23044004852E+03  0.80922716500E+02 0.  0.
          6    2    1    2  501    0  0.15112758998E+03  0.37001961614E+02  0.23007079778E+03  0.32738385325E+03  0.17331740179E+03 0.  0.
         24    2    5    5    0    0  0.11954074962E+03  0.64445592719E+02  0.23694695451E+03  0.28471943126E+03  0.80486458780E+02 0.  0.
          5    1    5    5  501    0  0.31586840365E+02 -0.27443631104E+02 -0.68761567287E+01  0.42664421991E+02  0.47000000000E+01 0. -1.
        -11    1    6    6    0    0  0.47795164307E+02  0.43176701172E+02  0.17850733234E+03  0.18977216064E+03  0.00000000000E+00 0.  1.
         12    1    6    6    0    0  0.71745585309E+02  0.21268891547E+02  0.58439622169E+02  0.94947270620E+02  0.00000000000E+00 0. -1.
         -5    1    3    3    0  503 -0.12820424455E+03  0.71409042001E+01 -0.14318582660E+03  0.19238396964E+03  0.47000000000E+01 0.  1.
         13    1    4    4    0    0 -0.19478870661E+02 -0.29365763372E+01 -0.36498870612E+01  0.20034259616E+02  0.00000000000E+00 0. -1.
        -14    1    4    4    0    0 -0.34444747665E+01 -0.41206289477E+02 -0.20630262554E+03  0.21040578891E+03  0.00000000000E+00 0.  1.
</event>
<event>
12    1  0.9966151E-001  0.2938223E+03  0.7818608E-02  0.1088507E+00
         21   -1    0    0  501  502  0.00000000000E+00  0.00000000000E+00  0.92050730182E+03  0.92050730182E+03  0.00000000000E+00 0. -1.
         21   -1    0    0  502  503 -0.00000000000E+00 -0.00000000000E+00 -0.11322145646E+03  0.11322145646E+03  0.00000000000E+00 0. -1.
         -6    2    1    2    0  503  0.17721680388E+03  0.15868299102E+03  0.62024027300E+03  0.68631592975E+03  0.17246875647E+03 0.  0.
        -24    2    3    3    0    0  0.15630065996E+03  0.18108198663E+03  0.59333192336E+03  0.64526292302E+03  0.84266757169E+02 0.  0.
          6    2    1    2  501    0 -0.17721680388E+03 -0.15868299102E+03  0.18704557236E+03  0.34741282853E+03  0.17065620431E+03 0.  0.
         24    2    5    5    0    0 -0.12501655899E+03 -0.12011277353E+03  0.20261626523E+03  0.28050196454E+03  0.87015991568E+02 0.  0.
          5    1    5    5  501    0 -0.52200244896E+02 -0.38570217484E+02 -0.15570692864E+02  0.66910863993E+02  0.47000000000E+01 0. -1.
        -13    1    6    6    0    0 -0.61127864995E+02 -0.29268161901E+02  0.27506795541E+02  0.73142771214E+02  0.00000000000E+00 0.  1.
         14    1    6    6    0    0 -0.63888693993E+02 -0.90844611632E+02  0.17510946969E+03  0.20735919333E+03  0.00000000000E+00 0. -1.
         -5    1    3    3    0  503  0.20916143921E+02 -0.22398995611E+02  0.26908349640E+02  0.41053006726E+02  0.47000000000E+01 0.  1.
         13    1    4    4    0    0 -0.79084731960E+01  0.27725714526E+02  0.61863697197E+02  0.68252298314E+02  0.00000000000E+00 0. -1.
        -14    1    4    4    0    0  0.16420913316E+03  0.15335627210E+03  0.53146822616E+03  0.57701062470E+03  0.00000000000E+00 0.  1.
</event>
<event>
12    1  0.9966151E-001  0.2325258E+03  0.7818608E-02  0.1125079E+00
         21   -1    0    0  503  502  0.00000000000E+00  0.00000000000E+00  0.41311011033E+03  0.41311011033E+03  0.00000000000E+00 0. -1.
         21   -1    0    0  501  503 -0.00000000000E+00 -0.00000000000E+00 -0.22711994049E+03  0.22711994049E+03  0.00000000000E+00 0. -1.
          6    2    1    2  501    0  0.25386162562E-01 -0.15521277038E+03 -0.11596320877E+03  0.25983785412E+03  0.17313936557E+03 0.  0.
         24    2    3    3    0    0  0.49970375772E+02 -0.14999623995E+03 -0.10569268892E+03  0.20836662181E+03  0.85145722982E+02 0.  0.
         -6    2    1    2    0  502 -0.25386162562E-01  0.15521277038E+03  0.30195337862E+03  0.38039219670E+03  0.17155575104E+03 0.  0.
        -24    2    5    5    0    0 -0.52370416926E+02  0.55039342313E+02  0.10066987586E+03  0.14949859259E+03  0.80270888302E+02 0.  0.
          5    1    3    3  501    0 -0.49944989609E+02 -0.52165304374E+01 -0.10270519853E+02  0.51471232304E+02  0.47000000000E+01 0. -1.
        -11    1    4    4    0    0  0.42117066583E+02 -0.12925776249E+03 -0.44126627746E+02  0.14292856866E+03  0.00000000000E+00 0.  1.
         12    1    4    4    0    0  0.78533091890E+01 -0.20738477453E+02 -0.61566061175E+02  0.65438053157E+02  0.00000000000E+00 0. -1.
         -5    1    5    5    0  502  0.52345030763E+02  0.10017342807E+03  0.20128350276E+03  0.23089360411E+03  0.47000000000E+01 0.  1.
         13    1    6    6    0    0  0.77326659628E+01  0.92645015046E+01  0.64713681885E+02  0.65829216418E+02  0.00000000000E+00 0. -1.
        -14    1    6    6    0    0 -0.60103082889E+02  0.45774840808E+02  0.35956193980E+02  0.83669376173E+02  0.00000000000E+00 0.  1.
</event>
<event>
12    1  0.9966151E-001  0.3606021E+03  0.7818608E-02  0.1058373E+00
         21   -1    0    0  501  502  0.00000000000E+00  0.00000000000E+00  0.47140926010E+03  0.47140926010E+03  0.00000000000E+00 0.  1.
         21   -1    0    0  502  503 -0.00000000000E+00 -0.00000000000E+00 -0.34278101732E+03  0.34278101732E+03  0.00000000000E+00 0.  1.
         -6    2    1    2    0  503  0.14114935669E+03  0.28338069683E+03 -0.11589461441E+03  0.37850078595E+03  0.17205674378E+03 0.  0.
        -24    2    3    3    0    0  0.49440675847E+02  0.22919629854E+03 -0.48325984518E+02  0.25227067501E+03  0.79559845394E+02 0.  0.
          6    2    1    2  501    0 -0.14114935669E+03 -0.28338069683E+03  0.24452285719E+03  0.43568949146E+03  0.17264456275E+03 0.  0.
         24    2    5    5    0    0 -0.12353132282E+03 -0.15743955423E+03  0.21682315475E+03  0.30545535603E+03  0.79015777769E+02 0.  0.
          5    1    5    5  501    0 -0.17618033874E+02 -0.12594114260E+03  0.27699702449E+02  0.13023413544E+03  0.47000000000E+01 0. -1.
        -13    1    6    6    0    0 -0.43200552930E+02 -0.56758144050E+02  0.13550512254E+03  0.15313201143E+03  0.00000000000E+00 0.  1.
         14    1    6    6    0    0 -0.80330769891E+02 -0.10068141018E+03  0.81318032204E+02  0.15232334460E+03  0.00000000000E+00 0. -1.
         -5    1    3    3    0  503  0.91708680848E+02  0.54184398294E+02 -0.67568629895E+02  0.12623011094E+03  0.47000000000E+01 0.  1.
         13    1    4    4    0    0  0.31918879824E+02  0.80750951395E+02  0.18104669960E+02  0.88697858570E+02  0.00000000000E+00 0. -1.
        -14    1    4    4    0    0  0.17521796022E+02  0.14844534714E+03 -0.66430654478E+02  0.16357281644E+03  0.00000000000E+00 0.  1.
</event>
<event>
12    1  0.9966151E-001  0.2158282E+03  0.7818608E-02  0.1137456E+00
         21   -1    0    0  501  502  0.00000000000E+00  0.00000000000E+00  0.45741925479E+03  0.45741925479E+03  0.00000000000E+00 0. -1.
         21   -1    0    0  502  503 -0.00000000000E+00 -0.00000000000E+00 -0.12824384535E+03  0.12824384535E+03  0.00000000000E+00 0. -1.
         -6    2    1    2    0  503 -0.12905669569E+03  0.78170879318E+00  0.29784740593E+02  0.21787367323E+03  0.17299007180E+03 0.  0.
        -24    2    3    3    0    0 -0.87123539290E+02  0.57294488402E+02 -0.18383918959E+02  0.13246645089E+03  0.79600393432E+02 0.  0.
          6    2    1    2  501    0  0.12905669569E+03 -0.78170879318E+00  0.29939066885E+03  0.36778942692E+03  0.17022939871E+03 0.  0.
         24    2    5    5    0    0  0.16913669934E+02 -0.44609714726E+02  0.14166867623E+03  0.16930701136E+03  0.79490574230E+02 0.  0.
          5    1    5    5  501    0  0.11214302576E+03  0.43828005933E+02  0.15772199262E+03  0.19848241556E+03  0.47000000000E+01 0. -1.
        -13    1    6    6    0    0  0.46462558424E+02 -0.14134207178E+02  0.91499689335E+02  0.10358927694E+03  0.00000000000E+00 0.  1.
         14    1    6    6    0    0 -0.29548888490E+02 -0.30475507547E+02  0.50168986893E+02  0.65717734419E+02  0.00000000000E+00 0. -1.
         -5    1    3    3    0  503 -0.41933156403E+02 -0.56512779609E+02  0.48168659552E+02  0.85407222341E+02  0.47000000000E+01 0.  1.
         13    1    4    4    0    0 -0.57386440115E+02  0.73143482749E+02  0.21729378069E+01  0.92994054845E+02  0.00000000000E+00 0. -1.
        -14    1    4    4    0    0 -0.29737099174E+02 -0.15848994347E+02 -0.20556856766E+02  0.39472396041E+02  0.00000000000E+00 0.  1.
</event>
<event>
12    1  0.9966151E-001  0.2548004E+03  0.7818608E-02  0.1110397E+00
         21   -1    0    0  501  502  0.00000000000E+00  0.00000000000E+00  0.12009890648E+04  0.12009890648E+04  0.00000000000E+00 0.  1.
         21   -1    0    0  502  503 -0.00000000000E+00 -0.00000000000E+00 -0.53955097015E+02  0.53955097015E+02  0.00000000000E+00 0.  1.
         -6    2    1    2    0  503 -0.23790465690E+02 -0.18662006729E+03  0.56228548111E+03  0.61732341962E+03  0.17184355203E+03 0.  0.
        -24    2    3    3    0    0 -0.27565689723E+02 -0.21242988608E+03  0.49740154265E+03  0.54723480048E+03  0.78557676106E+02 0.  0.
          6    2    1    2  501    0  0.23790465690E+02  0.18662006729E+03  0.58474848669E+03  0.63762074221E+03  0.17098649782E+03 0.  0.
         24    2    5    5    0    0 -0.41398387721E+02  0.14560462777E+03  0.46294715864E+03  0.49343507579E+03  0.79016252679E+02 0.  0.
          5    1    5    5  501    0  0.65188853411E+02  0.41015439517E+02  0.12180132805E+03  0.14418566643E+03  0.47000000000E+01 0. -1.
        -11    1    6    6    0    0 -0.28275680484E+01  0.25628036308E+01  0.11747010111E+03  0.11753207119E+03  0.00000000000E+00 0.  1.
         12    1    6    6    0    0 -0.38570819673E+02  0.14304182414E+03  0.34547705754E+03  0.37590300460E+03  0.00000000000E+00 0. -1.
         -5    1    3    3    0  503  0.37752240332E+01  0.25809818798E+02  0.64883938452E+02  0.70088619133E+02  0.47000000000E+01 0.  1.
         11    1    4    4    0    0 -0.49872963350E+02 -0.11520112738E+03  0.23343710096E+03  0.26504998080E+03  0.00000000000E+00 0. -1.
        -12    1    4    4    0    0  0.22307273627E+02 -0.97228758709E+02  0.26396444170E+03  0.28218481968E+03  0.00000000000E+00 0.  1.
</event>
<event>
12    1  0.9966151E-001  0.2319844E+03  0.7818608E-02  0.1125346E+00
         21   -1    0    0  501  502  0.00000000000E+00  0.00000000000E+00  0.26439170944E+03  0.26439170944E+03  0.00000000000E+00 0.  1.
         21   -1    0    0  502  503 -0.00000000000E+00 -0.00000000000E+00 -0.20557302132E+03  0.20557302132E+03  0.00000000000E+00 0.  1.
         -6    2    1    2    0  503 -0.96670443481E+02 -0.12210216181E+03  0.55366957789E+02  0.23849998523E+03  0.17193786779E+03 0.  0.
        -24    2    3    3    0    0 -0.89428390892E+02 -0.12240381073E+03  0.10170598599E+03  0.19136259188E+03  0.57405609529E+02 0.  0.
          6    2    1    2  501    0  0.96670443481E+02  0.12210216181E+03  0.34517303316E+01  0.23146474554E+03  0.17120134760E+03 0.  0.
         24    2    5    5    0    0 -0.20252191709E+02  0.63291996447E+02  0.31910175294E+02  0.97444182711E+02  0.63726614327E+02 0.  0.
          5    1    5    5  501    0  0.11692263519E+03  0.58810165367E+02 -0.28458444963E+02  0.13402056282E+03  0.47000000000E+01 0. -1.
        -13    1    6    6    0    0  0.98114671623E+01 -0.16094544270E+01  0.23385816906E+02  0.25411644256E+02  0.00000000000E+00 0.  1.
         14    1    6    6    0    0 -0.30063658872E+02  0.64901450874E+02  0.85243583884E+01  0.72032538455E+02  0.00000000000E+00 0. -1.
         -5    1    3    3    0  503 -0.72420525883E+01  0.30164892027E+00 -0.46339028198E+02  0.47137393353E+02  0.47000000000E+01 0.  1.
         11    1    4    4    0    0 -0.42787656950E+02 -0.49493835469E+02  0.11643903737E+02  0.66453019728E+02  0.00000000000E+00 0. -1.
        -12    1    4    4    0    0 -0.46640733942E+02 -0.72909975265E+02  0.90062082250E+02  0.12490957215E+03  0.00000000000E+00 0.  1.
</event>
<event>
12    1  0.9966151E-001  0.1855715E+03  0.7818608E-02  0.1164321E+00
         21   -1    0    0  501  502  0.00000000000E+00  0.00000000000E+00  0.71919516666E+02  0.71919516666E+02  0.00000000000E+00 0.  1.
         21   -1    0    0  502  503 -0.00000000000E+00 -0.00000000000E+00 -0.46022786198E+03  0.46022786198E+03  0.00000000000E+00 0.  1.
         -6    2    1    2    0  503 -0.19746762716E+02 -0.42910671181E+02 -0.20909193176E+03  0.27956430381E+03  0.17945891925E+03 0.  0.
        -24    2    3    3    0    0 -0.78989440339E+01 -0.86842070695E+02 -0.78809875599E+02  0.14148518581E+03  0.78759905735E+02 0.  0.
          6    2    1    2  501    0  0.19746762716E+02  0.42910671181E+02 -0.17921641356E+03  0.25258307484E+03  0.17160543834E+03 0.  0.
         24    2    5    5    0    0  0.72520463949E+02  0.54787129267E+01 -0.13697471321E+03  0.17517076129E+03  0.81446237276E+02 0.  0.
          5    1    5    5  501    0 -0.52773701233E+02  0.37431958254E+02 -0.42241700350E+02  0.77412313549E+02  0.47000000000E+01 0. -1.
        -11    1    6    6    0    0  0.92772270209E+01  0.29190990061E+02 -0.83756559274E+02  0.89181511892E+02  0.00000000000E+00 0.  1.
         12    1    6    6    0    0  0.63243236928E+02 -0.23712277134E+02 -0.53218153931E+02  0.85989249397E+02  0.00000000000E+00 0. -1.
         -5    1    3    3    0  503 -0.11847818682E+02  0.43931399514E+02 -0.13028205616E+03  0.13807911801E+03  0.47000000000E+01 0.  1.
         11    1    4    4    0    0 -0.54817047129E+01  0.12396682095E+02 -0.25327438493E+02  0.28726398211E+02  0.00000000000E+00 0. -1.
        -12    1    4    4    0    0 -0.24172393210E+01 -0.99238752790E+02 -0.53482437106E+02  0.11275878760E+03  0.00000000000E+00 0.  1.
</event>
<event>
12    1  0.9966151E-001  0.2735584E+03  0.7818608E-02  0.1099295E+00
         21   -1    0    0  501  502  0.00000000000E+00  0.00000000000E+00  0.55468490332E+03  0.55468490332E+03  0.00000000000E+00 0.  1.
         21   -1    0    0  502  503 -0.00000000000E+00 -0.00000000000E+00 -0.15246329234E+03  0.15246329234E+03  0.00000000000E+00 0.  1.
         -6    2    1    2    0  503  0.25659395784E+02 -0.21098529270E+03  0.32157335982E+03  0.42218911291E+03  0.17222375850E+03 0.  0.
        -24    2    3    3    0    0 -0.38622105474E+02 -0.15851609919E+03  0.26681141631E+03  0.32265977991E+03  0.79385017255E+02 0.  0.
          6    2    1    2  501    0 -0.25659395784E+02  0.21098529270E+03  0.80648251156E+02  0.28495908274E+03  0.17182648252E+03 0.  0.
         24    2    5    5    0    0 -0.10306160981E+02  0.48099098750E+02 -0.15548472919E+02  0.95107736367E+02  0.79899851388E+02 0.  0.
          5    1    5    5  501    0 -0.15353234803E+02  0.16288619395E+03  0.96196724075E+02  0.18985134638E+03  0.47000000000E+01 0. -1.
        -13    1    6    6    0    0 -0.42442109193E+02  0.37096196940E+02  0.29193825038E+01  0.56444514830E+02  0.00000000000E+00 0.  1.
         14    1    6    6    0    0  0.32135948212E+02  0.11002901811E+02 -0.18467855423E+02  0.38663221537E+02  0.00000000000E+00 0. -1.
         -5    1    3    3    0  503  0.64281501258E+02 -0.52469193508E+02  0.54761943503E+02  0.99529333001E+02  0.47000000000E+01 0.  1.
         11    1    4    4    0    0 -0.47502052731E+02 -0.15574600842E+03  0.21330623524E+03  0.26835203398E+03  0.00000000000E+00 0. -1.
        -12    1    4    4    0    0  0.88799472572E+01 -0.27700907762E+01  0.53505181076E+02  0.54307745931E+02  0.00000000000E+00 0.  1.
</event>
<event>
12    1  0.9966151E-001  0.1833005E+03  0.7818608E-02  0.1165132E+00
         21   -1    0    0  503  502  0.00000000000E+00  0.00000000000E+00  0.28010465703E+03  0.28010465703E+03  0.00000000000E+00 0. -1.
         21   -1    0    0  501  503 -0.00000000000E+00 -0.00000000000E+00 -0.13831656556E+03  0.13831656556E+03  0.00000000000E+00 0. -1.
          6    2    1    2  501    0  0.62149670196E+02 -0.61980925374E+01  0.14950115974E+03  0.23495847860E+03  0.17015843220E+03 0.  0.
         24    2    3    3    0    0  0.24438286927E+02  0.40299299977E+02  0.27165000353E+02  0.98677952364E+02  0.82329445474E+02 0.  0.
         -6    2    1    2    0  502 -0.62149670196E+02  0.61980925374E+01 -0.77130682738E+01  0.18346274399E+03  0.17233133538E+03 0.  0.
        -24    2    5    5    0    0 -0.17702416860E+02  0.54657983923E+02 -0.43753840644E+02  0.10832988383E+03  0.80747101441E+02 0.  0.
          5    1    3    3  501    0  0.37711383269E+02 -0.46497392514E+02  0.12233615939E+03  0.13628052624E+03  0.47000000000E+01 0. -1.
        -11    1    4    4    0    0 -0.18507689528E+02  0.47183332526E+02  0.86916744615E+01  0.51423211149E+02  0.00000000000E+00 0.  1.
         12    1    4    4    0    0  0.42945976455E+02 -0.68840325489E+01  0.18473325892E+02  0.47254741215E+02  0.00000000000E+00 0. -1.
         -5    1    5    5    0  502 -0.44447253336E+02 -0.48459891385E+02  0.36040772370E+02  0.75132860156E+02  0.47000000000E+01 0.  1.
         11    1    6    6    0    0  0.22334332811E+02  0.75417727391E+01 -0.39946371098E+02  0.46383330218E+02  0.00000000000E+00 0. -1.
        -12    1    6    6    0    0 -0.40036749671E+02  0.47116211183E+02 -0.38074695459E+01  0.61946553616E+02  0.00000000000E+00 0.  1.
</event>
<event>
12    1  0.9966151E-001  0.1967844E+03  0.7818608E-02  0.1152548E+00
         21   -1    0    0  503  502  0.00000000000E+00  0.00000000000E+00  0.55365839779E+03  0.55365839779E+03  0.00000000000E+00 0. -1.
         21   -1    0    0  501  503 -0.00000000000E+00 -0.00000000000E+00 -0.17261111132E+03  0.17261111132E+03  0.00000000000E+00 0. -1.
          6    2    1    2  501    0 -0.93273929933E+02 -0.42311085121E+01  0.47067509054E+03  0.51003524216E+03  0.17286694045E+03 0.  0.
         24    2    3    3    0    0 -0.59428044246E+02 -0.58369172624E+02  0.39174346205E+03  0.40840470570E+03  0.79955055028E+02 0.  0.
         -6    2    1    2    0  502  0.93273929933E+02  0.42311085121E+01 -0.89627804069E+02  0.21623426696E+03  0.17322293919E+03 0.  0.
        -24    2    5    5    0    0  0.98228686487E+02  0.20171062794E+02 -0.41265785187E+01  0.12899218236E+03  0.81032140761E+02 0.  0.
          5    1    3    3  501    0 -0.33845885687E+02  0.54138064112E+02  0.78931628495E+02  0.10163053646E+03  0.47000000000E+01 0. -1.
        -11    1    4    4    0    0 -0.44109815910E+02 -0.27760357503E+02  0.35249835307E+03  0.35633046772E+03  0.00000000000E+00 0.  1.
         12    1    4    4    0    0 -0.15318228336E+02 -0.30608815121E+02  0.39245108976E+02  0.52074237978E+02  0.00000000000E+00 0. -1.
         -5    1    5    5    0  502 -0.49547565540E+01 -0.15939954282E+02 -0.85501225550E+02  0.87242084601E+02  0.47000000000E+01 0.  1.
         13    1    6    6    0    0  0.16841666868E+02  0.29465468337E+01 -0.36040962060E+02  0.39890786246E+02  0.00000000000E+00 0. -1.
        -14    1    6    6    0    0  0.81387019619E+02  0.17224515961E+02  0.31914383541E+02  0.89101396113E+02  0.00000000000E+00 0.  1.
</event>
<event>
12    1  0.9966151E-001  0.1858358E+03  0.7818608E-02  0.1162537E+00
         21   -1    0    0  501  502  0.00000000000E+00  0.00000000000E+00  0.85058914003E+02  0.85058914003E+02  0.00000000000E+00 0. -1.
         21   -1    0    0  502  503 -0.00000000000E+00 -0.00000000000E+00 -0.40675108865E+03  0.40675108865E+03  0.00000000000E+00 0. -1.
         -6    2    1    2    0  503 -0.29372636930E+02 -0.61434592634E+02 -0.13844592324E+03  0.23082318082E+03  0.17168315634E+03 0.  0.
        -24    2    3    3    0    0 -0.68052342903E+02 -0.29442230891E+02 -0.34506880217E+02  0.11530242282E+03  0.81277042222E+02 0.  0.
          6    2    1    2  501    0  0.29372636930E+02  0.61434592634E+02 -0.18324625141E+03  0.26098682184E+03  0.17291029912E+03 0.  0.
         24    2    5    5    0    0 -0.20065485717E+02 -0.71717522566E+01 -0.14744665894E+03  0.16903760025E+03  0.79869489269E+02 0.  0.
          5    1    5    5  501    0  0.49438122647E+02  0.68606344891E+02 -0.35799592472E+02  0.91949221591E+02  0.47000000000E+01 0. -1.
        -13    1    6    6    0    0  0.10902283679E+01  0.34490184886E+02 -0.78496637499E+02  0.85746624132E+02  0.00000000000E+00 0.  1.
         14    1    6    6    0    0 -0.21155714085E+02 -0.41661937143E+02 -0.68950021443E+02  0.83290976114E+02  0.00000000000E+00 0. -1.
         -5    1    3    3    0  503  0.38679705973E+02 -0.31992361743E+02 -0.10393904302E+03  0.11552075800E+03  0.47000000000E+01 0.  1.
         13    1    4    4    0    0  0.56459504040E+01  0.56851828349E+01 -0.32671944229E+02  0.33640065391E+02  0.00000000000E+00 0. -1.
        -14    1    4    4    0    0 -0.73698293307E+02 -0.35127413726E+02 -0.18349359888E+01  0.81662357433E+02  0.00000000000E+00 0.  1.
</event>
<event>
12    1  0.9966151E-001  0.2280146E+03  0.7818608E-02  0.1128795E+00
         21   -1    0    0  503  502  0.00000000000E+00  0.00000000000E+00  0.27738598520E+03  0.27738598520E+03  0.00000000000E+00 0. -1.
         21   -1    0    0  501  503 -0.00000000000E+00 -0.00000000000E+00 -0.39762572134E+03  0.39762572134E+03  0.00000000000E+00 0. -1.
          6    2    1    2  501    0 -0.14013576314E+03  0.20029548106E+02  0.18750658368E+03  0.29199936091E+03  0.17339461624E+03 0.  0.
         24    2    3    3    0    0 -0.12112086765E+03  0.53161309164E+02  0.72121734595E+02  0.17036452528E+03  0.79537019680E+02 0.  0.
         -6    2    1    2    0  502  0.14013576314E+03 -0.20029548106E+02 -0.30774631982E+03  0.38301234563E+03  0.17874967032E+03 0.  0.
        -24    2    5    5    0    0  0.17150921629E+03 -0.21938198545E+02 -0.28973384576E+03  0.34648186889E+03  0.78786345683E+02 0.  0.
          5    1    3    3  501    0 -0.19014895489E+02 -0.33131761058E+02  0.11538484909E+03  0.12163483563E+03  0.47000000000E+01 0. -1.
        -11    1    4    4    0    0 -0.31364892057E+02 -0.56602565377E+01  0.52285123064E+02  0.61233398171E+02  0.00000000000E+00 0.  1.
         12    1    4    4    0    0 -0.89755975592E+02  0.58821565702E+02  0.19836611531E+02  0.10913112711E+03  0.00000000000E+00 0. -1.
         -5    1    5    5    0  502 -0.31373453152E+02  0.19086504382E+01 -0.18012474057E+02  0.36530476740E+02  0.47000000000E+01 0.  1.
         11    1    6    6    0    0  0.41006569757E+02 -0.24136633204E+02 -0.31288334457E+02  0.56948008733E+02  0.00000000000E+00 0. -1.
        -12    1    6    6    0    0  0.13050264653E+03  0.21984346589E+01 -0.25844551130E+03  0.28953386016E+03  0.00000000000E+00 0.  1.
</event>
<event>
12    1  0.9966151E-001  0.2284339E+03  0.7818608E-02  0.1128036E+00
         21   -1    0    0  501  502  0.00000000000E+00  0.00000000000E+00  0.64329648253E+03  0.64329648253E+03  0.00000000000E+00 0. -1.
         21   -1    0    0  502  503 -0.00000000000E+00 -0.00000000000E+00 -0.99195670522E+02  0.99195670522E+02  0.00000000000E+00 0. -1.
         -6    2    1    2    0  503  0.11641048746E+03 -0.92184596971E+02  0.43225139986E+03  0.48814529326E+03  0.17145014769E+03 0.  0.
        -24    2    3    3    0    0  0.48412781508E+02  0.19119916283E+02  0.20161062039E+03  0.22313653522E+03  0.80210363933E+02 0.  0.
          6    2    1    2  501    0 -0.11641048746E+03  0.92184596971E+02  0.11184941215E+03  0.25434685979E+03  0.17358753578E+03 0.  0.
         24    2    5    5    0    0 -0.41547884934E+02  0.11883285980E+03  0.76343085446E+02  0.16718420492E+03  0.79213738499E+02 0.  0.
          5    1    5    5  501    0 -0.74862602527E+02 -0.26648262831E+02  0.35506326704E+02  0.87162654876E+02  0.47000000000E+01 0. -1.
        -13    1    6    6    0    0 -0.57958859923E+02  0.56967872765E+02  0.24688368325E+02  0.84935761029E+02  0.00000000000E+00 0.  1.
         14    1    6    6    0    0  0.16410974989E+02  0.61864987037E+02  0.51654717121E+02  0.82248443888E+02  0.00000000000E+00 0. -1.
         -5    1    3    3    0  503  0.67997705954E+02 -0.11130451325E+03  0.23064077947E+03  0.26500875805E+03  0.47000000000E+01 0.  1.
         11    1    4    4    0    0  0.29790444263E+01  0.37962112916E+02  0.13541890295E+03  0.14067080720E+03  0.00000000000E+00 0. -1.
        -12    1    4    4    0    0  0.45433737081E+02 -0.18842196633E+02  0.66191717436E+02  0.82465728010E+02  0.00000000000E+00 0.  1.
</event>
<event>
12    1  0.9966151E-001  0.1982788E+03  0.7818608E-02  0.1151227E+00
         21   -1    0    0  501  502  0.00000000000E+00  0.00000000000E+00  0.36856374724E+02  0.36856374724E+02  0.00000000000E+00 0. -1.
         21   -1    0    0  502  503 -0.00000000000E+00 -0.00000000000E+00 -0.10674688693E+04  0.10674688693E+04  0.00000000000E+00 0. -1.
         -6    2    1    2    0  503  0.17138314083E+02 -0.96555295249E+02 -0.49455099430E+03  0.53276910989E+03  0.17217895238E+03 0.  0.
        -24    2    3    3    0    0  0.47135145518E+02 -0.73158249316E-01 -0.18062187812E+03  0.20294765419E+03  0.79635169307E+02 0.  0.
          6    2    1    2  501    0 -0.17138314083E+02  0.96555295249E+02 -0.53606150024E+03  0.57155613409E+03  0.17233059952E+03 0.  0.
         24    2    5    5    0    0  0.32010401085E+01  0.38853907218E+01 -0.11707444435E+03  0.14193578595E+03  0.80087445304E+02 0.  0.
          5    1    5    5  501    0 -0.20339354191E+02  0.92669904528E+02 -0.41898705589E+03  0.42962034815E+03  0.47000000000E+01 0. -1.
        -13    1    6    6    0    0 -0.56833296496E+01  0.45044106161E+01 -0.12779386453E+03  0.12799946001E+03  0.00000000000E+00 0.  1.
         14    1    6    6    0    0  0.88843697581E+01 -0.61901989431E+00  0.10719420184E+02  0.13936325940E+02  0.00000000000E+00 0. -1.
         -5    1    3    3    0  503 -0.29996831436E+02 -0.96482137000E+02 -0.31392911618E+03  0.32982145570E+03  0.47000000000E+01 0.  1.
         11    1    4    4    0    0  0.26908546202E+02  0.23204505462E+02 -0.22974527960E+02  0.42312502496E+02  0.00000000000E+00 0. -1.
        -12    1    4    4    0    0  0.20226599316E+02 -0.23277663711E+02 -0.15764735016E+03  0.16063515169E+03  0.00000000000E+00 0.  1.
</event>
<event>
12    1  0.9966151E-001  0.2978503E+03  0.7818608E-02  0.1087089E+00
         21   -1    0    0  501  502  0.00000000000E+00  0.00000000000E+00  0.17182247777E+03  0.17182247777E+03  0.00000000000E+00 0.  1.
         21   -1    0    0  502  503 -0.00000000000E+00 -0.00000000000E+00 -0.55684247954E+03  0.55684247954E+03  0.00000000000E+00 0.  1.
         -6    2    1    2    0  503 -0.24102817132E+03  0.32886751531E+02 -0.84121780980E+02  0.30950164121E+03  0.17186818809E+03 0.  0.
        -24    2    3    3    0    0 -0.24353351571E+03 -0.52618618061E+01 -0.56592760304E+02  0.26215683759E+03  0.78658798062E+02 0.  0.
          6    2    1    2  501    0  0.24102817132E+03 -0.32886751531E+02 -0.30089822079E+03  0.41916331611E+03  0.16118941807E+03 0.  0.
         24    2    5    5    0    0  0.15979840073E+03 -0.71655864640E+02 -0.15116452084E+03  0.24439606899E+03  0.78794887945E+02 0.  0.
          5    1    5    5  501    0  0.81229770588E+02  0.38769113109E+02 -0.14973369996E+03  0.17476724711E+03  0.47000000000E+01 0. -1.
        -13    1    6    6    0    0  0.41769058515E+02 -0.54082016179E+02 -0.80969178655E+02  0.10595058572E+03  0.00000000000E+00 0.  1.
         14    1    6    6    0    0  0.11802934222E+03 -0.17573848461E+02 -0.70195342181E+02  0.13844548327E+03  0.00000000000E+00 0. -1.
         -5    1    3    3    0  503  0.25053443891E+01  0.38148613337E+02 -0.27529020677E+02  0.47344803616E+02  0.47000000000E+01 0.  1.
         11    1    4    4    0    0 -0.21797715334E+03 -0.19506780853E+02 -0.26941062582E+02  0.22050028283E+03  0.00000000000E+00 0. -1.
        -12    1    4    4    0    0 -0.25556362371E+02  0.14244919047E+02 -0.29651697722E+02  0.41656554755E+02  0.00000000000E+00 0.  1.
</event>
<event>
12    1  0.9966151E-001  0.1743721E+03  0.7818608E-02  0.1173711E+00
         21   -1    0    0  503  502  0.00000000000E+00  0.00000000000E+00  0.35603016317E+03  0.35603016317E+03  0.00000000000E+00 0. -1.
         21   -1    0    0  501  503 -0.00000000000E+00 -0.00000000000E+00 -0.86740084638E+02  0.86740084638E+02  0.00000000000E+00 0. -1.
          6    2    1    2  501    0 -0.39155788438E+01  0.12017427284E+02  0.10147259097E+03  0.20174819254E+03  0.17391347319E+03 0.  0.
         24    2    3    3    0    0  0.56912808146E+02  0.15865585376E+02  0.98170562818E+02  0.14052814374E+03  0.81362861612E+02 0.  0.
         -6    2    1    2    0  502  0.39155788438E+01 -0.12017427284E+02  0.16781748756E+03  0.24102205527E+03  0.17253745008E+03 0.  0.
        -24    2    5    5    0    0 -0.20879040540E+01 -0.69051293314E+02  0.64247781078E+02  0.12254134890E+03  0.78205910037E+02 0.  0.
          5    1    3    3  501    0 -0.60828386990E+02 -0.38481580917E+01  0.33020281523E+01  0.61220048794E+02  0.47000000000E+01 0. -1.
        -11    1    4    4    0    0  0.24374776798E+02 -0.11825735726E+02 -0.61636864651E+01  0.27784326522E+02  0.00000000000E+00 0.  1.
         12    1    4    4    0    0  0.32538031348E+02  0.27691321101E+02  0.10433424928E+03  0.11274381722E+03  0.00000000000E+00 0. -1.
         -5    1    5    5    0  502  0.60034828977E+01  0.57033866030E+02  0.10356970648E+03  0.11848070637E+03  0.47000000000E+01 0.  1.
         13    1    6    6    0    0  0.26571511176E+02 -0.57602869809E+02  0.16260535060E+02  0.65486951501E+02  0.00000000000E+00 0. -1.
        -14    1    6    6    0    0 -0.28659415230E+02 -0.11448423505E+02  0.47987246018E+02  0.57054397398E+02  0.00000000000E+00 0.  1.
</event>
<event>
12    1  0.9966151E-001  0.2466084E+03  0.7818608E-02  0.1115847E+00
         21   -1    0    0  503  502  0.00000000000E+00  0.00000000000E+00  0.10667673110E+04  0.10667673110E+04  0.00000000000E+00 0. -1.
         21   -1    0    0  501  503 -0.00000000000E+00 -0.00000000000E+00 -0.81522245321E+02  0.81522245321E+02  0.00000000000E+00 0. -1.
          6    2    1    2  501    0  0.16543353801E+03 -0.52485914563E+02  0.17269679291E+03  0.29914269333E+03  0.17186954927E+03 0.  0.
         24    2    3    3    0    0  0.15812540106E+03 -0.90960474221E+02  0.16606131031E+03  0.25914494045E+03  0.79386970242E+02 0.  0.
         -6    2    1    2    0  502 -0.16543353801E+03  0.52485914563E+02  0.81254827273E+03  0.84914686296E+03  0.17519324366E+03 0.  0.
        -24    2    5    5    0    0 -0.18175230775E+03  0.53099339339E+02  0.57294642080E+03  0.60894316610E+03  0.81796926714E+02 0.  0.
          5    1    3    3  501    0  0.73081369411E+01  0.38474559658E+02  0.66354826012E+01  0.39997752884E+02  0.47000000000E+01 0. -1.
        -13    1    4    4    0    0  0.12285151795E+03 -0.55459021452E+02  0.72526377417E+02  0.15306297379E+03  0.00000000000E+00 0.  1.
         14    1    4    4    0    0  0.35273883112E+02 -0.35501452769E+02  0.93534932894E+02  0.10608196666E+03  0.00000000000E+00 0. -1.
         -5    1    5    5    0  502  0.16318769741E+02 -0.61342477604E+00  0.23960185193E+03  0.24020369686E+03  0.47000000000E+01 0.  1.
         11    1    6    6    0    0 -0.59641730325E+02  0.58660790016E+02  0.21508043653E+03  0.23077655526E+03  0.00000000000E+00 0. -1.
        -12    1    6    6    0    0 -0.12211057742E+03 -0.55614506772E+01  0.35786598427E+03  0.37816661084E+03  0.00000000000E+00 0.  1.
</event>
<event>
12    1  0.9966151E-001  0.1945600E+03  0.7818608E-02  0.1154893E+00
         21   -1    0    0  501  502  0.00000000000E+00  0.00000000000E+00  0.50522538284E+02  0.50522538284E+02  0.00000000000E+00 0. -1.
         21   -1    0    0  502  503 -0.00000000000E+00 -0.00000000000E+00 -0.96313242465E+03  0.96313242465E+03  0.00000000000E+00 0. -1.
         -6    2    1    2    0  503 -0.63264009212E+02 -0.66345798139E+02 -0.69780940050E+03  0.72383976651E+03  0.16912110561E+03 0.  0.
        -24    2    3    3    0    0 -0.46251685637E+02 -0.45172100039E+02 -0.20330893171E+03  0.22857160856E+03  0.82040974402E+02 0.  0.
          6    2    1    2  501    0  0.63264009212E+02  0.66345798139E+02 -0.21480048586E+03  0.28981519642E+03  0.17160856493E+03 0.  0.
         24    2    5    5    0    0  0.10144170986E+03  0.25527709730E+02 -0.11844804719E+03  0.17832736926E+03  0.82635502541E+02 0.  0.
          5    1    5    5  501    0 -0.38177700644E+02  0.40818088409E+02 -0.96352438670E+02  0.11148782716E+03  0.47000000000E+01 0. -1.
        -13    1    6    6    0    0  0.46662874782E+02  0.47087421874E+02 -0.31677386156E+02  0.73471803947E+02  0.00000000000E+00 0.  1.
         14    1    6    6    0    0  0.54778835074E+02 -0.21559712144E+02 -0.86770661038E+02  0.10485556531E+03  0.00000000000E+00 0. -1.
         -5    1    3    3    0  503 -0.17012323575E+02 -0.21173698101E+02 -0.49450046879E+03  0.49526815795E+03  0.47000000000E+01 0.  1.
         11    1    4    4    0    0  0.13382807418E+02 -0.36717955379E+02 -0.47403220067E+02  0.61435926414E+02  0.00000000000E+00 0. -1.
        -12    1    4    4    0    0 -0.59634493055E+02 -0.84541446598E+01 -0.15590571165E+03  0.16713568215E+03  0.00000000000E+00 0.  1.
</event>
<event>
12    1  0.9966151E-001  0.3427441E+03  0.7818608E-02  0.1065712E+00
         21   -1    0    0  501  502  0.00000000000E+00  0.00000000000E+00  0.22627799632E+03  0.22627799632E+03  0.00000000000E+00 0. -1.
         21   -1    0    0  502  503 -0.00000000000E+00 -0.00000000000E+00 -0.53187086138E+03  0.53187086138E+03  0.00000000000E+00 0.  1.
         -6    2    1    2    0  503 -0.25529986642E+03 -0.14831232880E+03 -0.21411569194E+03  0.40412750462E+03  0.17406591218E+03 0.  0.
        -24    2    3    3    0    0 -0.18736274028E+03 -0.17152237527E+03 -0.19841358266E+03  0.33048780335E+03  0.73003539061E+02 0.  0.
          6    2    1    2  501    0  0.25529986642E+03  0.14831232880E+03 -0.91477173119E+02  0.35402135308E+03  0.17259338506E+03 0.  0.
         24    2    5    5    0    0  0.17642536019E+03  0.15530398965E+03 -0.21873189299E+02  0.24848995671E+03  0.77611759796E+02 0.  0.
          5    1    5    5  501    0  0.78874506236E+02 -0.69916608570E+01 -0.69603983820E+02  0.10553139637E+03  0.47000000000E+01 0. -1.
        -13    1    6    6    0    0  0.11558909741E+03  0.10966678467E+03 -0.50626548503E+02  0.16718460011E+03  0.00000000000E+00 0.  1.
         14    1    6    6    0    0  0.60836262773E+02  0.45637204978E+02  0.28753359205E+02  0.81305356601E+02  0.00000000000E+00 0. -1.
         -5    1    3    3    0  503 -0.67937126147E+02  0.23210046478E+02 -0.15702109280E+02  0.73639701266E+02  0.47000000000E+01 0.  1.
         13    1    4    4    0    0  0.85554326118E+00 -0.16854042022E+02 -0.29687035679E+02  0.34148364151E+02  0.00000000000E+00 0. -1.
        -14    1    4    4    0    0 -0.18821828354E+03 -0.15466833325E+03 -0.16872654698E+03  0.29633943920E+03  0.00000000000E+00 0.  1.
</event>
<event>
12    1  0.9966151E-001  0.7098668E+03  0.7818608E-02  0.9700661E-01
         21   -1    0    0  503  502  0.00000000000E+00  0.00000000000E+00  0.12851230634E+04  0.12851230634E+04  0.00000000000E+00 0. -1.
         21   -1    0    0  501  503 -0.00000000000E+00 -0.00000000000E+00 -0.64977176503E+03  0.64977176503E+03  0.00000000000E+00 0.  1.
          6    2    1    2  501    0  0.15917841343E+03  0.66990189227E+03 -0.29183162005E+03  0.76717095821E+03  0.17111187008E+03 0.  0.
         24    2    3    3    0    0  0.12472770227E+03  0.60820768217E+03 -0.21216082293E+03  0.66057568169E+03  0.76644843932E+02 0.  0.
         -6    2    1    2    0  502 -0.15917841343E+03 -0.66990189227E+03  0.92718291838E+03  0.11677238702E+04  0.17263997309E+03 0.  0.
        -24    2    5    5    0    0 -0.86657564961E+02 -0.32201058324E+03  0.56022028485E+03  0.65687036794E+03  0.80197028803E+02 0.  0.
          5    1    3    3  501    0  0.34450711158E+02  0.61694210105E+02 -0.79670797127E+02  0.10659527651E+03  0.47000000000E+01 0. -1.
        -11    1    4    4    0    0  0.25562578823E+00  0.20880430106E-01 -0.66423526337E+01  0.66473023887E+01  0.00000000000E+00 0.  1.
         12    1    4    4    0    0  0.12447207648E+03  0.60818680174E+03 -0.20551847029E+03  0.65392837931E+03  0.00000000000E+00 0. -1.
         -5    1    5    5    0  502 -0.72520848464E+02 -0.34789130903E+03  0.36696263353E+03  0.51085350226E+03  0.47000000000E+01 0.  1.
         11    1    6    6    0    0 -0.15225746180E+02 -0.17034587549E+03  0.23096092839E+03  0.28738909354E+03  0.00000000000E+00 0. -1.
        -12    1    6    6    0    0 -0.71431818781E+02 -0.15166470775E+03  0.32925935646E+03  0.36948127439E+03  0.00000000000E+00 0.  1.
</event>
<event>
12    1  0.9966151E-001  0.2858337E+03  0.7818608E-02  0.1092684E+00
         21   -1    0    0  501  502  0.00000000000E+00  0.00000000000E+00  0.11577207025E+04  0.11577207025E+04  0.00000000000E+00 0.  1.
         21   -1    0    0  502  503 -0.00000000000E+00 -0.00000000000E+00 -0.94469701721E+02  0.94469701721E+02  0.00000000000E+00 0.  1.
         -6    2    1    2    0  503 -0.19878104144E+03  0.11179525953E+03  0.21429995838E+03  0.35641209765E+03  0.17056678664E+03 0.  0.
        -24    2    3    3    0    0 -0.14883692809E+03  0.50560462687E+02  0.21402887410E+03  0.27725227015E+03  0.79697370129E+02 0.  0.
          6    2    1    2  501    0  0.19878104144E+03 -0.11179525953E+03  0.84895104243E+03  0.89577830659E+03  0.17230443880E+03 0.  0.
         24    2    5    5    0    0  0.15091085068E+03 -0.18929938233E+02  0.63456810879E+03  0.65724601255E+03  0.78506107480E+02 0.  0.
          5    1    5    5  501    0  0.47870190761E+02 -0.92865321297E+02  0.21438293364E+03  0.23853229404E+03  0.47000000000E+01 0. -1.
        -13    1    6    6    0    0  0.28512152129E+02  0.15378465027E+02  0.54397107840E+02  0.63312600223E+02  0.00000000000E+00 0.  1.
         14    1    6    6    0    0  0.12239869855E+03 -0.34308403260E+02  0.58017100095E+03  0.59393341233E+03  0.00000000000E+00 0. -1.
         -5    1    3    3    0  503 -0.49944113356E+02  0.61234796842E+02  0.27108427202E+00  0.79159827501E+02  0.47000000000E+01 0.  1.
         11    1    4    4    0    0 -0.75140072284E+02  0.30904891337E+02  0.47565560866E+02  0.94146828688E+02  0.00000000000E+00 0. -1.
        -12    1    4    4    0    0 -0.73696855803E+02  0.19655571350E+02  0.16646331324E+03  0.18310544147E+03  0.00000000000E+00 0.  1.
</event>
<event>
12    1  0.9966151E-001  0.2240411E+03  0.7818608E-02  0.1131021E+00
         21   -1    0    0  501  502  0.00000000000E+00  0.00000000000E+00  0.79803492295E+02  0.79803492295E+02  0.00000000000E+00 0.  1.
         21   -1    0    0  502  503 -0.00000000000E+00 -0.00000000000E+00 -0.63035204743E+03  0.63035204743E+03  0.00000000000E+00 0.  1.
         -6    2    1    2    0  503  0.12798768963E+03  0.63563844759E+02 -0.25056201100E+03  0.33611865201E+03  0.17254916925E+03 0.  0.
        -24    2    3    3    0    0  0.13248411298E+03  0.54530434142E+01 -0.12991182219E+03  0.20204538428E+03  0.79771422773E+02 0.  0.
          6    2    1    2  501    0 -0.12798768963E+03 -0.63563844759E+02 -0.29998654413E+03  0.37403688772E+03  0.17172785347E+03 0.  0.
         24    2    5    5    0    0 -0.13593290867E+03 -0.93710641885E+02 -0.21174500103E+03  0.28033194756E+03  0.80564355007E+02 0.  0.
          5    1    5    5  501    0  0.79452190381E+01  0.30146797126E+02 -0.88241543100E+02  0.93704940164E+02  0.47000000000E+01 0. -1.
        -11    1    6    6    0    0 -0.10534309403E+02 -0.42703997499E+02 -0.28141547306E+02  0.52216374461E+02  0.00000000000E+00 0.  1.
         12    1    6    6    0    0 -0.12539859927E+03 -0.51006644385E+02 -0.18360345373E+03  0.22811557310E+03  0.00000000000E+00 0. -1.
         -5    1    3    3    0  503 -0.44964233516E+01  0.58110801345E+02 -0.12065018882E+03  0.13407326772E+03  0.47000000000E+01 0.  1.
         13    1    4    4    0    0  0.11111014561E+03 -0.26124357487E+02 -0.11201654533E+03  0.15992389734E+03  0.00000000000E+00 0. -1.
        -14    1    4    4    0    0  0.21373967373E+02  0.31577400901E+02 -0.17895276859E+02  0.42121486949E+02  0.00000000000E+00 0.  1.
</event>
<event>
12    1  0.9966151E-001  0.2288158E+03  0.7818608E-02  0.1127952E+00
         21   -1    0    0  501  502  0.00000000000E+00  0.00000000000E+00  0.11904230847E+04  0.11904230847E+04  0.00000000000E+00 0.  1.
         21   -1    0    0  502  503 -0.00000000000E+00 -0.00000000000E+00 -0.45662075927E+02  0.45662075927E+02  0.00000000000E+00 0.  1.
         -6    2    1    2    0  503 -0.67284415548E+02 -0.13223048224E+03  0.43376929785E+03  0.48918096052E+03  0.17067546798E+03 0.  0.
        -24    2    3    3    0    0  0.30126117088E+02 -0.59469371652E+02  0.18513978178E+03  0.21237467927E+03  0.79887899581E+02 0.  0.
          6    2    1    2  501    0  0.67284415548E+02  0.13223048224E+03  0.71099171089E+03  0.74690420007E+03  0.17419695210E+03 0.  0.
         24    2    5    5    0    0  0.37820605453E+02  0.97769968498E+02  0.20910343774E+03  0.24295026186E+03  0.65659859331E+02 0.  0.
          5    1    5    5  501    0  0.29463810095E+02  0.34460513745E+02  0.50188827314E+03  0.50395393821E+03  0.47000000000E+01 0. -1.
        -13    1    6    6    0    0 -0.54010670894E+01  0.71378533041E+02  0.10363314196E+03  0.12595195361E+03  0.00000000000E+00 0.  1.
         14    1    6    6    0    0  0.43221672542E+02  0.26391435457E+02  0.10547029578E+03  0.11699830826E+03  0.00000000000E+00 0. -1.
         -5    1    3    3    0  503 -0.97410532636E+02 -0.72761110590E+02  0.24862951607E+03  0.27680628126E+03  0.47000000000E+01 0.  1.
         13    1    4    4    0    0  0.30792982795E+02 -0.12245953098E+02  0.16064572801E+02  0.36827186370E+02  0.00000000000E+00 0. -1.
        -14    1    4    4    0    0 -0.66686570653E+00 -0.47223418554E+02  0.16907520898E+03  0.17554749290E+03  0.00000000000E+00 0.  1.
</event>
<event>
12    1  0.9966151E-001  0.2209661E+03  0.7818608E-02  0.1133311E+00
         21   -1    0    0  501  502  0.00000000000E+00  0.00000000000E+00  0.34852869556E+03  0.34852869556E+03  0.00000000000E+00 0.  1.
         21   -1    0    0  502  503 -0.00000000000E+00 -0.00000000000E+00 -0.14010903675E+03  0.14010903675E+03  0.00000000000E+00 0.  1.
         -6    2    1    2    0  503  0.15260790551E+02  0.13980985818E+03  0.89554104625E+02  0.23842387414E+03  0.17042980353E+03 0.  0.
        -24    2    3    3    0    0  0.21863220069E+02  0.17654708355E+02  0.80089298542E+02  0.11563484670E+03  0.78533005243E+02 0.  0.
          6    2    1    2  501    0 -0.15260790551E+02 -0.13980985818E+03  0.11886555418E+03  0.25021385817E+03  0.16940562764E+03 0.  0.
         24    2    5    5    0    0 -0.79671372155E+02 -0.94805268714E+02  0.65825852219E+02  0.15529580888E+03  0.66694669343E+02 0.  0.
          5    1    5    5  501    0  0.64410581604E+02 -0.45004589466E+02  0.53039701963E+02  0.94918049284E+02  0.47000000000E+01 0. -1.
        -11    1    6    6    0    0 -0.36602848003E+02 -0.35159565400E+02 -0.76401853784E+01  0.51325782543E+02  0.00000000000E+00 0.  1.
         12    1    6    6    0    0 -0.43068524152E+02 -0.59645703313E+02  0.73466037598E+02  0.10397002634E+03  0.00000000000E+00 0. -1.
         -5    1    3    3    0  503 -0.66024295184E+01  0.12215514982E+03  0.94648060822E+01  0.12278902744E+03  0.47000000000E+01 0.  1.
         13    1    4    4    0    0  0.12132323069E+02 -0.16987117837E+02 -0.65028094875E+01  0.21864170844E+02  0.00000000000E+00 0. -1.
        -14    1    4    4    0    0  0.97308970001E+01  0.34641826192E+02  0.86592108030E+02  0.93770675861E+02  0.00000000000E+00 0.  1.
</event>
<event>
12    1  0.9966151E-001  0.3795790E+03  0.7818608E-02  0.1051192E+00
         21   -1    0    0  501  502  0.00000000000E+00  0.00000000000E+00  0.74206772186E+03  0.74206772186E+03  0.00000000000E+00 0. -1.
         21   -1    0    0  502  503 -0.00000000000E+00 -0.00000000000E+00 -0.19787529505E+03  0.19787529505E+03  0.00000000000E+00 0. -1.
         -6    2    1    2    0  503  0.17702803799E+02 -0.33809482518E+03  0.34159870988E+03  0.51065630634E+03  0.17163532428E+03 0.  0.
        -24    2    3    3    0    0  0.53735820509E+02 -0.10909926616E+03  0.15862650056E+03  0.21529506358E+03  0.79996308907E+02 0.  0.
          6    2    1    2  501    0 -0.17702803799E+02  0.33809482518E+03  0.20259371693E+03  0.42928671057E+03  0.16917850236E+03 0.  0.
         24    2    5    5    0    0 -0.32046654589E+02  0.86143132903E+02  0.29187989737E+02  0.12305634382E+03  0.76441465147E+02 0.  0.
          5    1    5    5  501    0  0.14343850790E+02  0.25195169228E+03  0.17340572719E+03  0.30623036675E+03  0.47000000000E+01 0. -1.
        -13    1    6    6    0    0  0.10958217149E+02  0.25944737498E+02  0.39339173277E+02  0.48381633716E+02  0.00000000000E+00 0.  1.
         14    1    6    6    0    0 -0.43004871738E+02  0.60198395406E+02 -0.10151183540E+02  0.74674710109E+02  0.00000000000E+00 0. -1.
         -5    1    3    3    0  503 -0.36033016710E+02 -0.22899555902E+03  0.18297220932E+03  0.29536124277E+03  0.47000000000E+01 0.  1.
         13    1    4    4    0    0  0.44837990382E+02 -0.12181419301E+03  0.14533082238E+03  0.19485941325E+03  0.00000000000E+00 0. -1.
        -14    1    4    4    0    0  0.88978301270E+01  0.12714926853E+02  0.13295678185E+02  0.20435650326E+02  0.00000000000E+00 0.  1.
</event>
<event>
12    1  0.9966151E-001  0.2363377E+03  0.7818608E-02  0.1122265E+00
         21   -1    0    0  501  502  0.00000000000E+00  0.00000000000E+00  0.68999747444E+02  0.68999747444E+02  0.00000000000E+00 0. -1.
         21   -1    0    0  502  503 -0.00000000000E+00 -0.00000000000E+00 -0.89860180811E+03  0.89860180811E+03  0.00000000000E+00 0. -1.
         -6    2    1    2    0  503 -0.16064309012E+03 -0.90364301842E+01 -0.26227676006E+03  0.35301753614E+03  0.17304456791E+03 0.  0.
        -24    2    3    3    0    0 -0.14370804446E+03 -0.53863189230E+02 -0.24142705656E+03  0.30054817142E+03  0.92135413976E+02 0.  0.
          6    2    1    2  501    0  0.16064309012E+03  0.90364301842E+01 -0.56732530060E+03  0.61458401941E+03  0.17311170017E+03 0.  0.
         24    2    5    5    0    0  0.16346680561E+03 -0.14907405155E+02 -0.34226497961E+03  0.38818720251E+03  0.81242603692E+02 0.  0.
          5    1    5    5  501    0 -0.28237154935E+01  0.23943835339E+02 -0.22506032099E+03  0.22639681690E+03  0.47000000000E+01 0. -1.
        -13    1    6    6    0    0  0.15514361769E+03 -0.20247871359E+02 -0.34421723278E+03  0.37810715643E+03  0.00000000000E+00 0.  1.
         14    1    6    6    0    0  0.83231879227E+01  0.53404662043E+01  0.19522531627E+01  0.10080046076E+02  0.00000000000E+00 0. -1.
         -5    1    3    3    0  503 -0.16935045663E+02  0.44826759046E+02 -0.20849703498E+02  0.52469364720E+02  0.47000000000E+01 0.  1.
         13    1    4    4    0    0 -0.76630541795E+01 -0.38372195047E+02 -0.33097298222E+02  0.51250160017E+02  0.00000000000E+00 0. -1.
        -14    1    4    4    0    0 -0.13604499028E+03 -0.15490994183E+02 -0.20832975834E+03  0.24929801140E+03  0.00000000000E+00 0.  1.
</event>
<event>
12    1  0.9966151E-001  0.2835500E+03  0.7818608E-02  0.1093855E+00
         21   -1    0    0  503  502  0.00000000000E+00  0.00000000000E+00  0.24319312109E+03  0.24319312109E+03  0.00000000000E+00 0.  1.
         21   -1    0    0  501  503 -0.00000000000E+00 -0.00000000000E+00 -0.37698439004E+03  0.37698439004E+03  0.00000000000E+00 0.  1.
          6    2    1    2  501    0 -0.21731408752E+03  0.58804792099E+02  0.42702055513E+02  0.28674736626E+03  0.17238668829E+03 0.  0.
         24    2    3    3    0    0 -0.23182843273E+03  0.47891552893E+02  0.11512396024E+02  0.25035162659E+03  0.80655927334E+02 0.  0.
         -6    2    1    2    0  502  0.21731408752E+03 -0.58804792099E+02 -0.17649332447E+03  0.33343014487E+03  0.17129609370E+03 0.  0.
        -24    2    5    5    0    0  0.93807525809E+02  0.31329291989E+02 -0.56337838542E+02  0.13891162467E+03  0.79631093068E+02 0.  0.
          5    1    3    3  501    0  0.14514345208E+02  0.10913239206E+02  0.31189659489E+02  0.36395739666E+02  0.47000000000E+01 0. -1.
        -11    1    4    4    0    0 -0.84337870408E+02  0.22241927792E+02 -0.34407819178E+02  0.93762880488E+02  0.00000000000E+00 0.  1.
         12    1    4    4    0    0 -0.14749056232E+03  0.25649625102E+02  0.45920215202E+02  0.15658874610E+03  0.00000000000E+00 0. -1.
         -5    1    5    5    0  502  0.12350656171E+03 -0.90134084088E+02 -0.12015548593E+03  0.19451852020E+03  0.47000000000E+01 0.  1.
         13    1    6    6    0    0  0.78847557639E+02 -0.12899340844E+02 -0.30273220456E+02  0.85438856597E+02  0.00000000000E+00 0. -1.
        -14    1    6    6    0    0  0.14959968170E+02  0.44228632833E+02 -0.26064618086E+02  0.53472768077E+02  0.00000000000E+00 0.  1.
</event>
<event>
12    1  0.9966151E-001  0.3653527E+03  0.7818608E-02  0.1056559E+00
         21   -1    0    0  503  502  0.00000000000E+00  0.00000000000E+00  0.86564394231E+03  0.86564394231E+03  0.00000000000E+00 0.  1.
         21   -1    0    0  501  503 -0.00000000000E+00 -0.00000000000E+00 -0.15973477847E+03  0.15973477847E+03  0.00000000000E+00 0.  1.
          6    2    1    2  501    0  0.31649175655E+03 -0.57820795688E+02  0.45150293055E+03  0.58080764855E+03  0.17312524926E+03 0.  0.
         24    2    3    3    0    0  0.25876653367E+03 -0.66712573811E+02  0.43671867900E+03  0.52037645487E+03  0.93047104984E+02 0.  0.
         -6    2    1    2    0  502 -0.31649175655E+03  0.57820795688E+02  0.25440623328E+03  0.44457107223E+03  0.17149527793E+03 0.  0.
        -24    2    5    5    0    0 -0.26253169081E+03  0.52357924521E+02  0.26924475204E+03  0.38814587134E+03  0.80624065858E+02 0.  0.
          5    1    3    3  501    0  0.57725222884E+02  0.88917781224E+01  0.14784251557E+02  0.60431193677E+02  0.47000000000E+01 0. -1.
        -11    1    4    4    0    0  0.19636331187E+03 -0.13958546985E+02  0.34754444028E+03  0.39942524864E+03  0.00000000000E+00 0.  1.
         12    1    4    4    0    0  0.62403221796E+02 -0.52754026826E+02  0.89174238715E+02  0.12095120622E+03  0.00000000000E+00 0. -1.
         -5    1    5    5    0  502 -0.53960065745E+02  0.54628711672E+01 -0.14838518763E+02  0.56425200891E+02  0.47000000000E+01 0.  1.
         13    1    6    6    0    0 -0.16093069131E+03 -0.13947198098E+01  0.18750979310E+03  0.24710434063E+03  0.00000000000E+00 0. -1.
        -14    1    6    6    0    0 -0.10160099949E+03  0.53752644331E+02  0.81734958940E+02  0.14104153070E+03  0.00000000000E+00 0.  1.
</event>
<event>
12    1  0.9966151E-001  0.4348375E+03  0.7818608E-02  0.1032357E+00
         21   -1    0    0  501  502  0.00000000000E+00  0.00000000000E+00  0.36825692374E+03  0.36825692374E+03  0.00000000000E+00 0. -1.
         21   -1    0    0  502  503 -0.00000000000E+00 -0.00000000000E+00 -0.52084517469E+03  0.52084517469E+03  0.00000000000E+00 0.  1.
         -6    2    1    2    0  503 -0.33789329186E+03  0.21210890661E+03 -0.22543124247E+02  0.43523498464E+03  0.17250865039E+03 0.  0.
        -24    2    3    3    0    0 -0.16259832339E+03  0.34392198634E+02 -0.23034531021E+02  0.18556743420E+03  0.79269445050E+02 0.  0.
          6    2    1    2  501    0  0.33789329186E+03 -0.21210890661E+03 -0.13004512670E+03  0.45386711379E+03  0.17297848725E+03 0.  0.
         24    2    5    5    0    0  0.19759572323E+03 -0.60474115079E+02 -0.25420021972E+02  0.22225316708E+03  0.77775988133E+02 0.  0.
          5    1    5    5  501    0  0.14029756863E+03 -0.15163479154E+03 -0.10462510473E+03  0.23161394670E+03  0.47000000000E+01 0. -1.
        -11    1    6    6    0    0  0.19607914667E+03 -0.67023847942E+02 -0.12386326678E+02  0.20758769000E+03  0.00000000000E+00 0.  1.
         12    1    6    6    0    0  0.15165765551E+01  0.65497328630E+01 -0.13033695293E+02  0.14665477081E+02  0.00000000000E+00 0. -1.
         -5    1    3    3    0  503 -0.17529496847E+03  0.17771670798E+03  0.49140677403E+00  0.24966755045E+03  0.47000000000E+01 0.  1.
         13    1    4    4    0    0 -0.16569336032E+03  0.34735565675E+02 -0.72198001872E+01  0.16944903273E+03  0.00000000000E+00 0. -1.
        -14    1    4    4    0    0  0.30950369320E+01 -0.34336704093E+00 -0.15814730834E+02  0.16118401468E+02  0.00000000000E+00 0.  1.
</event>
<event>
12    1  0.9966151E-001  0.1801428E+03  0.7818608E-02  0.1167689E+00
         21   -1    0    0  501  502  0.00000000000E+00  0.00000000000E+00  0.15479589520E+03  0.15479589520E+03  0.00000000000E+00 0.  1.
         21   -1    0    0  502  503 -0.00000000000E+00 -0.00000000000E+00 -0.23548806133E+03  0.23548806133E+03  0.00000000000E+00 0.  1.
         -6    2    1    2    0  503 -0.21054459991E+02 -0.47525069104E+02  0.24439613457E+02  0.18179312603E+03  0.17248050175E+03 0.  0.
        -24    2    3    3    0    0  0.50256813644E+02 -0.47380854204E+02  0.10834140809E+01  0.10660721914E+03  0.81198723656E+02 0.  0.
          6    2    1    2  501    0  0.21054459991E+02  0.47525069104E+02 -0.10513177959E+03  0.20849083050E+03  0.17237694986E+03 0.  0.
         24    2    5    5    0    0 -0.44212439809E+02  0.25917212071E+02 -0.12090499800E+02  0.92708977691E+02  0.76304211179E+02 0.  0.
          5    1    5    5  501    0  0.65266899800E+02  0.21607857032E+02 -0.93041279788E+02  0.11578185281E+03  0.47000000000E+01 0. -1.
        -11    1    6    6    0    0  0.74779214947E+01 -0.19689428687E+02  0.50869845612E+01  0.21667263875E+02  0.00000000000E+00 0.  1.
         12    1    6    6    0    0 -0.51690361304E+02  0.45606640758E+02 -0.17177484361E+02  0.71041713816E+02  0.00000000000E+00 0. -1.
         -5    1    3    3    0  503 -0.71311273635E+02 -0.14421490010E+00  0.23356199376E+02  0.75185906888E+02  0.47000000000E+01 0.  1.
         13    1    4    4    0    0  0.22163343763E+02 -0.64149177251E+02 -0.15953666906E+02  0.69719798024E+02  0.00000000000E+00 0. -1.
        -14    1    4    4    0    0  0.28093469881E+02  0.16768323048E+02  0.17037080987E+02  0.36887421113E+02  0.00000000000E+00 0.  1.
</event>
<event>
12    1  0.9966151E-001  0.2403558E+03  0.7818608E-02  0.1119617E+00
         21   -1    0    0  503  502  0.00000000000E+00  0.00000000000E+00  0.32107147875E+03  0.32107147875E+03  0.00000000000E+00 0.  1.
         21   -1    0    0  501  503 -0.00000000000E+00 -0.00000000000E+00 -0.17990957491E+03  0.17990957491E+03  0.00000000000E+00 0.  1.
          6    2    1    2  501    0  0.16410547264E+03 -0.38544812299E+02  0.61254795763E+02  0.24803838601E+03  0.17133178988E+03 0.  0.
         24    2    3    3    0    0  0.12682868733E+03 -0.84355467158E+02  0.14648092676E+02  0.17265636166E+03  0.79964316008E+02 0.  0.
         -6    2    1    2    0  502 -0.16410547264E+03  0.38544812299E+02  0.79907108086E+02  0.25294266765E+03  0.17081726637E+03 0.  0.
        -24    2    5    5    0    0 -0.73857443441E+02 -0.11635283122E+01 -0.22893341595E+02  0.11042431254E+03  0.78823524160E+02 0.  0.
          5    1    3    3  501    0  0.37276785315E+02  0.45810654859E+02  0.46606703087E+02  0.75382024347E+02  0.47000000000E+01 0. -1.
        -11    1    4    4    0    0 -0.61586670869E+01  0.50271755702E+01  0.94349017850E+01  0.12337708304E+02  0.00000000000E+00 0.  1.
         12    1    4    4    0    0  0.13298735441E+03 -0.89382642728E+02  0.52131908908E+01  0.16031865336E+03  0.00000000000E+00 0. -1.
         -5    1    5    5    0  502 -0.90248029201E+02  0.39708340612E+02  0.10280044968E+03  0.14251835511E+03  0.47000000000E+01 0.  1.
         11    1    6    6    0    0 -0.72061806762E+02  0.25979476402E+02 -0.28852609960E+01  0.76656127733E+02  0.00000000000E+00 0. -1.
        -12    1    6    6    0    0 -0.17956366786E+01 -0.27143004714E+02 -0.20008080599E+02  0.33768184808E+02  0.00000000000E+00 0.  1.
</event>
<event>
12    1  0.9966151E-001  0.2902398E+03  0.7818608E-02  0.1090286E+00
         21   -1    0    0  503  502  0.00000000000E+00  0.00000000000E+00  0.49955779118E+03  0.49955779118E+03  0.00000000000E+00 0.  1.
         21   -1    0    0  501  503 -0.00000000000E+00 -0.00000000000E+00 -0.28737713646E+03  0.28737713646E+03  0.00000000000E+00 0.  1.
          6    2    1    2  501    0 -0.23551952076E+02  0.23197738064E+03 -0.14708123416E+03  0.32537982301E+03  0.17283211565E+03 0.  0.
         24    2    3    3    0    0 -0.55995011280E+02  0.21167088508E+03 -0.78844472046E+02  0.24700092561E+03  0.82782858157E+02 0.  0.
         -6    2    1    2    0  502  0.23551952076E+02 -0.23197738064E+03  0.35926188887E+03  0.46155510463E+03  0.17203432867E+03 0.  0.
        -24    2    5    5    0    0  0.47669512123E+02 -0.24351336343E+03  0.34089023087E+03  0.42877792631E+03  0.77930866987E+02 0.  0.
          5    1    3    3  501    0  0.32443059203E+02  0.20306495569E+02 -0.68236762113E+02  0.78378897392E+02  0.47000000000E+01 0. -1.
        -11    1    4    4    0    0  0.16292699111E+02  0.33865728050E+02  0.43038830097E+01  0.37826749657E+02  0.00000000000E+00 0.  1.
         12    1    4    4    0    0 -0.72287710391E+02  0.17780515703E+03 -0.83148355056E+02  0.20917417596E+03  0.00000000000E+00 0. -1.
         -5    1    5    5    0  502 -0.24117560047E+02  0.11535982785E+02  0.18371657998E+02  0.32777178326E+02  0.47000000000E+01 0.  1.
         13    1    6    6    0    0 -0.90768745880E+01 -0.10978516056E+03  0.18786029774E+03  0.21777663465E+03  0.00000000000E+00 0. -1.
        -14    1    6    6    0    0  0.56746386711E+02 -0.13372820287E+03  0.15302993313E+03  0.21100129166E+03  0.00000000000E+00 0.  1.
</event>
<event>
12    1  0.9966151E-001  0.2442925E+03  0.7818608E-02  0.1117326E+00
         21   -1    0    0  501  502  0.00000000000E+00  0.00000000000E+00  0.31353773932E+03  0.31353773932E+03  0.00000000000E+00 0. -1.
         21   -1    0    0  502  503 -0.00000000000E+00 -0.00000000000E+00 -0.19735971765E+03  0.19735971765E+03  0.00000000000E+00 0. -1.
         -6    2    1    2    0  503 -0.13996277484E+03 -0.10242250581E+03  0.11156957343E+03  0.26656153283E+03  0.16890036422E+03 0.  0.
        -24    2    3    3    0    0 -0.63885919002E+02 -0.11467761011E+03  0.30443213313E+02  0.15457290894E+03  0.75720737145E+02 0.  0.
          6    2    1    2  501    0  0.13996277484E+03  0.10242250581E+03  0.46084482419E+01  0.24433592414E+03  0.17204318642E+03 0.  0.
         24    2    5    5    0    0  0.15936055316E+03  0.11271883458E+03  0.26781161851E+02  0.21277633893E+03  0.80344372582E+02 0.  0.
          5    1    5    5  501    0 -0.19397778320E+02 -0.10296328775E+02 -0.22172713610E+02  0.31559585213E+02  0.47000000000E+01 0. -1.
        -11    1    6    6    0    0  0.53396217179E+02 -0.36749303724E+00  0.21932937576E+02  0.57726465428E+02  0.00000000000E+00 0.  1.
         12    1    6    6    0    0  0.10596433598E+03  0.11308632762E+03  0.48482242758E+01  0.15504987350E+03  0.00000000000E+00 0. -1.
         -5    1    3    3    0  503 -0.76076855835E+02  0.12255104301E+02  0.81126360114E+02  0.11198862389E+03  0.47000000000E+01 0.  1.
         13    1    4    4    0    0 -0.60160779723E+02 -0.50508817753E+02  0.42291181327E+02  0.89213250730E+02  0.00000000000E+00 0. -1.
        -14    1    4    4    0    0 -0.37251392788E+01 -0.64168792356E+02 -0.11847968014E+02  0.65359658208E+02  0.00000000000E+00 0.  1.
</event>
<event>
12    1  0.9966151E-001  0.3021164E+03  0.7818608E-02  0.1084217E+00
         21   -1    0    0  501  502  0.00000000000E+00  0.00000000000E+00  0.68398340811E+03  0.68398340811E+03  0.00000000000E+00 0.  1.
         21   -1    0    0  502  503 -0.00000000000E+00 -0.00000000000E+00 -0.14374395882E+03  0.14374395882E+03  0.00000000000E+00 0.  1.
         -6    2    1    2    0  503  0.24769370686E+03 -0.14706516646E+02  0.38155435012E+03  0.48668060681E+03  0.17235381312E+03 0.  0.
        -24    2    3    3    0    0  0.14914726338E+03  0.50776495931E+02  0.27710926316E+03  0.32878731167E+03  0.80550567201E+02 0.  0.
          6    2    1    2  501    0 -0.24769370686E+03  0.14706516646E+02  0.15868509916E+03  0.34104676013E+03  0.17194033223E+03 0.  0.
         24    2    5    5    0    0 -0.17387638747E+03  0.18428581045E+02  0.33285430963E+02  0.19541016723E+03  0.80651117936E+02 0.  0.
          5    1    5    5  501    0 -0.73817319387E+02 -0.37220643986E+01  0.12539966820E+03  0.14563659289E+03  0.47000000000E+01 0. -1.
        -11    1    6    6    0    0 -0.16612420497E+03  0.38918959259E+02  0.30483335526E+02  0.17332388933E+03  0.00000000000E+00 0.  1.
         12    1    6    6    0    0 -0.77521825021E+01 -0.20490378215E+02  0.28020954374E+01  0.22086277907E+02  0.00000000000E+00 0. -1.
         -5    1    3    3    0  503  0.98546443476E+02 -0.65483012577E+02  0.10444508697E+03  0.15789329514E+03  0.47000000000E+01 0.  1.
         13    1    4    4    0    0  0.62207752357E+02  0.33277349244E+02  0.54452553355E+02  0.89119397400E+02  0.00000000000E+00 0. -1.
        -14    1    4    4    0    0  0.86939511023E+02  0.17499146686E+02  0.22265670980E+03  0.23966791427E+03  0.00000000000E+00 0.  1.
</event>
<event>
12    1  0.9966151E-001  0.2774425E+03  0.7818608E-02  0.1097194E+00
         21   -1    0    0  501  502  0.00000000000E+00  0.00000000000E+00  0.14500688885E+03  0.14500688885E+03  0.00000000000E+00 0.  1.
         21   -1    0    0  502  503 -0.00000000000E+00 -0.00000000000E+00 -0.52985973495E+03  0.52985973495E+03  0.00000000000E+00 0.  1.
         -6    2    1    2    0  503 -0.18990176243E+03  0.10479845930E+03 -0.18335450394E+03  0.33255557734E+03  0.17299983080E+03 0.  0.
        -24    2    3    3    0    0 -0.24992737057E+02  0.51098468875E+01 -0.66051777124E+02  0.10691243915E+03  0.80104213012E+02 0.  0.
          6    2    1    2  501    0  0.18990176243E+03 -0.10479845930E+03 -0.20149834216E+03  0.34231104646E+03  0.17184258549E+03 0.  0.
         24    2    5    5    0    0  0.13155098646E+03 -0.11702185615E+03 -0.20556481542E+03  0.28237065364E+03  0.80476803138E+02 0.  0.
          5    1    5    5  501    0  0.58350775968E+02  0.12223396848E+02  0.40664732591E+01  0.59940392819E+02  0.47000000000E+01 0. -1.
        -13    1    6    6    0    0 -0.72223324270E+01 -0.19263402908E+02 -0.41374988236E+02  0.46207471569E+02  0.00000000000E+00 0.  1.
         14    1    6    6    0    0  0.13877331889E+03 -0.97758453238E+02 -0.16418982718E+03  0.23616318207E+03  0.00000000000E+00 0. -1.
         -5    1    3    3    0  503 -0.16490902537E+03  0.99688612411E+02 -0.11730272682E+03  0.22564313819E+03  0.47000000000E+01 0.  1.
         13    1    4    4    0    0 -0.29673838655E+02  0.26500767294E+02 -0.73671333387E+02  0.83727490890E+02  0.00000000000E+00 0. -1.
        -14    1    4    4    0    0  0.46811015984E+01 -0.21390920407E+02  0.76195562627E+01  0.23184948257E+02  0.00000000000E+00 0.  1.
</event>
<event>
12    1  0.9966151E-001  0.1989981E+03  0.7818608E-02  0.1150621E+00
         21   -1    0    0  501  502  0.00000000000E+00  0.00000000000E+00  0.88650340252E+02  0.88650340252E+02  0.00000000000E+00 0.  1.
         21   -1    0    0  502  503 -0.00000000000E+00 -0.00000000000E+00 -0.18159907238E+04  0.18159907238E+04  0.00000000000E+00 0.  1.
         -6    2    1    2    0  503  0.87023710680E+02 -0.47199415431E+02 -0.36707175446E+02  0.20235532578E+03  0.17262488263E+03 0.  0.
        -24    2    3    3    0    0  0.85163355938E+02 -0.58573998744E+02 -0.83099602412E+02  0.15432211492E+03  0.78905390874E+02 0.  0.
          6    2    1    2  501    0 -0.87023710680E+02  0.47199415431E+02 -0.16906332081E+04  0.17022857383E+04  0.17243891487E+03 0.  0.
         24    2    5    5    0    0 -0.27322087581E+02  0.91631044589E+02 -0.10515310358E+04  0.10588479945E+04  0.79365051569E+02 0.  0.
          5    1    5    5  501    0 -0.59701623098E+02 -0.44431629158E+02 -0.63910217234E+03  0.64343774381E+03  0.47000000000E+01 0. -1.
        -11    1    6    6    0    0 -0.37052654222E+01  0.49089795095E+02 -0.20154039525E+03  0.20746582343E+03  0.00000000000E+00 0.  1.
         12    1    6    6    0    0 -0.23616822159E+02  0.42541249494E+02 -0.84999064055E+03  0.85138217108E+03  0.00000000000E+00 0. -1.
         -5    1    3    3    0  503  0.18603547421E+01  0.11374583313E+02  0.46392426967E+02  0.48033210856E+02  0.47000000000E+01 0.  1.
         11    1    4    4    0    0  0.42657737367E+02 -0.39757935426E+02  0.89860174394E+00  0.58319666252E+02  0.00000000000E+00 0. -1.
        -12    1    4    4    0    0  0.42505618570E+02 -0.18816063318E+02 -0.83998204156E+02  0.96002448668E+02  0.00000000000E+00 0.  1.
</event>
<event>
12    1  0.9966151E-001  0.1856892E+03  0.7818608E-02  0.1163774E+00
         21   -1    0    0  501  502  0.00000000000E+00  0.00000000000E+00  0.62782362846E+03  0.62782362846E+03  0.00000000000E+00 0. -1.
         21   -1    0    0  502  503 -0.00000000000E+00 -0.00000000000E+00 -0.80583859783E+02  0.80583859783E+02  0.00000000000E+00 0. -1.
         -6    2    1    2    0  503  0.53322812011E+02 -0.19856735290E+02  0.47713431118E+03  0.50992514201E+03  0.17067187034E+03 0.  0.
        -24    2    3    3    0    0  0.93216857628E+02 -0.31125641646E+02  0.42428966911E+03  0.44259632706E+03  0.78813687260E+02 0.  0.
          6    2    1    2  501    0 -0.53322812011E+02  0.19856735290E+02  0.70105457495E+02  0.19848234624E+03  0.17675648328E+03 0.  0.
         24    2    5    5    0    0 -0.10242265786E+03  0.25863292441E+02  0.33055836076E+02  0.13650139724E+03  0.79878860843E+02 0.  0.
          5    1    5    5  501    0  0.49099845854E+02 -0.60065571518E+01  0.37049621420E+02  0.61980949001E+02  0.47000000000E+01 0. -1.
        -11    1    6    6    0    0 -0.60328796670E+02  0.29062141400E+02  0.57026253438E+02  0.87955473688E+02  0.00000000000E+00 0.  1.
         12    1    6    6    0    0 -0.42093861194E+02 -0.31988489592E+01 -0.23970417362E+02  0.48545923551E+02  0.00000000000E+00 0. -1.
         -5    1    3    3    0  503 -0.39894045617E+02  0.11268906356E+02  0.52844642075E+02  0.67328814947E+02  0.47000000000E+01 0.  1.
         13    1    4    4    0    0  0.93957801347E+01  0.12976101113E+02  0.17804362113E+03  0.17876294613E+03  0.00000000000E+00 0. -1.
        -14    1    4    4    0    0  0.83821077493E+02 -0.44101742759E+02  0.24624604798E+03  0.26383338093E+03  0.00000000000E+00 0.  1.
</event>
<event>
12    1  0.9966151E-001  0.2221554E+03  0.7818608E-02  0.1132428E+00
         21   -1    0    0  503  502  0.00000000000E+00  0.00000000000E+00  0.76309987793E+02  0.76309987793E+02  0.00000000000E+00 0.  1.
         21   -1    0    0  501  503 -0.00000000000E+00 -0.00000000000E+00 -0.70127171435E+03  0.70127171435E+03  0.00000000000E+00 0.  1.
          6    2    1    2  501    0  0.57600353313E+02  0.12796742082E+03 -0.42260147046E+03  0.47707763167E+03  0.17122383685E+03 0.  0.
         24    2    3    3    0    0  0.35437845314E+02  0.84580149925E+02 -0.12024221977E+03  0.17078228642E+03  0.79364698069E+02 0.  0.
         -6    2    1    2    0  502 -0.57600353313E+02 -0.12796742082E+03 -0.20236025610E+03  0.30050407048E+03  0.17221951584E+03 0.  0.
        -24    2    5    5    0    0 -0.61024279723E+02 -0.67663339021E+02 -0.20842790692E+03  0.23961719225E+03  0.75312125715E+02 0.  0.
          5    1    3    3  501    0  0.22162507998E+02  0.43387270893E+02 -0.30235925069E+03  0.30629534524E+03  0.47000000000E+01 0. -1.
        -11    1    4    4    0    0 -0.13388612208E+02 -0.43795224790E+01 -0.36797503931E+02  0.39401668106E+02  0.00000000000E+00 0.  1.
         12    1    4    4    0    0  0.48826457522E+02  0.88959672404E+02 -0.83444715838E+02  0.13138061832E+03  0.00000000000E+00 0. -1.
         -5    1    5    5    0  502  0.34239264101E+01 -0.60304081797E+02  0.60676508189E+01  0.60886878225E+02  0.47000000000E+01 0.  1.
         11    1    6    6    0    0 -0.40992096903E+02  0.50211948571E+01 -0.56207349522E+02  0.69748337232E+02  0.00000000000E+00 0. -1.
        -12    1    6    6    0    0 -0.20032182820E+02 -0.72684533878E+02 -0.15222055739E+03  0.16986885502E+03  0.00000000000E+00 0.  1.
</event>
<event>
12    1  0.9966151E-001  0.2088507E+03  0.7818608E-02  0.1145732E+00
         21   -1    0    0  501  502  0.00000000000E+00  0.00000000000E+00  0.18702026289E+03  0.18702026289E+03  0.00000000000E+00 0.  1.
         21   -1    0    0  502  503 -0.00000000000E+00 -0.00000000000E+00 -0.23682463752E+03  0.23682463752E+03  0.00000000000E+00 0.  1.
         -6    2    1    2    0  503 -0.10563524885E+03  0.49290035834E+02 -0.88463112781E+02  0.22681344054E+03  0.17329253030E+03 0.  0.
        -24    2    3    3    0    0 -0.91388156859E+02  0.99351780386E+02 -0.67468930256E+02  0.17049289724E+03  0.79329691672E+02 0.  0.
          6    2    1    2  501    0  0.10563524885E+03 -0.49290035834E+02  0.38658738156E+02  0.19703145987E+03  0.15407330953E+03 0.  0.
         24    2    5    5    0    0  0.55338133147E+02  0.11129847364E+00  0.71173414808E+02  0.11925237607E+03  0.78058650098E+02 0.  0.
          5    1    5    5  501    0  0.50297115702E+02 -0.49401334308E+02 -0.32514676652E+02  0.77779083802E+02  0.47000000000E+01 0. -1.
        -13    1    6    6    0    0  0.30063726351E+02 -0.86238785007E+01  0.83970998262E+02  0.89606514672E+02  0.00000000000E+00 0.  1.
         14    1    6    6    0    0  0.25274406796E+02  0.87351769744E+01 -0.12797583455E+02  0.29645861396E+02  0.00000000000E+00 0. -1.
         -5    1    3    3    0  503 -0.14247091990E+02 -0.50061744552E+02 -0.20994182525E+02  0.56320543301E+02  0.47000000000E+01 0.  1.
         13    1    4    4    0    0 -0.94439800769E+02  0.53062529244E+02 -0.34889897154E+02  0.11380603192E+03  0.00000000000E+00 0. -1.
        -14    1    4    4    0    0  0.30516439099E+01  0.46289251142E+02 -0.32579033102E+02  0.56686865319E+02  0.00000000000E+00 0.  1.
</event>
<event>
12    1  0.9966151E-001  0.2224978E+03  0.7818608E-02  0.1132083E+00
         21   -1    0    0  503  502  0.00000000000E+00  0.00000000000E+00  0.29671235221E+02  0.29671235221E+02  0.00000000000E+00 0.  1.
         21   -1    0    0  501  503 -0.00000000000E+00 -0.00000000000E+00 -0.17669289034E+04  0.17669289034E+04  0.00000000000E+00 0.  1.
          6    2    1    2  501    0 -0.13271825786E+03 -0.47668455061E+02 -0.10823189226E+04  0.11048993145E+04  0.17176095993E+03 0.  0.
         24    2    3    3    0    0 -0.28300270804E+02  0.15956071953E+02 -0.65937920246E+03  0.66461384648E+03  0.76649401475E+02 0.  0.
         -6    2    1    2    0  502  0.13271825786E+03  0.47668455061E+02 -0.65493874555E+03  0.69170082410E+03  0.17210128433E+03 0.  0.
        -24    2    5    5    0    0  0.15159289897E+03  0.71182901669E+02 -0.60390148700E+03  0.63223593500E+03  0.83533580050E+02 0.  0.
          5    1    3    3  501    0 -0.10441798706E+03 -0.63624527014E+02 -0.42293972015E+03  0.44028546801E+03  0.47000000000E+01 0. -1.
        -13    1    4    4    0    0 -0.31874261669E+02 -0.22476789310E+02 -0.45150689318E+03  0.45318831539E+03  0.00000000000E+00 0.  1.
         14    1    4    4    0    0  0.35739908652E+01  0.38432861263E+02 -0.20787230927E+03  0.21142553109E+03  0.00000000000E+00 0. -1.
         -5    1    5    5    0  502 -0.18874641108E+02 -0.23514446608E+02 -0.51037258552E+02  0.59464889109E+02  0.47000000000E+01 0.  1.
         13    1    6    6    0    0  0.68746779179E+02 -0.76706997121E+01 -0.17052326136E+03  0.18401940644E+03  0.00000000000E+00 0. -1.
        -14    1    6    6    0    0  0.82846119788E+02  0.78853601382E+02 -0.43337822564E+03  0.44821652856E+03  0.00000000000E+00 0.  1.
</event>
<event>
12    1  0.9966151E-001  0.1748069E+03  0.7818608E-02  0.1172949E+00
         21   -1    0    0  501  502  0.00000000000E+00  0.00000000000E+00  0.10015344146E+03  0.10015344146E+03  0.00000000000E+00 0. -1.
         21   -1    0    0  502  503 -0.00000000000E+00 -0.00000000000E+00 -0.30565235799E+03  0.30565235799E+03  0.00000000000E+00 0. -1.
         -6    2    1    2    0  503 -0.32217666700E+02  0.12263553304E+02 -0.92951596031E+02  0.19790115798E+03  0.17127900145E+03 0.  0.
        -24    2    3    3    0    0 -0.73667218599E+02  0.45571559074E+02 -0.82162370305E+02  0.14344029136E+03  0.79503685445E+02 0.  0.
          6    2    1    2  501    0  0.32217666700E+02 -0.12263553304E+02 -0.11254732050E+03  0.20790464147E+03  0.17137405814E+03 0.  0.
         24    2    5    5    0    0  0.65946799519E+02 -0.56095993836E+02 -0.91103224092E+02  0.14839937687E+03  0.78910308102E+02 0.  0.
          5    1    5    5  501    0 -0.33729132819E+02  0.43832440532E+02 -0.21444096406E+02  0.59505264594E+02  0.47000000000E+01 0. -1.
        -13    1    6    6    0    0  0.37689922402E+02 -0.35734518757E+02 -0.99796095039E+02  0.11250220739E+03  0.00000000000E+00 0.  1.
         14    1    6    6    0    0  0.28256877118E+02 -0.20361475079E+02  0.86928709478E+01  0.35897169487E+02  0.00000000000E+00 0. -1.
         -5    1    3    3    0  503  0.41449551899E+02 -0.33308005770E+02 -0.10789225726E+02  0.54460866618E+02  0.47000000000E+01 0.  1.
         13    1    4    4    0    0 -0.33070854139E+02  0.26163965234E+02 -0.88467563883E+02  0.98003797526E+02  0.00000000000E+00 0. -1.
        -14    1    4    4    0    0 -0.40596364461E+02  0.19407593840E+02  0.63051935774E+01  0.45436493836E+02  0.00000000000E+00 0.  1.
</event>
<event>
12    1  0.9966151E-001  0.2773785E+03  0.7818608E-02  0.1097231E+00
         21   -1    0    0  503  502  0.00000000000E+00  0.00000000000E+00  0.15383012089E+03  0.15383012089E+03  0.00000000000E+00 0.  1.
         21   -1    0    0  501  503 -0.00000000000E+00 -0.00000000000E+00 -0.49908940973E+03  0.49908940973E+03  0.00000000000E+00 0.  1.
          6    2    1    2  501    0  0.20444048725E+03  0.73302360935E+02 -0.16495916720E+03  0.32209180819E+03  0.17135476974E+03 0.  0.
         24    2    3    3    0    0  0.11121882682E+03  0.25264365259E+02 -0.19060227733E+02  0.14235166926E+03  0.83022827404E+02 0.  0.
         -6    2    1    2    0  502 -0.20444048725E+03 -0.73302360935E+02 -0.18030012164E+03  0.33082772244E+03  0.17253897857E+03 0.  0.
        -24    2    5    5    0    0 -0.13223928830E+03  0.21557664154E+02 -0.76334599512E+02  0.17257995064E+03  0.77491328707E+02 0.  0.
          5    1    3    3  501    0  0.93221660436E+02  0.48037995676E+02 -0.14589893947E+03  0.17974013893E+03  0.47000000000E+01 0. -1.
        -11    1    4    4    0    0  0.19547629074E+02 -0.19055551876E+02 -0.29262687724E+02  0.40019104845E+02  0.00000000000E+00 0.  1.
         12    1    4    4    0    0  0.91671197742E+02  0.44319917136E+02  0.10202459991E+02  0.10233256442E+03  0.00000000000E+00 0. -1.
         -5    1    5    5    0  502 -0.72201198950E+02 -0.94860025090E+02 -0.10396552213E+03  0.15824777180E+03  0.47000000000E+01 0.  1.
         13    1    6    6    0    0 -0.86734686579E+02 -0.21574159115E+02 -0.28810955425E+02  0.93906449991E+02  0.00000000000E+00 0. -1.
        -14    1    6    6    0    0 -0.45504601723E+02  0.43131823270E+02 -0.47523644087E+02  0.78673500645E+02  0.00000000000E+00 0.  1.
</event>
<event>
12    1  0.9966151E-001  0.1752412E+03  0.7818608E-02  0.1172633E+00
         21   -1    0    0  501  502  0.00000000000E+00  0.00000000000E+00  0.10005410522E+03  0.10005410522E+03  0.00000000000E+00 0. -1.
         21   -1    0    0  502  503 -0.00000000000E+00 -0.00000000000E+00 -0.14087249535E+04  0.14087249535E+04  0.00000000000E+00 0. -1.
         -6    2    1    2    0  503 -0.17736463917E+02  0.21934312176E+02  0.12899631991E+02  0.17571534060E+03  0.17295601815E+03 0.  0.
        -24    2    3    3    0    0 -0.35522959434E+02  0.72945457816E+02 -0.14189196593E+02  0.11509858519E+03  0.80395463487E+02 0.  0.
          6    2    1    2  501    0  0.17736463917E+02 -0.21934312176E+02 -0.13215704803E+04  0.13330637181E+04  0.17237936663E+03 0.  0.
         24    2    5    5    0    0  0.71217024140E+02 -0.33990544605E+02 -0.60638942320E+03  0.61576910817E+03  0.72361870924E+02 0.  0.
          5    1    5    5  501    0 -0.53480560223E+02  0.12056232429E+02 -0.71518105709E+03  0.71729460996E+03  0.47000000000E+01 0. -1.
        -11    1    6    6    0    0  0.81653254444E+02 -0.41502186278E+02 -0.56653812624E+03  0.57389470630E+03  0.00000000000E+00 0.  1.
         12    1    6    6    0    0 -0.10436230304E+02  0.75116416726E+01 -0.39851296954E+02  0.41874401876E+02  0.00000000000E+00 0. -1.
         -5    1    3    3    0  503  0.17786495517E+02 -0.51011145640E+02  0.27088828584E+02  0.60616755409E+02  0.47000000000E+01 0.  1.
         13    1    4    4    0    0  0.81826918599E+01 -0.14328047016E+02 -0.38803800828E+01  0.16950124688E+02  0.00000000000E+00 0. -1.
        -14    1    4    4    0    0 -0.43705651294E+02  0.87273504832E+02 -0.10308816510E+02  0.98148460500E+02  0.00000000000E+00 0.  1.
</event>
<event>
12    1  0.9966151E-001  0.1873925E+03  0.7818608E-02  0.1162533E+00
         21   -1    0    0  503  502  0.00000000000E+00  0.00000000000E+00  0.23916638635E+03  0.23916638635E+03  0.00000000000E+00 0.  1.
         21   -1    0    0  501  503 -0.00000000000E+00 -0.00000000000E+00 -0.14475012804E+03  0.14475012804E+03  0.00000000000E+00 0.  1.
          6    2    1    2  501    0  0.30119473703E+02 -0.44890749881E+02  0.18086465837E+02  0.18826327198E+03  0.17942568715E+03 0.  0.
         24    2    3    3    0    0  0.22280547856E+01 -0.42750138699E+01  0.76921796702E+02  0.11137858287E+03  0.80405136301E+02 0.  0.
         -6    2    1    2    0  502 -0.30119473703E+02  0.44890749881E+02  0.76329792469E+02  0.19565324241E+03  0.17184758341E+03 0.  0.
        -24    2    5    5    0    0 -0.27079389413E+01  0.93720721185E+02  0.60175881339E+02  0.13718276113E+03  0.80044154969E+02 0.  0.
          5    1    3    3  501    0  0.27891418918E+02 -0.40615736011E+02 -0.58835330864E+02  0.76884689105E+02  0.47000000000E+01 0. -1.
        -13    1    4    4    0    0 -0.26473866574E+02  0.21776537741E+02  0.59961589299E+02  0.69068628180E+02  0.00000000000E+00 0.  1.
         14    1    4    4    0    0  0.28701921360E+02 -0.26051551611E+02  0.16960207403E+02  0.42309954694E+02  0.00000000000E+00 0. -1.
         -5    1    5    5    0  502 -0.27411534762E+02 -0.48829971304E+02  0.16153911130E+02  0.58470481274E+02  0.47000000000E+01 0.  1.
         13    1    6    6    0    0 -0.50126171304E+01  0.76477620171E+02  0.80013608152E+02  0.11079769947E+03  0.00000000000E+00 0. -1.
        -14    1    6    6    0    0  0.23046781891E+01  0.17243101014E+02 -0.19837726813E+02  0.26385061668E+02  0.00000000000E+00 0.  1.
</event>
<event>
12    1  0.9966151E-001  0.3666091E+03  0.7818608E-02  0.1056099E+00
         21   -1    0    0  503  502  0.00000000000E+00  0.00000000000E+00  0.17223115669E+03  0.17223115669E+03  0.00000000000E+00 0. -1.
         21   -1    0    0  501  503 -0.00000000000E+00 -0.00000000000E+00 -0.84054488938E+03  0.84054488938E+03  0.00000000000E+00 0. -1.
          6    2    1    2  501    0 -0.31017641117E+03 -0.90522766209E+02 -0.19571431930E+03  0.41465197127E+03  0.17096311079E+03 0.  0.
         24    2    3    3    0    0 -0.28128811694E+03 -0.12432176359E+03 -0.18738936473E+03  0.36917339790E+03  0.81211563625E+02 0.  0.
         -6    2    1    2    0  502  0.31017641117E+03  0.90522766209E+02 -0.47259941339E+03  0.59812407479E+03  0.17320053715E+03 0.  0.
        -24    2    5    5    0    0  0.27885209664E+03  0.31610466314E+02 -0.42775340291E+03  0.51759379219E+03  0.78566192727E+02 0.  0.
          5    1    3    3  501    0 -0.28888294234E+02  0.33798997382E+02 -0.83249545690E+01  0.45478573377E+02  0.47000000000E+01 0. -1.
        -13    1    4    4    0    0 -0.15805440657E+03 -0.10093341397E+03 -0.14401954170E+03  0.23645375422E+03  0.00000000000E+00 0.  1.
         14    1    4    4    0    0 -0.12323371036E+03 -0.23388349624E+02 -0.43369823033E+02  0.13271964368E+03  0.00000000000E+00 0. -1.
         -5    1    5    5    0  502  0.31324314531E+02  0.58912299895E+02 -0.44846010481E+02  0.80530282601E+02  0.47000000000E+01 0.  1.
         11    1    6    6    0    0  0.19310341425E+03  0.19308464493E+02 -0.35451379231E+03  0.40415563133E+03  0.00000000000E+00 0. -1.
        -12    1    6    6    0    0  0.85748682392E+02  0.12302001821E+02 -0.73239610596E+02  0.11343816087E+03  0.00000000000E+00 0.  1.
</event>
<event>
12    1  0.9966151E-001  0.3827471E+03  0.7818608E-02  0.1050320E+00
         21   -1    0    0  503  502  0.00000000000E+00  0.00000000000E+00  0.17474251697E+04  0.17474251697E+04  0.00000000000E+00 0. -1.
         21   -1    0    0  501  503 -0.00000000000E+00 -0.00000000000E+00 -0.83730413786E+02  0.83730413786E+02  0.00000000000E+00 0.  1.
          6    2    1    2  501    0 -0.21516763857E+02  0.33644533616E+03  0.73567874844E+03  0.82730845840E+03  0.17192332327E+03 0.  0.
         24    2    3    3    0    0 -0.75563812382E+02  0.26541542814E+03  0.56161823686E+03  0.63164169326E+03  0.86028747859E+02 0.  0.
         -6    2    1    2    0  502  0.21516763857E+02 -0.33644533616E+03  0.92801600745E+03  0.10038471251E+04  0.18120956117E+03 0.  0.
        -24    2    5    5    0    0  0.82707042464E+02 -0.23456741135E+03  0.68696404520E+03  0.73505073323E+03  0.80731999087E+02 0.  0.
          5    1    3    3  501    0  0.54047048525E+02  0.71029908023E+02  0.17406051158E+03  0.19566676514E+03  0.47000000000E+01 0. -1.
        -13    1    4    4    0    0  0.17140977381E+02  0.27657576092E+02  0.46206426216E+02  0.56513612913E+02  0.00000000000E+00 0.  1.
         14    1    4    4    0    0 -0.92704789763E+02  0.23775785205E+03  0.51541181064E+03  0.57512808035E+03  0.00000000000E+00 0. -1.
         -5    1    5    5    0  502 -0.61190278607E+02 -0.10187792481E+03  0.24105196225E+03  0.26879639184E+03  0.47000000000E+01 0.  1.
         11    1    6    6    0    0  0.78796334792E+02 -0.17534014027E+03  0.42509773735E+03  0.46654165245E+03  0.00000000000E+00 0. -1.
        -12    1    6    6    0    0  0.39107076718E+01 -0.59227271078E+02  0.26186630785E+03  0.26850908078E+03  0.00000000000E+00 0.  1.
</event>
<event>
12    1  0.9966151E-001  0.1982615E+03  0.7818608E-02  0.1151338E+00
         21   -1    0    0  501  502  0.00000000000E+00  0.00000000000E+00  0.56602348182E+03  0.56602348182E+03  0.00000000000E+00 0. -1.
         21   -1    0    0  502  503 -0.00000000000E+00 -0.00000000000E+00 -0.95118713112E+02  0.95118713112E+02  0.00000000000E+00 0.  1.
         -6    2    1    2    0  503  0.98244754539E+02  0.11506863897E+02  0.40761842196E+03  0.45302498112E+03  0.17115611553E+03 0.  0.
        -24    2    3    3    0    0  0.13602219212E+03  0.10419450643E+02  0.30108789498E+03  0.33989160657E+03  0.79131422420E+02 0.  0.
          6    2    1    2  501    0 -0.98244754539E+02 -0.11506863897E+02  0.63286346743E+02  0.20811721381E+03  0.17182308718E+03 0.  0.
         24    2    5    5    0    0 -0.30933137322E+02 -0.27026289797E+02  0.91535149915E+02  0.13333893305E+03  0.87825440920E+02 0.  0.
          5    1    5    5  501    0 -0.67311617217E+02  0.15519425900E+02 -0.28248803172E+02  0.74778280759E+02  0.47000000000E+01 0. -1.
        -13    1    6    6    0    0  0.16759429386E+02  0.22057698577E+02  0.18868379542E+02  0.33517701091E+02  0.00000000000E+00 0.  1.
         14    1    6    6    0    0 -0.47692566708E+02 -0.49083988374E+02  0.72666770373E+02  0.99821231962E+02  0.00000000000E+00 0. -1.
         -5    1    3    3    0  503 -0.37777437576E+02  0.10874132535E+01  0.10653052698E+03  0.11313337455E+03  0.47000000000E+01 0.  1.
         11    1    4    4    0    0  0.99943775846E+02  0.42888389569E+02  0.21926295480E+03  0.24475378575E+03  0.00000000000E+00 0. -1.
        -12    1    4    4    0    0  0.36078416269E+02 -0.32468938926E+02  0.81824940182E+02  0.95137820825E+02  0.00000000000E+00 0.  1.
</event>
<event>
12    1  0.9966151E-001  0.2112543E+03  0.7818608E-02  0.1140678E+00
         21   -1    0    0  501  502  0.00000000000E+00  0.00000000000E+00  0.13715210934E+03  0.13715210934E+03  0.00000000000E+00 0. -1.
         21   -1    0    0  502  503 -0.00000000000E+00 -0.00000000000E+00 -0.32476088977E+03  0.32476088977E+03  0.00000000000E+00 0. -1.
         -6    2    1    2    0  503  0.74903832960E+02  0.92988110617E+02 -0.88726151913E+02  0.22913030341E+03  0.17427275460E+03 0.  0.
        -24    2    3    3    0    0  0.51952266070E+02  0.16547469734E+02  0.15062598050E+02  0.98118316854E+02  0.80171475837E+02 0.  0.
          6    2    1    2  501    0 -0.74903832960E+02 -0.92988110617E+02 -0.98882628521E+02  0.23278269570E+03  0.17364514473E+03 0.  0.
         24    2    5    5    0    0 -0.24111307706E+02 -0.10081601631E+03 -0.12011989852E+03  0.17697706547E+03  0.78401960286E+02 0.  0.
          5    1    5    5  501    0 -0.50792525253E+02  0.78279056943E+01  0.21237269998E+02  0.55805630237E+02  0.47000000000E+01 0. -1.
        -13    1    6    6    0    0 -0.37617332680E+02 -0.77147615291E+02 -0.12255097273E+03  0.14961804430E+03  0.00000000000E+00 0.  1.
         14    1    6    6    0    0  0.13506024974E+02 -0.23668401020E+02  0.24310742094E+01  0.27359021168E+02  0.00000000000E+00 0. -1.
         -5    1    3    3    0  503  0.22951566890E+02  0.76440640884E+02 -0.10378874996E+03  0.13101198655E+03  0.47000000000E+01 0.  1.
         13    1    4    4    0    0 -0.20095998547E+02  0.26765170850E+01  0.14182308824E+02  0.24741681125E+02  0.00000000000E+00 0. -1.
        -14    1    4    4    0    0  0.72048264618E+02  0.13870952649E+02  0.88028922576E+00  0.73376635729E+02  0.00000000000E+00 0.  1.
</event>
<event>
12    1  0.9966151E-001  0.2089761E+03  0.7818608E-02  0.1142754E+00
         21   -1    0    0  501  502  0.00000000000E+00  0.00000000000E+00  0.29777691077E+03  0.29777691077E+03  0.00000000000E+00 0.  1.
         21   -1    0    0  502  503 -0.00000000000E+00 -0.00000000000E+00 -0.15632014365E+03  0.15632014365E+03  0.00000000000E+00 0.  1.
         -6    2    1    2    0  503  0.79307401731E+02  0.89452373694E+02  0.10866397104E+02  0.20925846572E+03  0.17140488838E+03 0.  0.
        -24    2    3    3    0    0  0.57750319737E+02  0.12438840444E+03  0.33595676674E+02  0.16209975308E+03  0.79624656149E+02 0.  0.
          6    2    1    2  501    0 -0.79307401731E+02 -0.89452373694E+02  0.13059037001E+03  0.24483858870E+03  0.16911741084E+03 0.  0.
         24    2    5    5    0    0  0.15152643933E+02 -0.73980379318E+02  0.54250679043E+02  0.12231544291E+03  0.79468435595E+02 0.  0.
          5    1    5    5  501    0 -0.94460045664E+02 -0.15471994377E+02  0.76339690968E+02  0.12252314579E+03  0.47000000000E+01 0. -1.
        -13    1    6    6    0    0  0.21087885446E+02  0.45068192933E+01 -0.69005330826E+01  0.22641282860E+02  0.00000000000E+00 0.  1.
         14    1    6    6    0    0 -0.59352415131E+01 -0.78487198611E+02  0.61151212126E+02  0.99674160052E+02  0.00000000000E+00 0. -1.
         -5    1    3    3    0  503  0.21557081993E+02 -0.34936030749E+02 -0.22729279571E+02  0.47158712645E+02  0.47000000000E+01 0.  1.
         11    1    4    4    0    0  0.22177004325E+02  0.11685217728E+03  0.11364863352E+02  0.11947975131E+03  0.00000000000E+00 0. -1.
        -12    1    4    4    0    0  0.35573315412E+02  0.75362271667E+01  0.22230813323E+02  0.42620001763E+02  0.00000000000E+00 0.  1.
</event>
<event>
12    1  0.9966151E-001  0.2574087E+03  0.7818608E-02  0.1108772E+00
         21   -1    0    0  503  502  0.00000000000E+00  0.00000000000E+00  0.75361687496E+03  0.75361687496E+03  0.00000000000E+00 0.  1.
         21   -1    0    0  501  503 -0.00000000000E+00 -0.00000000000E+00 -0.11808064636E+03  0.11808064636E+03  0.00000000000E+00 0.  1.
          6    2    1    2  501    0  0.27024028519E+02 -0.18946106355E+03  0.53835595554E+03  0.59655533668E+03  0.17153816525E+03 0.  0.
         24    2    3    3    0    0 -0.19030426877E+02 -0.29646785446E+02  0.14251001099E+03  0.16716307061E+03  0.79958113457E+02 0.  0.
         -6    2    1    2    0  502 -0.27024028519E+02  0.18946106355E+03  0.97180273052E+02  0.27514218463E+03  0.17214361323E+03 0.  0.
        -24    2    5    5    0    0 -0.51016043391E+02  0.17668745778E+03  0.31169087303E+02  0.20359955101E+03  0.81609869178E+02 0.  0.
          5    1    3    3  501    0  0.46054455396E+02 -0.15981427811E+03  0.39584594455E+03  0.42939226608E+03  0.47000000000E+01 0. -1.
        -11    1    4    4    0    0 -0.30869677259E+01 -0.38492562879E+02  0.14379011704E+03  0.14888520586E+03  0.00000000000E+00 0.  1.
         12    1    4    4    0    0 -0.15943459151E+02  0.88457774327E+01 -0.12801060482E+01  0.18277864744E+02  0.00000000000E+00 0. -1.
         -5    1    5    5    0  502  0.23992014872E+02  0.12773605773E+02  0.66011185750E+02  0.71542633626E+02  0.47000000000E+01 0.  1.
         13    1    6    6    0    0 -0.38974617106E+02  0.15701800453E+03  0.54575562893E+02  0.17074005561E+03  0.00000000000E+00 0. -1.
        -14    1    6    6    0    0 -0.12041426286E+02  0.19669453249E+02 -0.23406475590E+02  0.32859495396E+02  0.00000000000E+00 0.  1.
</event>
<event>
12    1  0.9966151E-001  0.2390993E+03  0.7818608E-02  0.1120852E+00
         21   -1    0    0  503  502  0.00000000000E+00  0.00000000000E+00  0.63223698619E+02  0.63223698619E+02  0.00000000000E+00 0.  1.
         21   -1    0    0  501  503 -0.00000000000E+00 -0.00000000000E+00 -0.93678062317E+03  0.93678062317E+03  0.00000000000E+00 0.  1.
          6    2    1    2  501    0  0.36214087734E+02 -0.16162731563E+03 -0.54128154410E+03  0.59064455577E+03  0.16864291261E+03 0.  0.
         24    2    3    3    0    0 -0.29861274831E+02 -0.44431230391E+02 -0.28180360938E+03  0.29832321796E+03  0.81961199028E+02 0.  0.
         -6    2    1    2    0  502 -0.36214087734E+02  0.16162731563E+03 -0.33227538045E+03  0.40935976602E+03  0.17243445210E+03 0.  0.
        -24    2    5    5    0    0  0.16848716889E+02  0.40903332909E+02 -0.21543390538E+03  0.23311005244E+03  0.77275915124E+02 0.  0.
          5    1    3    3  501    0  0.66075362565E+02 -0.11719608524E+03 -0.25947793472E+03  0.29232133781E+03  0.47000000000E+01 0. -1.
        -13    1    4    4    0    0  0.12940070301E+02  0.14965548096E+02 -0.28805738538E+02  0.34945437785E+02  0.00000000000E+00 0.  1.
         14    1    4    4    0    0 -0.42801345132E+02 -0.59396778488E+02 -0.25299787085E+03  0.26337778018E+03  0.00000000000E+00 0. -1.
         -5    1    5    5    0  502 -0.53062804623E+02  0.12072398272E+03 -0.11684147507E+03  0.17624971358E+03  0.47000000000E+01 0.  1.
         13    1    6    6    0    0 -0.30942289525E+02  0.20073658795E+02 -0.86502566826E+02  0.94037604851E+02  0.00000000000E+00 0. -1.
        -14    1    6    6    0    0  0.47791006414E+02  0.20829674113E+02 -0.12893133855E+03  0.13907244759E+03  0.00000000000E+00 0.  1.
</event>
<event>
12    1  0.9966151E-001  0.2206143E+03  0.7818608E-02  0.1133682E+00
         21   -1    0    0  501  502  0.00000000000E+00  0.00000000000E+00  0.48926352741E+02  0.48926352741E+02  0.00000000000E+00 0.  1.
         21   -1    0    0  502  503 -0.00000000000E+00 -0.00000000000E+00 -0.10322462018E+04  0.10322462018E+04  0.00000000000E+00 0.  1.
         -6    2    1    2    0  503 -0.52000037770E+02 -0.12585309081E+03 -0.60136695393E+03  0.64008447637E+03  0.17182234785E+03 0.  0.
        -24    2    3    3    0    0 -0.30148726453E+02 -0.13542428389E+03 -0.32127922274E+03  0.35894338242E+03  0.79820614179E+02 0.  0.
          6    2    1    2  501    0  0.52000037770E+02  0.12585309081E+03 -0.38195289517E+03  0.44108807821E+03  0.17357325317E+03 0.  0.
         24    2    5    5    0    0  0.91583873924E+02  0.55347127235E+02 -0.21026687671E+03  0.25125617911E+03  0.86409476565E+02 0.  0.
          5    1    5    5  501    0 -0.39583836154E+02  0.70505963570E+02 -0.17168601845E+03  0.18983189910E+03  0.47000000000E+01 0. -1.
        -13    1    6    6    0    0  0.80151833012E+02  0.78092201933E+02 -0.16613489057E+03  0.20030853752E+03  0.00000000000E+00 0.  1.
         14    1    6    6    0    0  0.11432040912E+02 -0.22745074698E+02 -0.44131986144E+02  0.50947641589E+02  0.00000000000E+00 0. -1.
         -5    1    3    3    0  503 -0.21851311317E+02  0.95711930824E+01 -0.28008773120E+03  0.28114109395E+03  0.47000000000E+01 0.  1.
         11    1    4    4    0    0  0.19534799119E+02 -0.88440633086E+02 -0.20364792462E+03  0.22288075547E+03  0.00000000000E+00 0. -1.
        -12    1    4    4    0    0 -0.49683525571E+02 -0.46983650802E+02 -0.11763129812E+03  0.13606262695E+03  0.00000000000E+00 0.  1.
</event>
<event>
12    1  0.9966151E-001  0.3030037E+03  0.7818608E-02  0.1083908E+00
         21   -1    0    0  503  502  0.00000000000E+00  0.00000000000E+00  0.55182006909E+03  0.55182006909E+03  0.00000000000E+00 0.  1.
         21   -1    0    0  501  503 -0.00000000000E+00 -0.00000000000E+00 -0.17615387145E+03  0.17615387145E+03  0.00000000000E+00 0.  1.
          6    2    1    2  501    0 -0.24215808813E+03 -0.57878891864E+02  0.27624657814E+03  0.40907665019E+03  0.17041428354E+03 0.  0.
         24    2    3    3    0    0 -0.43391041348E+02  0.71898540985E+01  0.95653657661E+02  0.13271063652E+03  0.80796128318E+02 0.  0.
         -6    2    1    2    0  502  0.24215808813E+03  0.57878891864E+02  0.99419619506E+02  0.31889729034E+03  0.17268675478E+03 0.  0.
        -24    2    5    5    0    0  0.55271184287E+02  0.73061058150E-01 -0.54370109566E+01  0.96894515916E+02  0.79398217714E+02 0.  0.
          5    1    3    3  501    0 -0.19876704678E+03 -0.65068745962E+02  0.18059292048E+03  0.27636601367E+03  0.47000000000E+01 0. -1.
        -11    1    4    4    0    0 -0.14345719913E+02 -0.34150944422E+02  0.21039683467E+02  0.42599940906E+02  0.00000000000E+00 0.  1.
         12    1    4    4    0    0 -0.29045321434E+02  0.41340798521E+02  0.74613974195E+02  0.90110695618E+02  0.00000000000E+00 0. -1.
         -5    1    5    5    0  502  0.18688690384E+03  0.57805830806E+02  0.10485663046E+03  0.22200277443E+03  0.47000000000E+01 0.  1.
         11    1    6    6    0    0  0.26627912754E+02 -0.34795726895E+02  0.16373758805E+02  0.46774868521E+02  0.00000000000E+00 0. -1.
        -12    1    6    6    0    0  0.28643271532E+02  0.34868787953E+02 -0.21810769762E+02  0.50119647395E+02  0.00000000000E+00 0.  1.
</event>
<event>
12    1  0.1143321E+000  0.3092162E+03  0.7818608E-02  0.1080754E+00
         21   -1    0    0  503  502  0.00000000000E+00  0.00000000000E+00  0.18148478914E+04  0.18148478914E+04  0.00000000000E+00 0. -1.
         21   -1    0    0  501  503 -0.00000000000E+00 -0.00000000000E+00 -0.12023509771E+03  0.12023509771E+03  0.00000000000E+00 0.  1.
          6    2    1    2  501    0 -0.22912078840E+03 -0.11597275923E+03  0.15726065410E+04  0.16026672741E+04  0.17177031828E+03 0.  0.
         24    2    3    3    0    0 -0.15001522893E+03 -0.50734113533E+02  0.62446390229E+03  0.64898476734E+03  0.78406273939E+02 0.  0.
         -6    2    1    2    0  502  0.22912078840E+03  0.11597275923E+03  0.12200625269E+03  0.33241571497E+03  0.17224594422E+03 0.  0.
        -24    2    5    5    0    0  0.16861716649E+03  0.66963563555E+02  0.15070141283E+03  0.24930078406E+03  0.80771885095E+02 0.  0.
          5    1    3    3  501    0 -0.79105559472E+02 -0.65238645700E+02  0.94814263867E+03  0.95368250676E+03  0.47000000000E+01 0. -1.
        -11    1    4    4    0    0 -0.11286497005E+03 -0.43410172686E+02  0.56978006711E+03  0.58247083140E+03  0.00000000000E+00 0.  1.
         12    1    4    4    0    0 -0.37150258881E+02 -0.73239408466E+01  0.54683835175E+02  0.66513935938E+02  0.00000000000E+00 0. -1.
         -5    1    5    5    0  502  0.60503621914E+02  0.49009195678E+02 -0.28695160141E+02  0.83114930916E+02  0.47000000000E+01 0.  1.
         13    1    6    6    0    0  0.65277565821E+01  0.13590953072E+02  0.47582023305E+02  0.49913671005E+02  0.00000000000E+00 0. -1.
        -14    1    6    6    0    0  0.16208940991E+03  0.53372610482E+02  0.10311938953E+03  0.19938711305E+03  0.00000000000E+00 0.  1.
</event>
<event>
12    1  0.9966151E-001  0.2601213E+03  0.7818608E-02  0.1107322E+00
         21   -1    0    0  501  502  0.00000000000E+00  0.00000000000E+00  0.45036768483E+03  0.45036768483E+03  0.00000000000E+00 0. -1.
         21   -1    0    0  502  503 -0.00000000000E+00 -0.00000000000E+00 -0.20085495998E+03  0.20085495998E+03  0.00000000000E+00 0. -1.
         -6    2    1    2    0  503 -0.17371618805E+03  0.88196717363E+02 -0.39947361347E+02  0.26317077729E+03  0.17235745240E+03 0.  0.
        -24    2    3    3    0    0 -0.75999379128E+02  0.86498696061E+02 -0.56566070083E+02  0.16392497384E+03  0.10204776684E+03 0.  0.
          6    2    1    2  501    0  0.17371618805E+03 -0.88196717363E+02  0.28946008620E+03  0.38805186752E+03  0.16982678069E+03 0.  0.
         24    2    5    5    0    0  0.25434825345E+02 -0.75839534908E+01  0.48584210622E+02  0.93893648767E+02  0.75836304407E+02 0.  0.
          5    1    5    5  501    0  0.14828136270E+03 -0.80612763872E+02  0.24087587558E+03  0.29415821875E+03  0.47000000000E+01 0. -1.
        -11    1    6    6    0    0  0.46982675937E+02  0.53944204904E+01  0.49842532298E+02  0.68707711623E+02  0.00000000000E+00 0.  1.
         12    1    6    6    0    0 -0.21547850593E+02 -0.12978373981E+02 -0.12583216760E+01  0.25185937144E+02  0.00000000000E+00 0. -1.
         -5    1    3    3    0  503 -0.97716808919E+02  0.16980213022E+01  0.16618708736E+02  0.99245803447E+02  0.47000000000E+01 0.  1.
         11    1    4    4    0    0 -0.76698759737E+02  0.10591341563E+03 -0.60529018369E+02  0.14409758298E+03  0.00000000000E+00 0. -1.
        -12    1    4    4    0    0  0.69938060893E+00 -0.19414719572E+02  0.39629482860E+01  0.19827390863E+02  0.00000000000E+00 0.  1.
</event>
<event>
12    1  0.9966151E-001  0.2169206E+03  0.7818608E-02  0.1136302E+00
         21   -1    0    0  501  502  0.00000000000E+00  0.00000000000E+00  0.13612385872E+03  0.13612385872E+03  0.00000000000E+00 0.  1.
         21   -1    0    0  502  503 -0.00000000000E+00 -0.00000000000E+00 -0.35488729806E+03  0.35488729806E+03  0.00000000000E+00 0.  1.
         -6    2    1    2    0  503 -0.96488311410E+02 -0.93895427295E+02 -0.68158455953E+02  0.22737664384E+03  0.17008297251E+03 0.  0.
        -24    2    3    3    0    0 -0.37600086380E+02 -0.62215117573E+02 -0.10592564899E+03  0.15043565384E+03  0.78269760983E+02 0.  0.
          6    2    1    2  501    0  0.96488311410E+02  0.93895427295E+02 -0.15060498338E+03  0.26363451294E+03  0.16939583787E+03 0.  0.
         24    2    5    5    0    0  0.84554526072E+02 -0.48177886260E+01 -0.83714472050E+02  0.14370476377E+03  0.80437971963E+02 0.  0.
          5    1    5    5  501    0  0.11933785338E+02  0.98713215921E+02 -0.66890511334E+02  0.11992974917E+03  0.47000000000E+01 0. -1.
        -13    1    6    6    0    0  0.82001877025E+02  0.23770891025E+02 -0.75180346656E+02  0.11376048356E+03  0.00000000000E+00 0.  1.
         14    1    6    6    0    0  0.25526490477E+01 -0.28588679651E+02 -0.85341253936E+01  0.29944280215E+02  0.00000000000E+00 0. -1.
         -5    1    3    3    0  503 -0.58888225031E+02 -0.31680309722E+02  0.37767193032E+02  0.76940989992E+02  0.47000000000E+01 0.  1.
         11    1    4    4    0    0 -0.22009077924E+02  0.15615838581E+02 -0.21039441114E+02  0.34218591556E+02  0.00000000000E+00 0. -1.
        -12    1    4    4    0    0 -0.15591008456E+02 -0.77830956153E+02 -0.84886207871E+02  0.11621706229E+03  0.00000000000E+00 0.  1.
</event>
<event>
12    1  0.9966151E-001  0.2315596E+03  0.7818608E-02  0.1125623E+00
         21   -1    0    0  503  502  0.00000000000E+00  0.00000000000E+00  0.35508881155E+02  0.35508881155E+02  0.00000000000E+00 0.  1.
         21   -1    0    0  501  503 -0.00000000000E+00 -0.00000000000E+00 -0.16066276851E+04  0.16066276851E+04  0.00000000000E+00 0.  1.
          6    2    1    2  501    0  0.15116364333E+03 -0.31911224727E+02 -0.58200703474E+03  0.62638009011E+03  0.17248494274E+03 0.  0.
         24    2    3    3    0    0  0.12174660963E+03 -0.74931352922E+02 -0.52023338325E+03  0.54542227814E+03  0.80035890881E+02 0.  0.
         -6    2    1    2    0  502 -0.15116364333E+03  0.31911224727E+02 -0.98911176920E+03  0.10157564761E+04  0.17190216265E+03 0.  0.
        -24    2    5    5    0    0 -0.13383036944E+03 -0.54241828102E+01 -0.93397889952E+03  0.94679200442E+03  0.78476272558E+02 0.  0.
          5    1    3    3  501    0  0.29417033697E+02  0.43020128195E+02 -0.61773651484E+02  0.80957811970E+02  0.47000000000E+01 0. -1.
        -13    1    4    4    0    0  0.13814422135E+01 -0.33913606166E+02 -0.15537897198E+03  0.15904296904E+03  0.00000000000E+00 0.  1.
         14    1    4    4    0    0  0.12036516742E+03 -0.41017746756E+02 -0.36485441127E+03  0.38637930910E+03  0.00000000000E+00 0. -1.
         -5    1    5    5    0  502 -0.17333273888E+02  0.37335407537E+02 -0.55132869685E+02  0.68964471718E+02  0.47000000000E+01 0.  1.
         13    1    6    6    0    0 -0.66697408436E+02  0.22146560352E+02 -0.64590218084E+03  0.64971427692E+03  0.00000000000E+00 0. -1.
        -14    1    6    6    0    0 -0.67132961005E+02 -0.27570743162E+02 -0.28807671868E+03  0.29707772750E+03  0.00000000000E+00 0.  1.
</event>
<event>
12    1  0.9966151E-001  0.2705117E+03  0.7818608E-02  0.1101166E+00
         21   -1    0    0  501  502  0.00000000000E+00  0.00000000000E+00  0.45198092783E+03  0.45198092783E+03  0.00000000000E+00 0.  1.
         21   -1    0    0  502  503 -0.00000000000E+00 -0.00000000000E+00 -0.18144700803E+03  0.18144700803E+03  0.00000000000E+00 0.  1.
         -6    2    1    2    0  503 -0.33154726015E+02 -0.20463974784E+03  0.29632273298E+02  0.27212981125E+03  0.17378118511E+03 0.  0.
        -24    2    3    3    0    0 -0.10568710305E+02 -0.25345273950E+02 -0.25453522086E+02  0.83150523165E+02  0.74243162425E+02 0.  0.
          6    2    1    2  501    0  0.33154726015E+02  0.20463974784E+03  0.24090164650E+03  0.36129812461E+03  0.17183151431E+03 0.  0.
         24    2    5    5    0    0  0.21561906743E+02  0.20280165551E+03  0.25892407202E+03  0.33928290570E+03  0.80484704926E+02 0.  0.
          5    1    5    5  501    0  0.11592819271E+02  0.18380923262E+01 -0.18022425521E+02  0.22015218912E+02  0.47000000000E+01 0. -1.
        -11    1    6    6    0    0 -0.19681804803E+02  0.15556290154E+02  0.15783950982E+02  0.29639580163E+02  0.00000000000E+00 0.  1.
         12    1    6    6    0    0  0.41243711546E+02  0.18724536536E+03  0.24314012104E+03  0.30964332554E+03  0.00000000000E+00 0. -1.
         -5    1    3    3    0  503 -0.22586015709E+02 -0.17929447389E+03  0.55085795384E+02  0.18897928809E+03  0.47000000000E+01 0.  1.
         13    1    4    4    0    0 -0.80025754083E+01 -0.18485687317E+02  0.25035466606E+02  0.32133105000E+02  0.00000000000E+00 0. -1.
        -14    1    4    4    0    0 -0.25661348970E+01 -0.68595866331E+01 -0.50488988692E+02  0.51017418165E+02  0.00000000000E+00 0.  1.
</event>
<event>
12    1  0.9966151E-001  0.2000256E+03  0.7818608E-02  0.1150042E+00
         21   -1    0    0  501  502  0.00000000000E+00  0.00000000000E+00  0.52399397225E+03  0.52399397225E+03  0.00000000000E+00 0. -1.
         21   -1    0    0  502  503 -0.00000000000E+00 -0.00000000000E+00 -0.76941475796E+02  0.76941475796E+02  0.00000000000E+00 0. -1.
         -6    2    1    2    0  503  0.10168810477E+03 -0.19827903940E+02  0.18562533324E+03  0.27176312928E+03  0.16930687425E+03 0.  0.
        -24    2    3    3    0    0  0.11277255890E+03 -0.63211245109E+02  0.13715880387E+03  0.20561122920E+03  0.82159165932E+02 0.  0.
          6    2    1    2  501    0 -0.10168810477E+03  0.19827903940E+02  0.26142716321E+03  0.32917231876E+03  0.17110417105E+03 0.  0.
         24    2    5    5    0    0 -0.24661460975E+02  0.43790541012E+02  0.21749883909E+03  0.23719895583E+03  0.80198506835E+02 0.  0.
          5    1    5    5  501    0 -0.77026643797E+02 -0.23962637072E+02  0.43928324114E+02  0.91973362934E+02  0.47000000000E+01 0. -1.
        -13    1    6    6    0    0 -0.36618017931E+02  0.42942113453E+02  0.21801532478E+03  0.22520121266E+03  0.00000000000E+00 0.  1.
         14    1    6    6    0    0  0.11956556955E+02  0.84842755867E+00 -0.51648568887E+00  0.11997743163E+02  0.00000000000E+00 0. -1.
         -5    1    3    3    0  503 -0.11084454129E+02  0.43383341169E+02  0.48466529378E+02  0.66151900081E+02  0.47000000000E+01 0.  1.
         11    1    4    4    0    0  0.23381399652E+02  0.65138268439E+01  0.69434712597E+02  0.73554735424E+02  0.00000000000E+00 0. -1.
        -12    1    4    4    0    0  0.89391159249E+02 -0.69725071953E+02  0.67724091268E+02  0.13205649378E+03  0.00000000000E+00 0.  1.
</event>
<event>
12    1  0.9966151E-001  0.2234097E+03  0.7818608E-02  0.1131400E+00
         21   -1    0    0  503  502  0.00000000000E+00  0.00000000000E+00  0.22272706181E+03  0.22272706181E+03  0.00000000000E+00 0.  1.
         21   -1    0    0  501  503 -0.00000000000E+00 -0.00000000000E+00 -0.26519038783E+03  0.26519038783E+03  0.00000000000E+00 0.  1.
          6    2    1    2  501    0  0.50322324605E+02  0.13410818179E+03  0.75030514365E+02  0.23549574524E+03  0.17120551148E+03 0.  0.
         24    2    3    3    0    0 -0.22068971383E+02  0.90375518597E+02  0.88859346330E+02  0.14966817299E+03  0.76484016076E+02 0.  0.
         -6    2    1    2    0  502 -0.50322324605E+02 -0.13410818179E+03 -0.11749384038E+03  0.25242170441E+03  0.17144845742E+03 0.  0.
        -24    2    5    5    0    0 -0.29714986703E+02 -0.15209247199E+03 -0.13414922868E+03  0.22005522439E+03  0.80082368547E+02 0.  0.
          5    1    3    3  501    0  0.72391295988E+02  0.43732663197E+02 -0.13828831965E+02  0.85827572252E+02  0.47000000000E+01 0. -1.
        -11    1    4    4    0    0 -0.13092274278E+02  0.79157038687E+02  0.10228905348E+03  0.13000113415E+03  0.00000000000E+00 0.  1.
         12    1    4    4    0    0 -0.89766971049E+01  0.11218479910E+02 -0.13429707148E+02  0.19667038833E+02  0.00000000000E+00 0. -1.
         -5    1    5    5    0  502 -0.20607337901E+02  0.17984290200E+02  0.16655388301E+02  0.32366480019E+02  0.47000000000E+01 0.  1.
         13    1    6    6    0    0  0.45891614337E+01 -0.13294865805E+02  0.98207249433E+01  0.17154022789E+02  0.00000000000E+00 0. -1.
        -14    1    6    6    0    0 -0.34304148137E+02 -0.13879760619E+03 -0.14396995362E+03  0.20290120160E+03  0.00000000000E+00 0.  1.
</event>
<event>
12    1  0.9966151E-001  0.1992347E+03  0.7818608E-02  0.1150531E+00
         21   -1    0    0  501  502  0.00000000000E+00  0.00000000000E+00  0.14262840714E+04  0.14262840714E+04  0.00000000000E+00 0.  1.
         21   -1    0    0  502  503 -0.00000000000E+00 -0.00000000000E+00 -0.29355746529E+02  0.29355746529E+02  0.00000000000E+00 0.  1.
         -6    2    1    2    0  503 -0.97468809111E+02  0.20852194101E+02  0.52636760913E+03  0.56257184325E+03  0.17172430269E+03 0.  0.
        -24    2    3    3    0    0 -0.23557934993E+02  0.16944087595E+02  0.10157393038E+03  0.13135281525E+03  0.78065487477E+02 0.  0.
          6    2    1    2  501    0  0.97468809111E+02 -0.20852194101E+02  0.87056071578E+03  0.89306797471E+03  0.17250931816E+03 0.  0.
         24    2    5    5    0    0 -0.19737910370E+02  0.11323757432E+02  0.37243515007E+03  0.38030694249E+03  0.73536500551E+02 0.  0.
          5    1    5    5  501    0  0.11720671948E+03 -0.32175951534E+02  0.49812556571E+03  0.51276103222E+03  0.47000000000E+01 0. -1.
        -13    1    6    6    0    0  0.88022955800E+00 -0.17594699834E+02  0.29014892929E+03  0.29068324587E+03  0.00000000000E+00 0.  1.
         14    1    6    6    0    0 -0.20618139928E+02  0.28918457267E+02  0.82286220780E+02  0.89623696616E+02  0.00000000000E+00 0. -1.
         -5    1    3    3    0  503 -0.73910874118E+02  0.39081065060E+01  0.42479367875E+03  0.43121902801E+03  0.47000000000E+01 0.  1.
         11    1    4    4    0    0 -0.31795020994E+02  0.34360574103E+02  0.10184027174E+03  0.11208484893E+03  0.00000000000E+00 0. -1.
        -12    1    4    4    0    0  0.82370860006E+01 -0.17416486508E+02 -0.26634136147E+00  0.19267966312E+02  0.00000000000E+00 0.  1.
</event>
<event>
12    1  0.9966151E-001  0.2314746E+03  0.7818608E-02  0.1125894E+00
         21   -1    0    0  503  502  0.00000000000E+00  0.00000000000E+00  0.78550900867E+02  0.78550900867E+02  0.00000000000E+00 0.  1.
         21   -1    0    0  501  503 -0.00000000000E+00 -0.00000000000E+00 -0.68568635290E+03  0.68568635290E+03  0.00000000000E+00 0.  1.
          6    2    1    2  501    0  0.15118394867E+01  0.15198058049E+03 -0.34479938701E+03  0.41437916603E+03  0.17240386728E+03 0.  0.
         24    2    3    3    0    0 -0.59402374392E+02  0.10492427953E+03 -0.24844575020E+03  0.29096543001E+03  0.91639752013E+02 0.  0.
         -6    2    1    2    0  502 -0.15118394867E+01 -0.15198058049E+03 -0.26233606502E+03  0.34985808774E+03  0.17458547488E+03 0.  0.
        -24    2    5    5    0    0  0.68186467646E+02 -0.10125950173E+03 -0.15059289865E+03  0.20865218461E+03  0.77166261781E+02 0.  0.
          5    1    3    3  501    0  0.60914213879E+02  0.47056300955E+02 -0.96353636818E+02  0.12341373603E+03  0.47000000000E+01 0. -1.
        -11    1    4    4    0    0  0.76808385935E+01  0.55813499012E+02 -0.48191552924E+02  0.74138840877E+02  0.00000000000E+00 0.  1.
         12    1    4    4    0    0 -0.67083212986E+02  0.49110780522E+02 -0.20025419727E+03  0.21682658913E+03  0.00000000000E+00 0. -1.
         -5    1    5    5    0  502 -0.69698307133E+02 -0.50721078757E+02 -0.11174316637E+03  0.14120590313E+03  0.47000000000E+01 0.  1.
         11    1    6    6    0    0  0.36725253766E+02 -0.98478233976E+02 -0.82582885897E+02  0.13366615082E+03  0.00000000000E+00 0. -1.
        -12    1    6    6    0    0  0.31461213880E+02 -0.27812677561E+01 -0.68010012754E+02  0.74986033793E+02  0.00000000000E+00 0.  1.
</event>
<event>
12    1  0.9966151E-001  0.2848369E+03  0.7818608E-02  0.1094593E+00
         21   -1    0    0  501  502  0.00000000000E+00  0.00000000000E+00  0.95870656598E+03  0.95870656598E+03  0.00000000000E+00 0. -1.
         21   -1    0    0  502  503 -0.00000000000E+00 -0.00000000000E+00 -0.16819349311E+03  0.16819349311E+03  0.00000000000E+00 0.  1.
         -6    2    1    2    0  503  0.10723926027E+03 -0.18403207406E+03  0.79627158335E+03  0.84200492273E+03  0.17191798107E+03 0.  0.
        -24    2    3    3    0    0  0.12173568849E+03 -0.19233301160E+03  0.77626555468E+03  0.81552128290E+03  0.10332079306E+03 0.  0.
          6    2    1    2  501    0 -0.10723926027E+03  0.18403207406E+03 -0.57585104774E+01  0.28489513636E+03  0.18911376219E+03 0.  0.
         24    2    5    5    0    0 -0.51937171048E+02  0.10432327972E+03  0.71922819264E+02  0.16052354813E+03  0.83750230720E+02 0.  0.
          5    1    5    5  501    0 -0.55302089221E+02  0.79708794340E+02 -0.77681329741E+02  0.12437158823E+03  0.47000000000E+01 0. -1.
        -13    1    6    6    0    0 -0.24016869255E+02  0.64344716770E+01 -0.12909847332E+02  0.28015649068E+02  0.00000000000E+00 0.  1.
         14    1    6    6    0    0 -0.27920301793E+02  0.97888808046E+02  0.84832666595E+02  0.13250789906E+03  0.00000000000E+00 0. -1.
         -5    1    3    3    0  503 -0.14496428220E+02  0.83009375392E+01  0.20006028667E+02  0.26483639822E+02  0.47000000000E+01 0.  1.
         11    1    4    4    0    0  0.96394522031E+02 -0.90187198100E+02  0.29987077917E+03  0.32764022765E+03  0.00000000000E+00 0. -1.
        -12    1    4    4    0    0  0.25341166459E+02 -0.10214581350E+03  0.47639477552E+03  0.48788105525E+03  0.00000000000E+00 0.  1.
</event>
<event>
12    1  0.9966151E-001  0.3318573E+03  0.7818608E-02  0.1070365E+00
         21   -1    0    0  501  502  0.00000000000E+00  0.00000000000E+00  0.69481546001E+03  0.69481546001E+03  0.00000000000E+00 0. -1.
         21   -1    0    0  502  503 -0.00000000000E+00 -0.00000000000E+00 -0.17219989392E+03  0.17219989392E+03  0.00000000000E+00 0. -1.
         -6    2    1    2    0  503  0.20599492234E+03 -0.19548664139E+03  0.38432668342E+03  0.50749750156E+03  0.17087357758E+03 0.  0.
        -24    2    3    3    0    0  0.13990049243E+03 -0.12138566815E+03  0.34679986646E+03  0.40124412566E+03  0.80125356682E+02 0.  0.
          6    2    1    2  501    0 -0.20599492234E+03  0.19548664139E+03  0.13828888266E+03  0.35951785236E+03  0.17169838703E+03 0.  0.
         24    2    5    5    0    0 -0.22333506398E+03  0.17289956284E+03  0.94681728723E+02  0.30722511382E+03  0.75165358880E+02 0.  0.
          5    1    5    5  501    0  0.17340141641E+02  0.22587078552E+02  0.43607153940E+02  0.52292738543E+02  0.47000000000E+01 0. -1.
        -13    1    6    6    0    0 -0.14246510632E+03  0.64586881857E+02  0.61198884963E+02  0.16796748301E+03  0.00000000000E+00 0.  1.
         14    1    6    6    0    0 -0.80869957655E+02  0.10831268098E+03  0.33482843760E+02  0.13925763081E+03  0.00000000000E+00 0. -1.
         -5    1    3    3    0  503  0.66094429908E+02 -0.74100973239E+02  0.37526816956E+02  0.10625337590E+03  0.47000000000E+01 0.  1.
         11    1    4    4    0    0  0.85284905907E+02 -0.11888125474E+03  0.23565006548E+03  0.27737559602E+03  0.00000000000E+00 0. -1.
        -12    1    4    4    0    0  0.54615586522E+02 -0.25044134107E+01  0.11114980098E+03  0.12386852964E+03  0.00000000000E+00 0.  1.
</event>
<event>
12    1  0.9966151E-001  0.1996121E+03  0.7818608E-02  0.1150348E+00
         21   -1    0    0  503  502  0.00000000000E+00  0.00000000000E+00  0.75074997049E+02  0.75074997049E+02  0.00000000000E+00 0. -1.
         21   -1    0    0  501  503 -0.00000000000E+00 -0.00000000000E+00 -0.72906535163E+03  0.72906535163E+03  0.00000000000E+00 0. -1.
          6    2    1    2  501    0 -0.91938269711E+02  0.33001049849E+02 -0.53934334551E+03  0.57509671986E+03  0.17407836775E+03 0.  0.
         24    2    3    3    0    0 -0.67090671751E+02  0.90216253433E+00 -0.51941114451E+03  0.52963108088E+03  0.78861731266E+02 0.  0.
         -6    2    1    2    0  502  0.91938269711E+02 -0.33001049849E+02 -0.11464700907E+03  0.22904362882E+03  0.17255530269E+03 0.  0.
        -24    2    5    5    0    0  0.32006835752E+01 -0.65821720697E+02 -0.57464791947E+02  0.11839349740E+03  0.79825275586E+02 0.  0.
          5    1    3    3  501    0 -0.24847597961E+02  0.32098887315E+02 -0.19932201001E+02  0.45465638982E+02  0.47000000000E+01 0. -1.
        -11    1    4    4    0    0 -0.80553611070E+02 -0.94250819295E+01 -0.34537668397E+03  0.35477143382E+03  0.00000000000E+00 0.  1.
         12    1    4    4    0    0  0.13462939320E+02  0.10327244464E+02 -0.17403446054E+03  0.17485964706E+03  0.00000000000E+00 0. -1.
         -5    1    5    5    0  502  0.88737586136E+02  0.32820670848E+02 -0.57182217128E+02  0.11065013142E+03  0.47000000000E+01 0.  1.
         11    1    6    6    0    0  0.17006009847E+02 -0.80872070920E+02 -0.50327429603E+02  0.96759218663E+02  0.00000000000E+00 0. -1.
        -12    1    6    6    0    0 -0.13805326271E+02  0.15050350223E+02 -0.71373623435E+01  0.21634278738E+02  0.00000000000E+00 0.  1.
</event>
<event>
12    1  0.9966151E-001  0.1811988E+03  0.7818608E-02  0.1166655E+00
         21   -1    0    0  503  502  0.00000000000E+00  0.00000000000E+00  0.37562689824E+03  0.37562689824E+03  0.00000000000E+00 0.  1.
         21   -1    0    0  501  503 -0.00000000000E+00 -0.00000000000E+00 -0.10808244508E+03  0.10808244508E+03  0.00000000000E+00 0.  1.
          6    2    1    2  501    0 -0.54381646338E+02  0.20294220915E+02  0.27949358884E+02  0.18331157431E+03  0.17161802864E+03 0.  0.
         24    2    3    3    0    0  0.19569668634E+01 -0.42266369691E+01  0.74458310237E+02  0.10610740108E+03  0.75452279096E+02 0.  0.
         -6    2    1    2    0  502  0.54381646338E+02 -0.20294220915E+02  0.23959509428E+03  0.30039776901E+03  0.17165020117E+03 0.  0.
        -24    2    5    5    0    0 -0.77972003224E+01  0.27905480587E+02  0.19236639569E+03  0.20851708460E+03  0.75066851538E+02 0.  0.
          5    1    3    3  501    0 -0.56338613202E+02  0.24520857884E+02 -0.46508951353E+02  0.77204173234E+02  0.47000000000E+01 0. -1.
        -11    1    4    4    0    0 -0.36348649654E+02 -0.73751978495E+01  0.38878270842E+02  0.53732093005E+02  0.00000000000E+00 0.  1.
         12    1    4    4    0    0  0.38305616518E+02  0.31485608804E+01  0.35580039395E+02  0.52375308073E+02  0.00000000000E+00 0. -1.
         -5    1    5    5    0  502  0.62178846661E+02 -0.48199701502E+02  0.47228698586E+02  0.91880684407E+02  0.47000000000E+01 0.  1.
         11    1    6    6    0    0  0.15192692445E+02  0.30010004371E+02  0.17838243202E+03  0.18152605962E+03  0.00000000000E+00 0. -1.
        -12    1    6    6    0    0 -0.22989892768E+02 -0.21045237844E+01  0.13983963670E+02  0.26991024985E+02  0.00000000000E+00 0.  1.
</event>
<event>
12    1  0.9966151E-001  0.1845029E+03  0.7818608E-02  0.1163685E+00
         21   -1    0    0  503  502  0.00000000000E+00  0.00000000000E+00  0.20595505235E+04  0.20595505235E+04  0.00000000000E+00 0.  1.
         21   -1    0    0  501  503 -0.00000000000E+00 -0.00000000000E+00 -0.18985052815E+02  0.18985052815E+02  0.00000000000E+00 0.  1.
          6    2    1    2  501    0  0.41910528188E+02 -0.53129327664E+02  0.13972722609E+04  0.14093065605E+04  0.17086834857E+03 0.  0.
         24    2    3    3    0    0  0.77384364060E+00  0.27830006594E+02  0.88157531317E+03  0.88565393469E+03  0.80204433371E+02 0.  0.
         -6    2    1    2    0  502 -0.41910528188E+02  0.53129327663E+02  0.64329320979E+03  0.66922901583E+03  0.17164528549E+03 0.  0.
        -24    2    5    5    0    0 -0.79983746661E+02  0.77306851931E+02  0.44009801970E+03  0.46103560114E+03  0.80584176393E+02 0.  0.
          5    1    3    3  501    0  0.41136684547E+02 -0.80959334257E+02  0.51569694772E+03  0.52365262580E+03  0.47000000000E+01 0. -1.
        -11    1    4    4    0    0 -0.63440198547E+01  0.50344316220E+01  0.68630033816E+01  0.10615691456E+02  0.00000000000E+00 0.  1.
         12    1    4    4    0    0  0.71178634953E+01  0.22795574972E+02  0.87471230979E+03  0.87503824323E+03  0.00000000000E+00 0. -1.
         -5    1    5    5    0  502  0.38073218472E+02 -0.24177524268E+02  0.20319519009E+03  0.20819341469E+03  0.47000000000E+01 0.  1.
         13    1    6    6    0    0 -0.71552293717E+02  0.36211595860E+02  0.37580777581E+03  0.38426877933E+03  0.00000000000E+00 0. -1.
        -14    1    6    6    0    0 -0.84314529437E+01  0.41095256071E+02  0.64290243896E+02  0.76766821808E+02  0.00000000000E+00 0.  1.
</event>
<event>
12    1  0.9966151E-001  0.3030302E+03  0.7818608E-02  0.1083933E+00
         21   -1    0    0  503  502  0.00000000000E+00  0.00000000000E+00  0.33692872758E+03  0.33692872758E+03  0.00000000000E+00 0.  1.
         21   -1    0    0  501  503 -0.00000000000E+00 -0.00000000000E+00 -0.64584715654E+03  0.64584715654E+03  0.00000000000E+00 0.  1.
          6    2    1    2  501    0 -0.24470317639E+03  0.45553045082E+02 -0.52859110382E+03  0.60849869587E+03  0.17002171446E+03 0.  0.
         24    2    3    3    0    0 -0.10113783726E+03  0.75519721960E+02 -0.20572470591E+03  0.25385266217E+03  0.78653855196E+02 0.  0.
         -6    2    1    2    0  502  0.24470317639E+03 -0.45553045082E+02  0.21967267486E+03  0.37427718824E+03  0.17283693214E+03 0.  0.
        -24    2    5    5    0    0  0.24073007995E+03 -0.80102110945E+02  0.17703076969E+03  0.31905178174E+03  0.78018116135E+02 0.  0.
          5    1    3    3  501    0 -0.14356533913E+03 -0.29966676877E+02 -0.32286639791E+03  0.35464603370E+03  0.47000000000E+01 0. -1.
        -13    1    4    4    0    0  0.13338513738E+02  0.50601756816E+01 -0.18166770752E+02  0.23098763738E+02  0.00000000000E+00 0.  1.
         14    1    4    4    0    0 -0.11447635100E+03  0.70459546278E+02 -0.18755793516E+03  0.23075389843E+03  0.00000000000E+00 0. -1.
         -5    1    5    5    0  502  0.39730964403E+01  0.34549065863E+02  0.42641905171E+02  0.55225406508E+02  0.47000000000E+01 0.  1.
         11    1    6    6    0    0  0.15839464081E+03 -0.23841929970E+02  0.13980347029E+03  0.21260834924E+03  0.00000000000E+00 0. -1.
        -12    1    6    6    0    0  0.82335439135E+02 -0.56260180976E+02  0.37227299396E+02  0.10644343249E+03  0.00000000000E+00 0.  1.
</event>
<event>
12    1  0.9966151E-001  0.2154311E+03  0.7818608E-02  0.1137354E+00
         21   -1    0    0  503  502  0.00000000000E+00  0.00000000000E+00  0.17733193683E+03  0.17733193683E+03  0.00000000000E+00 0.  1.
         21   -1    0    0  501  503 -0.00000000000E+00 -0.00000000000E+00 -0.31466154099E+03  0.31466154099E+03  0.00000000000E+00 0.  1.
          6    2    1    2  501    0  0.12755574022E+03  0.24584304500E+02  0.32364980786E+02  0.21775489617E+03  0.17174064147E+03 0.  0.
         24    2    3    3    0    0  0.84923292693E+02 -0.69709039860E+01  0.83087237638E+02  0.14421515110E+03  0.81449135072E+02 0.  0.
         -6    2    1    2    0  502 -0.12755574022E+03 -0.24584304500E+02 -0.16969458494E+03  0.27423858165E+03  0.17185951419E+03 0.  0.
        -24    2    5    5    0    0 -0.14534907110E+03 -0.58260513236E+02 -0.14977148056E+03  0.23099844119E+03  0.80050881135E+02 0.  0.
          5    1    3    3  501    0  0.42632447524E+02  0.31555208486E+02 -0.50722256853E+02  0.73539745069E+02  0.47000000000E+01 0. -1.
        -11    1    4    4    0    0 -0.71862607197E+01  0.66515943201E+01  0.40786392069E+02  0.41945391024E+02  0.00000000000E+00 0.  1.
         12    1    4    4    0    0  0.92109553413E+02 -0.13622498306E+02  0.42300845570E+02  0.10226976008E+03  0.00000000000E+00 0. -1.
         -5    1    5    5    0  502  0.17793330884E+02  0.33676208735E+02 -0.19923104384E+02  0.43240140460E+02  0.47000000000E+01 0.  1.
         11    1    6    6    0    0 -0.52153204681E+02 -0.30263790231E+02 -0.10664610551E+02  0.61233876865E+02  0.00000000000E+00 0. -1.
        -12    1    6    6    0    0 -0.93195866421E+02 -0.27996723005E+02 -0.13910687001E+03  0.16976456433E+03  0.00000000000E+00 0.  1.
</event>
<event>
12    1  0.9966151E-001  0.1974674E+03  0.7818608E-02  0.1152135E+00
         21   -1    0    0  503  502  0.00000000000E+00  0.00000000000E+00  0.43088276005E+03  0.43088276005E+03  0.00000000000E+00 0.  1.
         21   -1    0    0  501  503 -0.00000000000E+00 -0.00000000000E+00 -0.12024338627E+03  0.12024338627E+03  0.00000000000E+00 0.  1.
          6    2    1    2  501    0 -0.66483761315E+02  0.71166328395E+02  0.17413175464E+02  0.19823372927E+03  0.17178083689E+03 0.  0.
         24    2    3    3    0    0 -0.53069881090E+02  0.92480811696E+02  0.61996543740E+02  0.14681382934E+03  0.79634265489E+02 0.  0.
         -6    2    1    2    0  502  0.66483761315E+02 -0.71166328395E+02  0.29322619831E+03  0.35289241706E+03  0.17048964139E+03 0.  0.
        -24    2    5    5    0    0  0.82300923021E+02 -0.77888507161E+02  0.30228248756E+03  0.33290550467E+03  0.81309970359E+02 0.  0.
          5    1    3    3  501    0 -0.13413880225E+02 -0.21314483301E+02 -0.44583368276E+02  0.51419899922E+02  0.47000000000E+01 0. -1.
        -13    1    4    4    0    0 -0.69124073806E+01 -0.12457334086E+02 -0.36514217917E+01  0.14707121725E+02  0.00000000000E+00 0.  1.
         14    1    4    4    0    0 -0.46157473709E+02  0.10493814578E+03  0.65647965532E+02  0.13210670762E+03  0.00000000000E+00 0. -1.
         -5    1    5    5    0  502 -0.15817161706E+02  0.67221787656E+01 -0.90562892421E+01  0.19986912384E+02  0.47000000000E+01 0.  1.
         13    1    6    6    0    0  0.74399200555E+01 -0.45665565514E+01 -0.36972556110E+01  0.94802715268E+01  0.00000000000E+00 0. -1.
        -14    1    6    6    0    0  0.74861002966E+02 -0.73321950609E+02  0.30597974317E+03  0.32342523315E+03  0.00000000000E+00 0.  1.
</event>
<event>
12    1  0.9966151E-001  0.2463475E+03  0.7818608E-02  0.1115683E+00
         21   -1    0    0  503  502  0.00000000000E+00  0.00000000000E+00  0.27627480775E+03  0.27627480775E+03  0.00000000000E+00 0.  1.
         21   -1    0    0  501  503 -0.00000000000E+00 -0.00000000000E+00 -0.27130806590E+03  0.27130806590E+03  0.00000000000E+00 0.  1.
          6    2    1    2  501    0 -0.16359731339E+03 -0.66073345301E+02 -0.11728283553E+03  0.27257001985E+03  0.17149164500E+03 0.  0.
         24    2    3    3    0    0 -0.11425303654E+03  0.14859302833E+02 -0.10717147214E+03  0.17712746718E+03  0.81325641399E+02 0.  0.
         -6    2    1    2    0  502  0.16359731339E+03  0.66073345301E+02  0.12224957738E+03  0.27501285380E+03  0.17192249032E+03 0.  0.
        -24    2    5    5    0    0  0.73280428523E+02  0.93819443466E+02  0.38364804096E+02  0.14857816377E+03  0.80196654409E+02 0.  0.
          5    1    3    3  501    0 -0.49344276843E+02 -0.80932648134E+02 -0.10111363394E+02  0.95442552673E+02  0.47000000000E+01 0. -1.
        -13    1    4    4    0    0 -0.13170430163E+02  0.10714341997E+02  0.12010599414E+02  0.20796919325E+02  0.00000000000E+00 0.  1.
         14    1    4    4    0    0 -0.10108260638E+03  0.41449608367E+01 -0.11918207155E+03  0.15633054786E+03  0.00000000000E+00 0. -1.
         -5    1    5    5    0  502  0.90316884865E+02 -0.27746098165E+02  0.83884773282E+02  0.12643469003E+03  0.47000000000E+01 0.  1.
         11    1    6    6    0    0  0.55007837140E+01  0.37907012582E+01 -0.20413788338E+02  0.21479078002E+02  0.00000000000E+00 0. -1.
        -12    1    6    6    0    0  0.67779644809E+02  0.90028742208E+02  0.58778592434E+02  0.12709908577E+03  0.00000000000E+00 0.  1.
</event>
<event>
12    1  0.9966151E-001  0.2071874E+03  0.7818608E-02  0.1144221E+00
         21   -1    0    0  503  502  0.00000000000E+00  0.00000000000E+00  0.83898435423E+02  0.83898435423E+02  0.00000000000E+00 0.  1.
         21   -1    0    0  501  503 -0.00000000000E+00 -0.00000000000E+00 -0.53198233707E+03  0.53198233707E+03  0.00000000000E+00 0.  1.
          6    2    1    2  501    0 -0.32399703953E+02 -0.10755707050E+03 -0.15792984520E+03  0.26051575090E+03  0.17409295285E+03 0.  0.
         24    2    3    3    0    0 -0.68272871659E+02 -0.52351947297E+02 -0.15382569769E+03  0.19438388403E+03  0.81980715474E+02 0.  0.
         -6    2    1    2    0  502  0.32399703953E+02  0.10755707050E+03 -0.29015405645E+03  0.35536502160E+03  0.17168767536E+03 0.  0.
        -24    2    5    5    0    0 -0.41981468926E+02  0.34688496596E+02 -0.16862694164E+03  0.19526093803E+03  0.82012517001E+02 0.  0.
          5    1    3    3  501    0  0.35873167706E+02 -0.55205123201E+02 -0.41041475125E+01  0.66131866870E+02  0.47000000000E+01 0. -1.
        -11    1    4    4    0    0 -0.82739954084E+02 -0.58290496592E+02 -0.11907921900E+03  0.15628033271E+03  0.00000000000E+00 0.  1.
         12    1    4    4    0    0  0.14467082425E+02  0.59385492947E+01 -0.34746478690E+02  0.38103551317E+02  0.00000000000E+00 0. -1.
         -5    1    5    5    0  502  0.74381172879E+02  0.72868573902E+02 -0.12152711481E+03  0.16010408357E+03  0.47000000000E+01 0.  1.
         13    1    6    6    0    0 -0.60418707805E+02  0.37596776858E+02 -0.15913422897E+03  0.17432051145E+03  0.00000000000E+00 0. -1.
        -14    1    6    6    0    0  0.18437238879E+02 -0.29082802617E+01 -0.94927126723E+01  0.20940426582E+02  0.00000000000E+00 0.  1.
</event>
<event>
12    1  0.9966151E-001  0.1906896E+03  0.7818608E-02  0.1157917E+00
         21   -1    0    0  503  502  0.00000000000E+00  0.00000000000E+00  0.14062131958E+03  0.14062131958E+03  0.00000000000E+00 0.  1.
         21   -1    0    0  501  503 -0.00000000000E+00 -0.00000000000E+00 -0.30417598076E+03  0.30417598076E+03  0.00000000000E+00 0.  1.
          6    2    1    2  501    0 -0.78158866818E+02  0.15966674166E+02  0.48163543052E+01  0.19041311573E+03  0.17283001541E+03 0.  0.
         24    2    3    3    0    0 -0.11118800427E+03  0.20023701422E+02 -0.29126258807E+02  0.14264728719E+03  0.82074287556E+02 0.  0.
         -6    2    1    2    0  502  0.78158866818E+02 -0.15966674166E+02 -0.16837101549E+03  0.25438418461E+03  0.17320153399E+03 0.  0.
        -24    2    5    5    0    0  0.99947168561E+02 -0.36731813870E+02 -0.67004574817E+02  0.14853917332E+03  0.78965880680E+02 0.  0.
          5    1    3    3  501    0  0.33029137455E+02 -0.40570272561E+01  0.33942613112E+02  0.47765828539E+02  0.47000000000E+01 0. -1.
        -11    1    4    4    0    0 -0.47163773387E+02 -0.32125792390E+02 -0.12191085638E+02  0.58353325748E+02  0.00000000000E+00 0.  1.
         12    1    4    4    0    0 -0.64024230886E+02  0.52149493812E+02 -0.16935173169E+02  0.84293961442E+02  0.00000000000E+00 0. -1.
         -5    1    5    5    0  502 -0.21788301744E+02  0.20765139704E+02 -0.10136644067E+03  0.10584501129E+03  0.47000000000E+01 0.  1.
         11    1    6    6    0    0  0.27190250749E+02 -0.41823566807E+02 -0.55632948988E+02  0.74723125532E+02  0.00000000000E+00 0. -1.
        -12    1    6    6    0    0  0.72756917812E+02  0.50917529371E+01 -0.11371625830E+02  0.73816047791E+02  0.00000000000E+00 0.  1.
</event>
<event>
12    1  0.9966151E-001  0.3316966E+03  0.7818608E-02  0.1070548E+00
         21   -1    0    0  501  502  0.00000000000E+00  0.00000000000E+00  0.16690833761E+04  0.16690833761E+04  0.00000000000E+00 0.  1.
         21   -1    0    0  502  503 -0.00000000000E+00 -0.00000000000E+00 -0.67274852686E+02  0.67274852686E+02  0.00000000000E+00 0.  1.
         -6    2    1    2    0  503  0.32311743620E+02 -0.28192410173E+03  0.66687591995E+03  0.74481283009E+03  0.17174810432E+03 0.  0.
        -24    2    3    3    0    0  0.46986314391E+02 -0.29535880307E+03  0.64150131519E+03  0.71222763722E+03  0.79370860716E+02 0.  0.
          6    2    1    2  501    0 -0.32311743620E+02  0.28192410173E+03  0.93493260342E+03  0.99154539866E+03  0.16893210692E+03 0.  0.
         24    2    5    5    0    0 -0.35996217711E+02  0.15675960554E+03  0.35084683377E+03  0.39416946780E+03  0.80042282342E+02 0.  0.
          5    1    5    5  501    0  0.36844740912E+01  0.12516449619E+03  0.58408576965E+03  0.59737593085E+03  0.47000000000E+01 0. -1.
        -11    1    6    6    0    0 -0.43825073182E+02  0.38376322129E+02  0.14977880270E+03  0.16070802369E+03  0.00000000000E+00 0.  1.
         12    1    6    6    0    0  0.78288554705E+01  0.11838328342E+03  0.20106803107E+03  0.23346144411E+03  0.00000000000E+00 0. -1.
         -5    1    3    3    0  503 -0.14674570771E+02  0.13434701345E+02  0.25374604758E+02  0.32585192867E+02  0.47000000000E+01 0.  1.
         13    1    4    4    0    0  0.44979293047E+02 -0.86684641717E+02  0.16000735516E+03  0.18745590846E+03  0.00000000000E+00 0. -1.
        -14    1    4    4    0    0  0.20070213440E+01 -0.20867416136E+03  0.48149396003E+03  0.52477172876E+03  0.00000000000E+00 0.  1.
</event>
<event>
12    1  0.9966151E-001  0.1815152E+03  0.7818608E-02  0.1166446E+00
         21   -1    0    0  503  502  0.00000000000E+00  0.00000000000E+00  0.34474210782E+02  0.34474210782E+02  0.00000000000E+00 0. -1.
         21   -1    0    0  501  503 -0.00000000000E+00 -0.00000000000E+00 -0.13073210304E+04  0.13073210304E+04  0.00000000000E+00 0. -1.
          6    2    1    2  501    0  0.21198852497E+02 -0.53934160617E+02 -0.28686089227E+03  0.33924050023E+03  0.17157115274E+03 0.  0.
         24    2    3    3    0    0 -0.40861852196E+02  0.12662967431E+02 -0.13792514584E+03  0.16462476469E+03  0.79043820679E+02 0.  0.
         -6    2    1    2    0  502 -0.21198852497E+02  0.53934160617E+02 -0.98598592736E+03  0.10025547410E+04  0.17201591394E+03 0.  0.
        -24    2    5    5    0    0 -0.80497928570E+01 -0.31109658442E+02 -0.65097021987E+03  0.65663139223E+03  0.79811954614E+02 0.  0.
          5    1    3    3  501    0  0.62060704693E+02 -0.66597128047E+02 -0.14893574643E+03  0.17461573553E+03  0.47000000000E+01 0. -1.
        -13    1    4    4    0    0 -0.85131633730E+01  0.32449991089E+02 -0.11614800190E+03  0.12089596444E+03  0.00000000000E+00 0.  1.
         14    1    4    4    0    0 -0.32348688823E+02 -0.19787023658E+02 -0.21777143938E+02  0.43728800257E+02  0.00000000000E+00 0. -1.
         -5    1    5    5    0  502 -0.13149059640E+02  0.85043819059E+02 -0.33501570750E+03  0.34592334873E+03  0.47000000000E+01 0.  1.
         11    1    6    6    0    0  0.34902666597E+02 -0.22181084187E+02 -0.27104947213E+03  0.27418609187E+03  0.00000000000E+00 0. -1.
        -12    1    6    6    0    0 -0.42952459454E+02 -0.89285742548E+01 -0.37992074774E+03  0.38244530037E+03  0.00000000000E+00 0.  1.
</event>
<event>
12    1  0.9966151E-001  0.2013551E+03  0.7818608E-02  0.1148821E+00
         21   -1    0    0  503  502  0.00000000000E+00  0.00000000000E+00  0.54493728950E+02  0.54493728950E+02  0.00000000000E+00 0. -1.
         21   -1    0    0  501  503 -0.00000000000E+00 -0.00000000000E+00 -0.12169530977E+04  0.12169530977E+04  0.00000000000E+00 0. -1.
          6    2    1    2  501    0 -0.10253256158E+03 -0.16469113218E+02 -0.98008766873E+03  0.10005576954E+04  0.17251001590E+03 0.  0.
         24    2    3    3    0    0 -0.62118261773E+02 -0.50366885051E+02 -0.88213993221E+03  0.88921038448E+03  0.78286309840E+02 0.  0.
         -6    2    1    2    0  502  0.10253256158E+03  0.16469113218E+02 -0.18237169999E+03  0.27088913120E+03  0.17128142507E+03 0.  0.
        -24    2    5    5    0    0  0.23737364026E+02  0.49429596814E+02 -0.14812535384E+03  0.17874804992E+03  0.83683913670E+02 0.  0.
          5    1    3    3  501    0 -0.40414299803E+02  0.33897771833E+02 -0.97947736519E+02  0.11134731094E+03  0.47000000000E+01 0. -1.
        -11    1    4    4    0    0 -0.42705660229E+02 -0.52210458577E+02 -0.33500345357E+03  0.34172652707E+03  0.00000000000E+00 0.  1.
         12    1    4    4    0    0 -0.19412601543E+02  0.18435735257E+01 -0.54713647864E+03  0.54748385741E+03  0.00000000000E+00 0. -1.
         -5    1    5    5    0  502  0.78795197549E+02 -0.32960483596E+02 -0.34246346150E+02  0.92141081285E+02  0.47000000000E+01 0.  1.
         13    1    6    6    0    0 -0.29245811657E+02  0.60013456530E+01 -0.61003746992E+02  0.67917529373E+02  0.00000000000E+00 0. -1.
        -14    1    6    6    0    0  0.52983175683E+02  0.43428251161E+02 -0.87121606846E+02  0.11083052054E+03  0.00000000000E+00 0.  1.
</event>
<event>
12    1  0.9966151E-001  0.2048748E+03  0.7818608E-02  0.1146699E+00
         21   -1    0    0  503  502  0.00000000000E+00  0.00000000000E+00  0.34791611388E+03  0.34791611388E+03  0.00000000000E+00 0. -1.
         21   -1    0    0  501  503 -0.00000000000E+00 -0.00000000000E+00 -0.20197960950E+03  0.20197960950E+03  0.00000000000E+00 0. -1.
          6    2    1    2  501    0  0.87497375669E+02 -0.53935937716E+02 -0.10504456596E+03  0.22591242370E+03  0.17157268495E+03 0.  0.
         24    2    3    3    0    0  0.11620782224E+03 -0.76770164856E+02 -0.82526424859E+02  0.18261290465E+03  0.84492283563E+02 0.  0.
         -6    2    1    2    0  502 -0.87497375669E+02  0.53935937716E+02  0.25098107034E+03  0.32398329969E+03  0.17722529357E+03 0.  0.
        -24    2    5    5    0    0  0.14083945934E+01  0.34626382650E+02  0.20380247730E+03  0.22139185489E+03  0.79233412842E+02 0.  0.
          5    1    3    3  501    0 -0.28710446575E+02  0.22834227140E+02 -0.22518141101E+02  0.43299519054E+02  0.47000000000E+01 0. -1.
        -11    1    4    4    0    0  0.66823025193E+02  0.81485107964E+00 -0.55178380454E+02  0.86663916065E+02  0.00000000000E+00 0.  1.
         12    1    4    4    0    0  0.49384797050E+02 -0.77585015936E+02 -0.27348044405E+02  0.95948988584E+02  0.00000000000E+00 0. -1.
         -5    1    5    5    0  502 -0.88905770262E+02  0.19309555066E+02  0.47178593044E+02  0.10259144479E+03  0.47000000000E+01 0.  1.
         13    1    6    6    0    0  0.62160714554E+01  0.59469412621E+02  0.15997424965E+03  0.17078352126E+03  0.00000000000E+00 0. -1.
        -14    1    6    6    0    0 -0.48076768620E+01 -0.24843029971E+02  0.43828227648E+02  0.50608333639E+02  0.00000000000E+00 0.  1.
</event>
<event>
12    1  0.9966151E-001  0.1958854E+03  0.7818608E-02  0.1153664E+00
         21   -1    0    0  503  502  0.00000000000E+00  0.00000000000E+00  0.46053168795E+02  0.46053168795E+02  0.00000000000E+00 0. -1.
         21   -1    0    0  501  503 -0.00000000000E+00 -0.00000000000E+00 -0.85786465633E+03  0.85786465633E+03  0.00000000000E+00 0. -1.
          6    2    1    2  501    0 -0.49256766758E+02 -0.75023353426E+02 -0.31967498107E+03  0.37491756360E+03  0.17411591928E+03 0.  0.
         24    2    3    3    0    0 -0.90711813986E+02 -0.62618991126E+02 -0.29576229720E+03  0.32525575137E+03  0.78525130425E+02 0.  0.
         -6    2    1    2    0  502  0.49256766758E+02  0.75023353426E+02 -0.49213650646E+03  0.52900026152E+03  0.17201221777E+03 0.  0.
        -24    2    5    5    0    0  0.78835491130E+01 -0.94918169968E+01 -0.11542173418E+03  0.14068252200E+03  0.79480502878E+02 0.  0.
          5    1    3    3  501    0  0.41455047228E+02 -0.12404362300E+02 -0.23912683873E+02  0.49661812237E+02  0.47000000000E+01 0. -1.
        -11    1    4    4    0    0 -0.15932958699E+02 -0.40642480523E+02 -0.45148555598E+02  0.62801771222E+02  0.00000000000E+00 0.  1.
         12    1    4    4    0    0 -0.74778855287E+02 -0.21976510603E+02 -0.25061374160E+03  0.26245398015E+03  0.00000000000E+00 0. -1.
         -5    1    5    5    0  502  0.41373217645E+02  0.84515170423E+02 -0.37671477228E+03  0.38831773952E+03  0.47000000000E+01 0.  1.
         11    1    6    6    0    0 -0.22450514691E+02 -0.33959324510E+02 -0.68534220208E+02  0.79713240246E+02  0.00000000000E+00 0. -1.
        -12    1    6    6    0    0  0.30334063804E+02  0.24467507513E+02 -0.46887513971E+02  0.60969281750E+02  0.00000000000E+00 0.  1.
</event>
<event>
12    1  0.9966151E-001  0.2514723E+03  0.7818608E-02  0.1112559E+00
         21   -1    0    0  501  502  0.00000000000E+00  0.00000000000E+00  0.57382745041E+02  0.57382745041E+02  0.00000000000E+00 0. -1.
         21   -1    0    0  502  503 -0.00000000000E+00 -0.00000000000E+00 -0.11157475870E+04  0.11157475870E+04  0.00000000000E+00 0. -1.
         -6    2    1    2    0  503 -0.30180859750E+02 -0.17931671170E+03 -0.45198237108E+03  0.51667163578E+03  0.17203531050E+03 0.  0.
        -24    2    3    3    0    0 -0.82451156834E+02 -0.12572708517E+03 -0.35751053303E+03  0.39604390176E+03  0.80196618934E+02 0.  0.
          6    2    1    2  501    0  0.30180859750E+02  0.17931671170E+03 -0.60638247084E+03  0.65645869622E+03  0.17370363127E+03 0.  0.
         24    2    5    5    0    0  0.82551216522E+02  0.10870545864E+03 -0.32191593322E+03  0.35868041570E+03  0.79938679364E+02 0.  0.
          5    1    5    5  501    0 -0.52370356772E+02  0.70611253064E+02 -0.28446653762E+03  0.29777828052E+03  0.47000000000E+01 0. -1.
        -13    1    6    6    0    0  0.31571839656E+02  0.30973937718E+02 -0.20289834327E+03  0.20766295668E+03  0.00000000000E+00 0.  1.
         14    1    6    6    0    0  0.50979376866E+02  0.77731520918E+02 -0.11901758995E+03  0.15101745901E+03  0.00000000000E+00 0. -1.
         -5    1    3    3    0  503  0.52270297084E+02 -0.53589626529E+02 -0.94471838052E+02  0.12062773402E+03  0.47000000000E+01 0.  1.
         11    1    4    4    0    0 -0.72995056436E+02 -0.12572184427E+03 -0.25843374512E+03  0.29651688149E+03  0.00000000000E+00 0. -1.
        -12    1    4    4    0    0 -0.94561003980E+01 -0.52408981013E-02 -0.99076787911E+02  0.99527020276E+02  0.00000000000E+00 0.  1.
</event>
<event>
12    1  0.9966151E-001  0.2344312E+03  0.7818608E-02  0.1123599E+00
         21   -1    0    0  503  502  0.00000000000E+00  0.00000000000E+00  0.11373565954E+03  0.11373565954E+03  0.00000000000E+00 0. -1.
         21   -1    0    0  501  503 -0.00000000000E+00 -0.00000000000E+00 -0.64546160759E+03  0.64546160759E+03  0.00000000000E+00 0. -1.
          6    2    1    2  501    0  0.73411571518E+02  0.14151874104E+03 -0.45636631824E+03  0.51295132061E+03  0.17155765211E+03 0.  0.
         24    2    3    3    0    0  0.59977421457E+02  0.13059487234E+03 -0.46483413957E+03  0.49311193318E+03  0.80226489248E+02 0.  0.
         -6    2    1    2    0  502 -0.73411571518E+02 -0.14151874104E+03 -0.75359629818E+02  0.24624594652E+03  0.17187547664E+03 0.  0.
        -24    2    5    5    0    0 -0.11061740277E+03 -0.89411994289E+02 -0.23835271606E+02  0.16392804795E+03  0.77933113721E+02 0.  0.
          5    1    3    3  501    0  0.13434150061E+02  0.10923868703E+02  0.84678213302E+01  0.19839387425E+02  0.47000000000E+01 0. -1.
        -13    1    4    4    0    0  0.33834768232E+02  0.13293440841E+03 -0.36630237445E+03  0.39114419082E+03  0.00000000000E+00 0.  1.
         14    1    4    4    0    0  0.26142653224E+02 -0.23395360775E+01 -0.98531765113E+02  0.10196774236E+03  0.00000000000E+00 0. -1.
         -5    1    5    5    0  502  0.37205831247E+02 -0.52106746751E+02 -0.51524358212E+02  0.82317898569E+02  0.47000000000E+01 0.  1.
         13    1    6    6    0    0 -0.95399701858E+02 -0.35810480545E+02 -0.33729161087E+02  0.10733661975E+03  0.00000000000E+00 0. -1.
        -14    1    6    6    0    0 -0.15217700907E+02 -0.53601513744E+02  0.98938894807E+01  0.56591428199E+02  0.00000000000E+00 0.  1.
</event>
<event>
12    1  0.9966151E-001  0.1785918E+03  0.7818608E-02  0.1169399E+00
         21   -1    0    0  501  502  0.00000000000E+00  0.00000000000E+00  0.19649559916E+04  0.19649559916E+04  0.00000000000E+00 0.  1.
         21   -1    0    0  502  503 -0.00000000000E+00 -0.00000000000E+00 -0.17098036544E+02  0.17098036544E+02  0.00000000000E+00 0.  1.
         -6    2    1    2    0  503  0.10275468864E+02 -0.46758521956E+02  0.12098640013E+04  0.12229742188E+04  0.17205549537E+03 0.  0.
        -24    2    3    3    0    0  0.41807779286E+02 -0.35265761901E+02  0.35750625512E+03  0.36994304255E+03  0.77817529547E+02 0.  0.
          6    2    1    2  501    0 -0.10275468864E+02  0.46758521956E+02  0.73799395372E+03  0.75907980934E+03  0.17109978547E+03 0.  0.
         24    2    5    5    0    0 -0.50968741757E+02  0.15943203541E+02  0.23600042716E+03  0.25447588842E+03  0.78802143306E+02 0.  0.
          5    1    5    5  501    0  0.40693272892E+02  0.30815318415E+02  0.50199352656E+03  0.50460392092E+03  0.47000000000E+01 0. -1.
        -13    1    6    6    0    0 -0.70680855407E+02  0.15803778643E+02  0.20787038656E+03  0.22012641901E+03  0.00000000000E+00 0.  1.
         14    1    6    6    0    0  0.19712113650E+02  0.13942489830E+00  0.28130040606E+02  0.34349469404E+02  0.00000000000E+00 0. -1.
         -5    1    3    3    0  503 -0.31532310422E+02 -0.11492760055E+02  0.85235774618E+03  0.85303117622E+03  0.47000000000E+01 0.  1.
         13    1    4    4    0    0  0.17963095641E+02 -0.44218423232E+02  0.96104644241E+02  0.10730351533E+03  0.00000000000E+00 0. -1.
        -14    1    4    4    0    0  0.23844683646E+02  0.89526613305E+01  0.26140161088E+03  0.26263952721E+03  0.00000000000E+00 0.  1.
</event>
<event>
12    1  0.9966151E-001  0.1724142E+03  0.7818608E-02  0.1175794E+00
         21   -1    0    0  501  502  0.00000000000E+00  0.00000000000E+00  0.67148291847E+02  0.67148291847E+02  0.00000000000E+00 0.  1.
         21   -1    0    0  502  503 -0.00000000000E+00 -0.00000000000E+00 -0.45541972753E+03  0.45541972753E+03  0.00000000000E+00 0.  1.
         -6    2    1    2    0  503 -0.15011288907E+02 -0.95055116142E+01 -0.24384188940E+03  0.29765345332E+03  0.16977343050E+03 0.  0.
        -24    2    3    3    0    0  0.37539456461E+02  0.32057950562E+02 -0.18937601879E+03  0.21117962325E+03  0.79351331412E+02 0.  0.
          6    2    1    2  501    0  0.15011288907E+02  0.95055116142E+01 -0.14442954629E+03  0.22491456606E+03  0.17149628170E+03 0.  0.
         24    2    5    5    0    0  0.71224828640E+02 -0.21318761092E+02 -0.87803254038E+02  0.13924820853E+03  0.78442248636E+02 0.  0.
          5    1    5    5  501    0 -0.56213539733E+02  0.30824272707E+02 -0.56626292252E+02  0.85666357524E+02  0.47000000000E+01 0. -1.
        -11    1    6    6    0    0  0.28170800494E+02  0.19523070703E+02 -0.12408351447E+01  0.34296996399E+02  0.00000000000E+00 0.  1.
         12    1    6    6    0    0  0.43054028146E+02 -0.40841831795E+02 -0.86562418893E+02  0.10495121214E+03  0.00000000000E+00 0. -1.
         -5    1    3    3    0  503 -0.52550745368E+02 -0.41563462176E+02 -0.54465870610E+02  0.86473830077E+02  0.47000000000E+01 0.  1.
         11    1    4    4    0    0  0.48691245286E+02  0.81913061729E+01 -0.53617373111E+02  0.72888665536E+02  0.00000000000E+00 0. -1.
        -12    1    4    4    0    0 -0.11151788824E+02  0.23866644389E+02 -0.13575864568E+03  0.13829095771E+03  0.00000000000E+00 0.  1.
</event>
<event>
12    1  0.9966151E-001  0.3345742E+03  0.7818608E-02  0.1069136E+00
         21   -1    0    0  503  502  0.00000000000E+00  0.00000000000E+00  0.16128070905E+04  0.16128070905E+04  0.00000000000E+00 0. -1.
         21   -1    0    0  501  503 -0.00000000000E+00 -0.00000000000E+00 -0.72114495870E+02  0.72114495870E+02  0.00000000000E+00 0. -1.
          6    2    1    2  501    0 -0.57088665291E+02  0.28117413248E+03  0.93386209170E+03  0.99196908976E+03  0.17200657035E+03 0.  0.
         24    2    3    3    0    0  0.35033337120E+02  0.12177239256E+03  0.39018404985E+03  0.41794532613E+03  0.79867719264E+02 0.  0.
         -6    2    1    2    0  502  0.57088665291E+02 -0.28117413248E+03  0.60683050296E+03  0.69295249664E+03  0.17211012404E+03 0.  0.
        -24    2    5    5    0    0  0.70559441295E+01 -0.89650825050E+02  0.34063778113E+03  0.36119188169E+03  0.79614199023E+02 0.  0.
          5    1    3    3  501    0 -0.92122002411E+02  0.15940173992E+03  0.54367804185E+03  0.57402376363E+03  0.47000000000E+01 0. -1.
        -11    1    4    4    0    0 -0.45055407314E+01  0.10734295024E+03  0.29103380996E+03  0.31023134497E+03  0.00000000000E+00 0.  1.
         12    1    4    4    0    0  0.39538877851E+02  0.14429442318E+02  0.99150239886E+02  0.10771398116E+03  0.00000000000E+00 0. -1.
         -5    1    5    5    0  502  0.50032721162E+02 -0.19152330743E+03  0.26619272183E+03  0.33176061495E+03  0.47000000000E+01 0.  1.
         11    1    6    6    0    0  0.27326538919E+02 -0.65780021012E+02  0.30731963068E+03  0.31546648997E+03  0.00000000000E+00 0. -1.
        -12    1    6    6    0    0 -0.20270594789E+02 -0.23870804038E+02  0.33318150455E+02  0.45725391724E+02  0.00000000000E+00 0.  1.
</event>
<event>
12    1  0.9966151E-001  0.2025933E+03  0.7818608E-02  0.1147572E+00
         21   -1    0    0  503  502  0.00000000000E+00  0.00000000000E+00  0.21485591184E+04  0.21485591184E+04  0.00000000000E+00 0. -1.
         21   -1    0    0  501  503 -0.00000000000E+00 -0.00000000000E+00 -0.32025195606E+02  0.32025195606E+02  0.00000000000E+00 0. -1.
          6    2    1    2  501    0 -0.41687561777E+01  0.10544962715E+03  0.17508486868E+04  0.17625296274E+04  0.17292356952E+03 0.  0.
         24    2    3    3    0    0 -0.89257215288E+01 -0.79871580709E+01  0.99346802842E+03  0.99667188298E+03  0.78947169833E+02 0.  0.
         -6    2    1    2    0  502  0.41687561777E+01 -0.10544962715E+03  0.36568523601E+03  0.41805468665E+03  0.17293648199E+03 0.  0.
        -24    2    5    5    0    0  0.58555236057E+02 -0.10727562764E+03  0.23534128809E+03  0.27672932364E+03  0.79100067802E+02 0.  0.
          5    1    3    3  501    0  0.47569653511E+01  0.11343678522E+03  0.75738065839E+03  0.76585774440E+03  0.47000000000E+01 0. -1.
        -13    1    4    4    0    0 -0.16402508187E+02  0.30757469160E+02  0.65206743231E+03  0.65299846896E+03  0.00000000000E+00 0.  1.
         14    1    4    4    0    0  0.74767866579E+01 -0.38744627231E+02  0.34140059611E+03  0.34367341402E+03  0.00000000000E+00 0. -1.
         -5    1    5    5    0  502 -0.54386479880E+02  0.18260004896E+01  0.13034394792E+03  0.14132536301E+03  0.47000000000E+01 0.  1.
         11    1    6    6    0    0  0.43229300148E+01 -0.11779910785E+02  0.10734940422E+03  0.10808028779E+03  0.00000000000E+00 0. -1.
        -12    1    6    6    0    0  0.54232306042E+02 -0.95495716855E+02  0.12799188387E+03  0.16864903585E+03  0.00000000000E+00 0.  1.
</event>
<event>
12    1  0.9966151E-001  0.2495838E+03  0.7818608E-02  0.1113656E+00
         21   -1    0    0  503  502  0.00000000000E+00  0.00000000000E+00  0.56879465228E+02  0.56879465228E+02  0.00000000000E+00 0.  1.
         21   -1    0    0  501  503 -0.00000000000E+00 -0.00000000000E+00 -0.10947847680E+04  0.10947847680E+04  0.00000000000E+00 0.  1.
          6    2    1    2  501    0  0.79070234895E+02 -0.16323616502E+03 -0.49455039797E+03  0.55396042159E+03  0.17144650751E+03 0.  0.
         24    2    3    3    0    0 -0.12930068855E+02 -0.33663622238E+02 -0.21988919822E+03  0.23660578654E+03  0.79565146839E+02 0.  0.
         -6    2    1    2    0  502 -0.79070234895E+02  0.16323616502E+03 -0.54335490483E+03  0.59770381167E+03  0.17063747029E+03 0.  0.
        -24    2    5    5    0    0 -0.62437063093E+02  0.21967162373E+02 -0.27402297741E+03  0.29308048584E+03  0.80166301900E+02 0.  0.
          5    1    3    3  501    0  0.92000303750E+02 -0.12957254278E+03 -0.27466119976E+03  0.31735463505E+03  0.47000000000E+01 0. -1.
        -11    1    4    4    0    0  0.11456457058E+02 -0.35255436079E+02 -0.20426097514E+03  0.20759754851E+03  0.00000000000E+00 0.  1.
         12    1    4    4    0    0 -0.24386525913E+02  0.15918138409E+01 -0.15628223074E+02  0.29008238034E+02  0.00000000000E+00 0. -1.
         -5    1    5    5    0  502 -0.16633171802E+02  0.14126900264E+03 -0.26933192742E+03  0.30462332583E+03  0.47000000000E+01 0.  1.
         11    1    6    6    0    0 -0.41792360052E+00  0.38691870267E+02 -0.83731242894E+02  0.92239668915E+02  0.00000000000E+00 0. -1.
        -12    1    6    6    0    0 -0.62019139493E+02 -0.16724707894E+02 -0.19029173452E+03  0.20084081693E+03  0.00000000000E+00 0.  1.
</event>
<event>
12    1  0.9966151E-001  0.2774913E+03  0.7818608E-02  0.1097158E+00
         21   -1    0    0  503  502  0.00000000000E+00  0.00000000000E+00  0.67392257621E+02  0.67392257621E+02  0.00000000000E+00 0.  1.
         21   -1    0    0  501  503 -0.00000000000E+00 -0.00000000000E+00 -0.17715949739E+04  0.17715949739E+04  0.00000000000E+00 0.  1.
          6    2    1    2  501    0  0.15268141748E+03  0.15580076829E+03 -0.30368556571E+03  0.41137129399E+03  0.17151071119E+03 0.  0.
         24    2    3    3    0    0  0.81096785915E+02  0.21878966689E+02 -0.86997248786E+02  0.14672941312E+03  0.83100069239E+02 0.  0.
         -6    2    1    2    0  502 -0.15268141748E+03 -0.15580076829E+03 -0.14005171506E+04  0.14276159375E+04  0.17045081819E+03 0.  0.
        -24    2    5    5    0    0 -0.36791473303E+02 -0.35609375937E+02 -0.70455860844E+03  0.71189474020E+03  0.88145608116E+02 0.  0.
          5    1    3    3  501    0  0.71584631568E+02  0.13392180160E+03 -0.21668831692E+03  0.26464188087E+03  0.47000000000E+01 0. -1.
        -13    1    4    4    0    0  0.78937003384E+01  0.71693112833E+01 -0.69139849586E+02  0.69957332211E+02  0.00000000000E+00 0.  1.
         14    1    4    4    0    0  0.73203085577E+02  0.14709655405E+02 -0.17857399200E+02  0.76772080904E+02  0.00000000000E+00 0. -1.
         -5    1    5    5    0  502 -0.11588994418E+03 -0.12019139235E+03 -0.69595854212E+03  0.71572119733E+03  0.47000000000E+01 0.  1.
         13    1    6    6    0    0 -0.18701355286E+02 -0.64866972114E+02 -0.47485479035E+03  0.47962958279E+03  0.00000000000E+00 0. -1.
        -14    1    6    6    0    0 -0.18090118017E+02  0.29257596177E+02 -0.22970381809E+03  0.23226515741E+03  0.00000000000E+00 0.  1.
</event>
<event>
12    1  0.9966151E-001  0.2576220E+03  0.7818608E-02  0.1108713E+00
         21   -1    0    0  501  502  0.00000000000E+00  0.00000000000E+00  0.19546764598E+03  0.19546764598E+03  0.00000000000E+00 0.  1.
         21   -1    0    0  502  503 -0.00000000000E+00 -0.00000000000E+00 -0.36405851768E+03  0.36405851768E+03  0.00000000000E+00 0. -1.
         -6    2    1    2    0  503  0.18548150811E+03  0.48462012219E+02 -0.98889004807E+01  0.25694488766E+03  0.17079498958E+03 0.  0.
        -24    2    3    3    0    0  0.92039679344E+02 -0.81483751351E+01  0.48458380739E+02  0.13299890530E+03  0.82479061312E+02 0.  0.
          6    2    1    2  501    0 -0.18548150811E+03 -0.48462012219E+02 -0.15870197123E+03  0.30258127600E+03  0.17209635800E+03 0.  0.
         24    2    5    5    0    0 -0.21075342711E+03 -0.46095991899E+02 -0.13133917879E+03  0.26496372222E+03  0.80087119441E+02 0.  0.
          5    1    5    5  501    0  0.25271919004E+02 -0.23660203201E+01 -0.27362792437E+02  0.37617553778E+02  0.47000000000E+01 0. -1.
        -13    1    6    6    0    0 -0.13485958189E+03 -0.66298391284E+02 -0.99435157606E+02  0.18019415662E+03  0.00000000000E+00 0.  1.
         14    1    6    6    0    0 -0.75893845224E+02  0.20202399386E+02 -0.31904021184E+02  0.84769565597E+02  0.00000000000E+00 0. -1.
         -5    1    3    3    0  503  0.93441828763E+02  0.56610387354E+02 -0.58347281220E+02  0.12394598237E+03  0.47000000000E+01 0.  1.
         11    1    4    4    0    0  0.92167670061E+02 -0.23072722762E+02  0.14770578782E+02  0.96153002749E+02  0.00000000000E+00 0. -1.
        -12    1    4    4    0    0 -0.12799071726E+00  0.14924347627E+02  0.33687801958E+02  0.36845902546E+02  0.00000000000E+00 0.  1.
</event>
<event>
12    1  0.9966151E-001  0.2051099E+03  0.7818608E-02  0.1145785E+00
         21   -1    0    0  501  502  0.00000000000E+00  0.00000000000E+00  0.42916555669E+03  0.42916555669E+03  0.00000000000E+00 0.  1.
         21   -1    0    0  502  503 -0.00000000000E+00 -0.00000000000E+00 -0.99183299086E+02  0.99183299086E+02  0.00000000000E+00 0. -1.
         -6    2    1    2    0  503  0.92369776853E+02 -0.59281406610E+02  0.20138063446E+03  0.28744429400E+03  0.17327319866E+03 0.  0.
        -24    2    3    3    0    0  0.80322461155E+02 -0.91783562451E+02  0.92679406868E+02  0.17325333626E+03  0.80940261711E+02 0.  0.
          6    2    1    2  501    0 -0.92369776853E+02  0.59281406610E+02  0.12860162315E+03  0.24090456178E+03  0.17161051705E+03 0.  0.
         24    2    5    5    0    0 -0.30628485757E+02  0.85091218729E+02  0.12278382773E+03  0.17356905724E+03  0.82895896366E+02 0.  0.
          5    1    5    5  501    0 -0.61741291096E+02 -0.25809812118E+02  0.58177954166E+01  0.67335504537E+02  0.47000000000E+01 0. -1.
        -11    1    6    6    0    0  0.96509123449E+01  0.66475624730E+02  0.10726218727E+03  0.12655957337E+03  0.00000000000E+00 0.  1.
         12    1    6    6    0    0 -0.40279398102E+02  0.18615593999E+02  0.15521640456E+02  0.47009483871E+02  0.00000000000E+00 0. -1.
         -5    1    3    3    0  503  0.12047315698E+02  0.32502155841E+02  0.10870122760E+03  0.11419095774E+03  0.47000000000E+01 0.  1.
         11    1    4    4    0    0  0.75752438915E+01  0.13276356512E+02 -0.18472047834E+00  0.15286598180E+02  0.00000000000E+00 0. -1.
        -12    1    4    4    0    0  0.72747217263E+02 -0.10505991896E+03  0.92864127346E+02  0.15796673808E+03  0.00000000000E+00 0.  1.
</event>
<event>
12    1  0.9966151E-001  0.1792729E+03  0.7818608E-02  0.1168897E+00
         21   -1    0    0  503  502  0.00000000000E+00  0.00000000000E+00  0.67619917324E+03  0.67619917324E+03  0.00000000000E+00 0.  1.
         21   -1    0    0  501  503 -0.00000000000E+00 -0.00000000000E+00 -0.49507346942E+02  0.49507346942E+02  0.00000000000E+00 0.  1.
          6    2    1    2  501    0  0.27481999858E+02  0.41967676025E+02  0.23213408745E+03  0.29233072595E+03  0.17045372578E+03 0.  0.
         24    2    3    3    0    0 -0.29353779649E+01 -0.20770915549E+02  0.43810627324E+02  0.91459714153E+02  0.77494908671E+02 0.  0.
         -6    2    1    2    0  502 -0.27481999858E+02 -0.41967676025E+02  0.39455773885E+03  0.43337579423E+03  0.17211107923E+03 0.  0.
        -24    2    5    5    0    0 -0.66086502238E+02 -0.35884133525E+02  0.13554123508E+03  0.17138541975E+03  0.73119346833E+02 0.  0.
          5    1    3    3  501    0  0.30417377823E+02  0.62738591574E+02  0.18832346013E+03  0.20087101180E+03  0.47000000000E+01 0. -1.
        -11    1    4    4    0    0  0.95119826545E+00 -0.34161240360E+02 -0.10211326743E+02  0.35667440543E+02  0.00000000000E+00 0.  1.
         12    1    4    4    0    0 -0.38865762304E+01  0.13390324811E+02  0.54021954067E+02  0.55792273610E+02  0.00000000000E+00 0. -1.
         -5    1    5    5    0  502  0.38604502380E+02 -0.60835424999E+01  0.25901650377E+03  0.26199037448E+03  0.47000000000E+01 0.  1.
         11    1    6    6    0    0 -0.45429025127E+02 -0.39828653824E+02  0.13757516054E+03  0.15025658983E+03  0.00000000000E+00 0. -1.
        -12    1    6    6    0    0 -0.20657477111E+02  0.39445202991E+01 -0.20339254688E+01  0.21128829920E+02  0.00000000000E+00 0.  1.
</event>
<event>
12    1  0.9966151E-001  0.1722117E+03  0.7818608E-02  0.1175650E+00
         21   -1    0    0  501  502  0.00000000000E+00  0.00000000000E+00  0.23556248828E+03  0.23556248828E+03  0.00000000000E+00 0.  1.
         21   -1    0    0  502  503 -0.00000000000E+00 -0.00000000000E+00 -0.13628734533E+03  0.13628734533E+03  0.00000000000E+00 0.  1.
         -6    2    1    2    0  503  0.92405260897E+00  0.94191560008E+01  0.10163850174E+03  0.19996809492E+03  0.17195138725E+03 0.  0.
        -24    2    3    3    0    0 -0.56105314584E+02 -0.25492991318E+02  0.49023616605E+02  0.11475293846E+03  0.83469892591E+02 0.  0.
          6    2    1    2  501    0 -0.92405260897E+00 -0.94191560008E+01 -0.23633587852E+01  0.17188173869E+03  0.17160469765E+03 0.  0.
         24    2    5    5    0    0 -0.32107902355E+02  0.49458732771E+02 -0.26418593662E+02  0.10089031247E+03  0.77484381772E+02 0.  0.
          5    1    5    5  501    0  0.31183849746E+02 -0.58877888772E+02  0.24055234877E+02  0.70991426216E+02  0.47000000000E+01 0. -1.
        -11    1    6    6    0    0 -0.57447052529E+02  0.40864538322E+02 -0.16953232871E+02  0.72508526680E+02  0.00000000000E+00 0.  1.
         12    1    6    6    0    0  0.25339150175E+02  0.85941944492E+01 -0.94653607913E+01  0.28381785791E+02  0.00000000000E+00 0. -1.
         -5    1    3    3    0  503  0.57029367193E+02  0.34912147318E+02  0.52614885134E+02  0.85215156460E+02  0.47000000000E+01 0.  1.
         11    1    4    4    0    0 -0.13689438249E+02 -0.46501967242E+02  0.27418018668E+01  0.48552560740E+02  0.00000000000E+00 0. -1.
        -12    1    4    4    0    0 -0.42415876336E+02  0.21008975925E+02  0.46281814738E+02  0.66200377719E+02  0.00000000000E+00 0.  1.
</event>
<event>
12    1  0.9966151E-001  0.1961165E+03  0.7818608E-02  0.1153422E+00
         21   -1    0    0  501  502  0.00000000000E+00  0.00000000000E+00  0.12023298493E+03  0.12023298493E+03  0.00000000000E+00 0.  1.
         21   -1    0    0  502  503 -0.00000000000E+00 -0.00000000000E+00 -0.32565947454E+03  0.32565947454E+03  0.00000000000E+00 0.  1.
         -6    2    1    2    0  503  0.11136466058E+02  0.92040465102E+02 -0.67133825189E+02  0.20728876285E+03  0.17281843833E+03 0.  0.
        -24    2    3    3    0    0  0.27440350629E+02  0.39029020171E+02 -0.10418945325E+03  0.14042143512E+03  0.81157254859E+02 0.  0.
          6    2    1    2  501    0 -0.11136466058E+02 -0.92040465102E+02 -0.13829266443E+03  0.23860369663E+03  0.17091341351E+03 0.  0.
         24    2    5    5    0    0 -0.24228247232E+02 -0.95765709024E+02 -0.16564869625E+03  0.20768906168E+03  0.77053077717E+02 0.  0.
          5    1    5    5  501    0  0.13091781174E+02  0.37252439221E+01  0.27356031820E+02  0.30914634941E+02  0.47000000000E+01 0. -1.
        -13    1    6    6    0    0 -0.41789973398E+02 -0.53006939052E+02 -0.52661000431E+02  0.85611438667E+02  0.00000000000E+00 0.  1.
         14    1    6    6    0    0  0.17561726165E+02 -0.42758769972E+02 -0.11298769582E+03  0.12207762302E+03  0.00000000000E+00 0. -1.
         -5    1    3    3    0  503 -0.16303884572E+02  0.53011444931E+02  0.37055628059E+02  0.66867327722E+02  0.47000000000E+01 0.  1.
         11    1    4    4    0    0  0.34154532916E+02 -0.15079090586E+02 -0.27701203509E+02  0.46489437160E+02  0.00000000000E+00 0. -1.
        -12    1    4    4    0    0 -0.67141822867E+01  0.54108110757E+02 -0.76488249739E+02  0.93931997964E+02  0.00000000000E+00 0.  1.
</event>
<event>
12    1  0.9966151E-001  0.1839980E+03  0.7818608E-02  0.1164026E+00
         21   -1    0    0  503  502  0.00000000000E+00  0.00000000000E+00  0.23901979888E+03  0.23901979888E+03  0.00000000000E+00 0. -1.
         21   -1    0    0  501  503 -0.00000000000E+00 -0.00000000000E+00 -0.14258884501E+03  0.14258884501E+03  0.00000000000E+00 0. -1.
          6    2    1    2  501    0  0.62874228573E+02 -0.11676643406E+02  0.31725414889E+02  0.18671304510E+03  0.17252752430E+03 0.  0.
         24    2    3    3    0    0  0.93746761524E+02  0.34172674309E+02  0.15144726093E+02  0.12881414643E+03  0.80046827712E+02 0.  0.
         -6    2    1    2    0  502 -0.62874228573E+02  0.11676643406E+02  0.64705538984E+02  0.19489559879E+03  0.17236001576E+03 0.  0.
        -24    2    5    5    0    0 -0.28721285062E+02  0.67498899028E+02  0.63292885124E+02  0.12927065411E+03  0.85579782195E+02 0.  0.
          5    1    3    3  501    0 -0.30872532951E+02 -0.45849317715E+02  0.16580688796E+02  0.57898898666E+02  0.47000000000E+01 0. -1.
        -13    1    4    4    0    0  0.54533517482E+02 -0.37150485031E+01  0.41136016071E+02  0.68409633331E+02  0.00000000000E+00 0.  1.
         14    1    4    4    0    0  0.39213244042E+02  0.37887722812E+02 -0.25991289978E+02  0.60404513101E+02  0.00000000000E+00 0. -1.
         -5    1    5    5    0  502 -0.34152943511E+02 -0.55822255622E+02  0.14126538600E+01  0.65624944679E+02  0.47000000000E+01 0.  1.
         11    1    6    6    0    0  0.25774950621E+02  0.78057540521E+00  0.83942762561E+01  0.27118651356E+02  0.00000000000E+00 0. -1.
        -12    1    6    6    0    0 -0.54496235683E+02  0.66718323622E+02  0.54898608867E+02  0.10215200275E+03  0.00000000000E+00 0.  1.
</event>
<event>
12    1  0.9966151E-001  0.3034912E+03  0.7818608E-02  0.1083739E+00
         21   -1    0    0  503  502  0.00000000000E+00  0.00000000000E+00  0.17052572202E+03  0.17052572202E+03  0.00000000000E+00 0. -1.
         21   -1    0    0  501  503 -0.00000000000E+00 -0.00000000000E+00 -0.54669823473E+03  0.54669823473E+03  0.00000000000E+00 0.  1.
          6    2    1    2  501    0 -0.24955307412E+03  0.11895323476E+02 -0.13928600929E+03  0.33222766161E+03  0.16898636404E+03 0.  0.
         24    2    3    3    0    0 -0.57104164104E+02  0.83984628423E+01 -0.61537931354E+01  0.98144155186E+02  0.79139031402E+02 0.  0.
         -6    2    1    2    0  502  0.24955307412E+03 -0.11895323476E+02 -0.23688650342E+03  0.38499629513E+03  0.17230408073E+03 0.  0.
        -24    2    5    5    0    0  0.25395842853E+03 -0.17810997506E+02 -0.16678355507E+03  0.31434988182E+03  0.78657351245E+02 0.  0.
          5    1    3    3  501    0 -0.19244891002E+03  0.34968606338E+01 -0.13313221616E+03  0.23408350643E+03  0.47000000000E+01 0. -1.
        -13    1    4    4    0    0 -0.12570760138E+02  0.22326041848E+02 -0.34933211025E+02  0.43322111993E+02  0.00000000000E+00 0.  1.
         14    1    4    4    0    0 -0.44533403966E+02 -0.13927579006E+02  0.28779417890E+02  0.54822043193E+02  0.00000000000E+00 0. -1.
         -5    1    5    5    0  502 -0.44053544040E+01  0.59156740302E+01 -0.70102948351E+02  0.70646413314E+02  0.47000000000E+01 0.  1.
         11    1    6    6    0    0  0.60440752591E+02 -0.28968602432E+02 -0.16362184258E+02  0.68992648698E+02  0.00000000000E+00 0. -1.
        -12    1    6    6    0    0  0.19351767594E+03  0.11157604926E+02 -0.15042137081E+03  0.24535723312E+03  0.00000000000E+00 0.  1.
</event>
<event>
12    1  0.9966151E-001  0.1894868E+03  0.7818608E-02  0.1159382E+00
         21   -1    0    0  503  502  0.00000000000E+00  0.00000000000E+00  0.52527105446E+03  0.52527105446E+03  0.00000000000E+00 0.  1.
         21   -1    0    0  501  503 -0.00000000000E+00 -0.00000000000E+00 -0.68094545428E+02  0.68094545428E+02  0.00000000000E+00 0.  1.
          6    2    1    2  501    0  0.25154153181E+02 -0.75111767598E+02  0.20296055674E+03  0.27629938540E+03  0.16992308180E+03 0.  0.
         24    2    3    3    0    0  0.69958082055E+01  0.23811636703E+02  0.10084750737E+03  0.13289530505E+03  0.82915661890E+02 0.  0.
         -6    2    1    2    0  502 -0.25154153181E+02  0.75111767598E+02  0.25421595230E+03  0.31706621448E+03  0.17213577464E+03 0.  0.
        -24    2    5    5    0    0 -0.26162057799E+02  0.11076382176E+03  0.14475924704E+03  0.20184926624E+03  0.82672904869E+02 0.  0.
          5    1    3    3  501    0  0.18158344975E+02 -0.98923404301E+02  0.10211304937E+03  0.14340408036E+03  0.47000000000E+01 0. -1.
        -13    1    4    4    0    0  0.13196397555E+01  0.11028604914E+02  0.11349569500E+03  0.11403790755E+03  0.00000000000E+00 0.  1.
         14    1    4    4    0    0  0.56761684500E+01  0.12783031789E+02 -0.12648187631E+02  0.18857397497E+02  0.00000000000E+00 0. -1.
         -5    1    5    5    0  502  0.10079046185E+01 -0.35652054161E+02  0.10945670525E+03  0.11521694824E+03  0.47000000000E+01 0.  1.
         13    1    6    6    0    0  0.23805946975E+02  0.56981972630E+02  0.94472204682E+02  0.11286569795E+03  0.00000000000E+00 0. -1.
        -14    1    6    6    0    0 -0.49968004774E+02  0.53781849129E+02  0.50287042362E+02  0.88983568294E+02  0.00000000000E+00 0.  1.
</event>
<event>
12    1  0.9966151E-001  0.1755216E+03  0.7818608E-02  0.1172630E+00
         21   -1    0    0  501  502  0.00000000000E+00  0.00000000000E+00  0.68414736713E+03  0.68414736713E+03  0.00000000000E+00 0.  1.
         21   -1    0    0  502  503 -0.00000000000E+00 -0.00000000000E+00 -0.51416145341E+02  0.51416145341E+02  0.00000000000E+00 0.  1.
         -6    2    1    2    0  503  0.27835703724E+02 -0.19698690860E+02  0.44893369318E+03  0.48141913516E+03  0.17047010881E+03 0.  0.
        -24    2    3    3    0    0 -0.45655543527E+02 -0.27955292392E+02  0.27115693873E+03  0.28881643706E+03  0.83802875044E+02 0.  0.
          6    2    1    2  501    0 -0.27835703724E+02  0.19698690860E+02  0.18379752861E+03  0.25414437732E+03  0.17217714185E+03 0.  0.
         24    2    5    5    0    0  0.27702013326E+02 -0.13075128632E+02  0.36575981525E+02  0.93349989403E+02  0.80237507227E+02 0.  0.
          5    1    5    5  501    0 -0.55537717050E+02  0.32773819492E+02  0.14722154709E+03  0.16079438792E+03  0.47000000000E+01 0. -1.
        -11    1    6    6    0    0  0.62082274504E+01 -0.35572643338E+02 -0.98793687282E+01  0.37437373954E+02  0.00000000000E+00 0.  1.
         12    1    6    6    0    0  0.21493785876E+02  0.22497514706E+02  0.46455350254E+02  0.55912615449E+02  0.00000000000E+00 0. -1.
         -5    1    3    3    0  503  0.73491247251E+02  0.82566015316E+01  0.17777675445E+03  0.19260269810E+03  0.47000000000E+01 0.  1.
         13    1    4    4    0    0 -0.41904470378E+02 -0.47581907308E+02  0.25600453100E+03  0.26373915604E+03  0.00000000000E+00 0. -1.
        -14    1    4    4    0    0 -0.37510731498E+01  0.19626614916E+02  0.15152407733E+02  0.25077281012E+02  0.00000000000E+00 0.  1.
</event>
<event>
12    1  0.9966151E-001  0.3394506E+03  0.7818608E-02  0.1067190E+00
         21   -1    0    0  503  502  0.00000000000E+00  0.00000000000E+00  0.25386792346E+03  0.25386792346E+03  0.00000000000E+00 0. -1.
         21   -1    0    0  501  503 -0.00000000000E+00 -0.00000000000E+00 -0.46643458535E+03  0.46643458535E+03  0.00000000000E+00 0. -1.
          6    2    1    2  501    0  0.83595574490E+02 -0.27877605807E+03 -0.42461298536E+02  0.34061507978E+03  0.17178870764E+03 0.  0.
         24    2    3    3    0    0  0.12956807038E+01 -0.21218299857E+03 -0.22053892832E+00  0.22653493311E+03  0.79339294253E+02 0.  0.
         -6    2    1    2    0  502 -0.83595574490E+02  0.27877605807E+03 -0.17010536335E+03  0.37968742903E+03  0.17470660691E+03 0.  0.
        -24    2    5    5    0    0 -0.12465736935E+03  0.17068072512E+03 -0.12794421782E+03  0.25651955906E+03  0.69001388701E+02 0.  0.
          5    1    3    3  501    0  0.82299893787E+02 -0.66593059498E+02 -0.42240759608E+02  0.11408014666E+03  0.47000000000E+01 0. -1.
        -11    1    4    4    0    0  0.37517174414E+02 -0.12336275263E+03  0.13460585802E+02  0.12964217864E+03  0.00000000000E+00 0.  1.
         12    1    4    4    0    0 -0.36221493710E+02 -0.88820245938E+02 -0.13681124731E+02  0.96892754471E+02  0.00000000000E+00 0. -1.
         -5    1    5    5    0  502  0.41061794860E+02  0.10809533295E+03 -0.42161145523E+02  0.12316786997E+03  0.47000000000E+01 0.  1.
         13    1    6    6    0    0 -0.11424959893E+02  0.28333354418E+02 -0.50080761274E+02  0.58663372993E+02  0.00000000000E+00 0. -1.
        -14    1    6    6    0    0 -0.11323240946E+03  0.14234737070E+03 -0.77863456551E+02  0.19785618606E+03  0.00000000000E+00 0.  1.
</event>
<event>
12    1  0.9966151E-001  0.2314903E+03  0.7818608E-02  0.1125769E+00
         21   -1    0    0  501  502  0.00000000000E+00  0.00000000000E+00  0.15643972268E+03  0.15643972268E+03  0.00000000000E+00 0. -1.
         21   -1    0    0  502  503 -0.00000000000E+00 -0.00000000000E+00 -0.37673488463E+03  0.37673488463E+03  0.00000000000E+00 0. -1.
         -6    2    1    2    0  503 -0.10773441157E+03 -0.11022965561E+03 -0.28346405342E+02  0.23321941466E+03  0.17271507249E+03 0.  0.
        -24    2    3    3    0    0 -0.17132481772E+01 -0.15353709345E+02 -0.14019373649E+02  0.90148501805E+02  0.87701413501E+02 0.  0.
          6    2    1    2  501    0  0.10773441157E+03  0.11022965561E+03 -0.19194875660E+03  0.29995519266E+03  0.17138118925E+03 0.  0.
         24    2    5    5    0    0  0.11560085905E+03  0.25354880979E+02 -0.72617276547E+02  0.15323198217E+03  0.64810052494E+02 0.  0.
          5    1    5    5  501    0 -0.78664474742E+01  0.84874774629E+02 -0.11933148005E+03  0.14672321049E+03  0.47000000000E+01 0. -1.
        -13    1    6    6    0    0  0.86374501040E+02  0.17248613407E+01 -0.20181105875E+02  0.88717566530E+02  0.00000000000E+00 0.  1.
         14    1    6    6    0    0  0.29226358006E+02  0.23630019639E+02 -0.52436170672E+02  0.64514415638E+02  0.00000000000E+00 0. -1.
         -5    1    3    3    0  503 -0.10602116339E+03 -0.94875946263E+02 -0.14327031692E+02  0.14307091285E+03  0.47000000000E+01 0.  1.
         13    1    4    4    0    0 -0.20528678448E+02 -0.29886462633E+02  0.25291697740E+02  0.44207434466E+02  0.00000000000E+00 0. -1.
        -14    1    4    4    0    0  0.18815430270E+02  0.14532753288E+02 -0.39311071389E+02  0.45941067338E+02  0.00000000000E+00 0.  1.
</event>
<event>
12    1  0.9966151E-001  0.2643497E+03  0.7818608E-02  0.1104840E+00
         21   -1    0    0  503  502  0.00000000000E+00  0.00000000000E+00  0.73716589994E+03  0.73716589994E+03  0.00000000000E+00 0.  1.
         21   -1    0    0  501  503 -0.00000000000E+00 -0.00000000000E+00 -0.10469272715E+03  0.10469272715E+03  0.00000000000E+00 0. -1.
          6    2    1    2  501    0 -0.95347707083E+01 -0.19841292244E+03  0.44902083783E+03  0.52008928379E+03  0.17150670734E+03 0.  0.
         24    2    3    3    0    0 -0.26650306462E+02 -0.18809466519E+03  0.26901657025E+03  0.33891799924E+03  0.80035324920E+02 0.  0.
         -6    2    1    2    0  502  0.95347707083E+01  0.19841292244E+03  0.18345233495E+03  0.32176934330E+03  0.17441946979E+03 0.  0.
        -24    2    5    5    0    0 -0.40748820113E+02  0.18861625028E+03  0.12725356677E+03  0.24558006691E+03  0.82943009329E+02 0.  0.
          5    1    3    3  501    0  0.17115535754E+02 -0.10318257254E+02  0.18000426759E+03  0.18117128455E+03  0.47000000000E+01 0. -1.
        -11    1    4    4    0    0  0.17781000631E+02 -0.62065899874E+02  0.13509248195E+03  0.14972748108E+03  0.00000000000E+00 0.  1.
         12    1    4    4    0    0 -0.44431307094E+02 -0.12602876531E+03  0.13392408830E+03  0.18919051816E+03  0.00000000000E+00 0. -1.
         -5    1    5    5    0  502  0.50283590821E+02  0.97966721567E+01  0.56198768180E+02  0.76189276385E+02  0.47000000000E+01 0.  1.
         11    1    6    6    0    0 -0.34479420098E+02  0.11500707858E+03  0.30555633434E+02  0.12389150604E+03  0.00000000000E+00 0. -1.
        -12    1    6    6    0    0 -0.62694000143E+01  0.73609171702E+02  0.96697933339E+02  0.12168856087E+03  0.00000000000E+00 0.  1.
</event>
<event>
12    1  0.9966151E-001  0.1871669E+03  0.7818608E-02  0.1161074E+00
         21   -1    0    0  501  502  0.00000000000E+00  0.00000000000E+00  0.98929032924E+03  0.98929032924E+03  0.00000000000E+00 0.  1.
         21   -1    0    0  502  503 -0.00000000000E+00 -0.00000000000E+00 -0.46514365656E+02  0.46514365656E+02  0.00000000000E+00 0.  1.
         -6    2    1    2    0  503  0.10519661931E+02 -0.73198360974E+02  0.21791236398E+03  0.28716680116E+03  0.17178565125E+03 0.  0.
        -24    2    3    3    0    0  0.56390786777E+02 -0.85719691163E+02  0.19375098808E+03  0.23362423968E+03  0.80703492473E+02 0.  0.
          6    2    1    2  501    0 -0.10519661931E+02  0.73198360974E+02  0.72486359961E+03  0.74863789374E+03  0.17193834527E+03 0.  0.
         24    2    5    5    0    0 -0.41418475161E+02  0.81973042405E-01  0.54296762563E+03  0.55012094688E+03  0.78126288199E+02 0.  0.
          5    1    5    5  501    0  0.30898813230E+02  0.73116387932E+02  0.18189597397E+03  0.19851694686E+03  0.47000000000E+01 0. -1.
        -11    1    6    6    0    0 -0.23221146074E+02 -0.36304775245E+02  0.36646348537E+03  0.36898881344E+03  0.00000000000E+00 0.  1.
         12    1    6    6    0    0 -0.18197329086E+02  0.36386748287E+02  0.17650414026E+03  0.18113213344E+03  0.00000000000E+00 0. -1.
         -5    1    3    3    0  503 -0.45871124846E+02  0.12521330189E+02  0.24161375902E+02  0.53542561480E+02  0.47000000000E+01 0.  1.
         13    1    4    4    0    0  0.74715962437E+02 -0.54133314935E+02  0.12041348104E+03  0.15169804628E+03  0.00000000000E+00 0. -1.
        -14    1    4    4    0    0 -0.18325175660E+02 -0.31586376228E+02  0.73337507043E+02  0.81926193403E+02  0.00000000000E+00 0.  1.
</event>
<event>
12    1  0.9966151E-001  0.1877316E+03  0.7818608E-02  0.1160998E+00
         21   -1    0    0  501  502  0.00000000000E+00  0.00000000000E+00  0.53992363182E+03  0.53992363182E+03  0.00000000000E+00 0. -1.
         21   -1    0    0  502  503 -0.00000000000E+00 -0.00000000000E+00 -0.65965234967E+02  0.65965234967E+02  0.00000000000E+00 0. -1.
         -6    2    1    2    0  503  0.67723101623E+02  0.18059800238E+02  0.28246451818E+03  0.33915976787E+03  0.17415673755E+03 0.  0.
        -24    2    3    3    0    0  0.23617087897E+02 -0.29250519395E+02  0.25085889517E+03  0.26701676962E+03  0.83393106716E+02 0.  0.
          6    2    1    2  501    0 -0.67723101623E+02 -0.18059800238E+02  0.19149387868E+03  0.26672909892E+03  0.17193583617E+03 0.  0.
         24    2    5    5    0    0 -0.10795907344E+03  0.11587890908E+02  0.14840184528E+03  0.20057071048E+03  0.80100321259E+02 0.  0.
          5    1    5    5  501    0  0.40235971819E+02 -0.29647691146E+02  0.43092033399E+02  0.66158388440E+02  0.47000000000E+01 0. -1.
        -13    1    6    6    0    0 -0.28803637278E+02  0.41273134952E+01  0.10708869093E+03  0.11097149167E+03  0.00000000000E+00 0.  1.
         14    1    6    6    0    0 -0.79155436164E+02  0.74605774128E+01  0.41313154344E+02  0.89599218810E+02  0.00000000000E+00 0. -1.
         -5    1    3    3    0  503  0.44106013726E+02  0.47310319633E+02  0.31605623007E+02  0.72142998248E+02  0.47000000000E+01 0.  1.
         13    1    4    4    0    0 -0.89544548671E+01  0.21843848304E+02  0.12646840239E+03  0.12865299364E+03  0.00000000000E+00 0. -1.
        -14    1    4    4    0    0  0.32571542764E+02 -0.51094367699E+02  0.12439049278E+03  0.13836377598E+03  0.00000000000E+00 0.  1.
</event>
<event>
12    1  0.9966151E-001  0.3628079E+03  0.7818608E-02  0.1057779E+00
         21   -1    0    0  501  502  0.00000000000E+00  0.00000000000E+00  0.68607039474E+02  0.68607039474E+02  0.00000000000E+00 0. -1.
         21   -1    0    0  502  503 -0.00000000000E+00 -0.00000000000E+00 -0.19860208069E+04  0.19860208069E+04  0.00000000000E+00 0.  1.
         -6    2    1    2    0  503 -0.30936127938E+02  0.31835411795E+03 -0.74403462315E+03  0.82643884461E+03  0.16464281038E+03 0.  0.
        -24    2    3    3    0    0  0.23231673828E+02  0.16589881421E+03 -0.28797426372E+03  0.34250712233E+03  0.79497327361E+02 0.  0.
          6    2    1    2  501    0  0.30936127938E+02 -0.31835411795E+03 -0.11733791443E+04  0.12281890018E+04  0.17124023884E+03 0.  0.
         24    2    5    5    0    0 -0.38632563798E+02 -0.17058179682E+03 -0.75471936904E+03  0.77877320412E+03  0.79345781682E+02 0.  0.
          5    1    5    5  501    0  0.69568691737E+02 -0.14777232114E+03 -0.41865977526E+03  0.44941579766E+03  0.47000000000E+01 0. -1.
        -11    1    6    6    0    0 -0.40325947605E+02 -0.28149347643E+02 -0.21747510305E+03  0.22296633887E+03  0.00000000000E+00 0.  1.
         12    1    6    6    0    0  0.16933838062E+01 -0.14243244917E+03 -0.53724426599E+03  0.55580686526E+03  0.00000000000E+00 0. -1.
         -5    1    3    3    0  503 -0.54167801766E+02  0.15245530375E+03 -0.45606035943E+03  0.48393172228E+03  0.47000000000E+01 0.  1.
         11    1    4    4    0    0  0.37152074880E+02  0.50560041716E+02 -0.14700771661E+03  0.15983698955E+03  0.00000000000E+00 0. -1.
        -12    1    4    4    0    0 -0.13920401052E+02  0.11533877249E+03 -0.14096654711E+03  0.18267013278E+03  0.00000000000E+00 0.  1.
</event>
<event>
12    1  0.9966151E-001  0.2018313E+03  0.7818608E-02  0.1148536E+00
         21   -1    0    0  501  502  0.00000000000E+00  0.00000000000E+00  0.22818561890E+03  0.22818561890E+03  0.00000000000E+00 0.  1.
         21   -1    0    0  502  503 -0.00000000000E+00 -0.00000000000E+00 -0.18109655991E+03  0.18109655991E+03  0.00000000000E+00 0.  1.
         -6    2    1    2    0  503 -0.10581364930E+03  0.14959319669E+01  0.53976542420E+02  0.20892423509E+03  0.17186361652E+03 0.  0.
        -24    2    3    3    0    0 -0.57964340042E+01  0.37933728997E+02 -0.26960511608E+01  0.88238572014E+02  0.79411651894E+02 0.  0.
          6    2    1    2  501    0  0.10581364930E+03 -0.14959319669E+01 -0.68874834253E+01  0.20035794372E+03  0.16999147624E+03 0.  0.
         24    2    5    5    0    0  0.12151387671E+03 -0.40321050429E+02  0.15585500358E+02  0.15259800272E+03  0.81558771893E+02 0.  0.
          5    1    5    5  501    0 -0.15700227409E+02  0.38825118463E+02 -0.22472983784E+02  0.47759941001E+02  0.47000000000E+01 0. -1.
        -11    1    6    6    0    0 -0.95146999037E+01 -0.14916310760E+02 -0.26480637491E+01  0.17889608229E+02  0.00000000000E+00 0.  1.
         12    1    6    6    0    0  0.13102857661E+03 -0.25404739669E+02  0.18233564107E+02  0.13470839449E+03  0.00000000000E+00 0. -1.
         -5    1    3    3    0  503 -0.10001721530E+03 -0.36437797030E+02  0.56672593581E+02  0.12068566307E+03  0.47000000000E+01 0.  1.
         11    1    4    4    0    0 -0.42612846885E+02  0.17424428350E+02 -0.56376641822E+00  0.46041103978E+02  0.00000000000E+00 0. -1.
        -12    1    4    4    0    0  0.36816412881E+02  0.20509300647E+02 -0.21322847426E+01  0.42197468036E+02  0.00000000000E+00 0.  1.
</event>
<event>
12    1  0.9966151E-001  0.1952863E+03  0.7818608E-02  0.1154246E+00
         21   -1    0    0  503  502  0.00000000000E+00  0.00000000000E+00  0.57721851290E+03  0.57721851290E+03  0.00000000000E+00 0.  1.
         21   -1    0    0  501  503 -0.00000000000E+00 -0.00000000000E+00 -0.76845052715E+02  0.76845052715E+02  0.00000000000E+00 0.  1.
          6    2    1    2  501    0 -0.11235018191E+02  0.89287523605E+02  0.12486764005E+03  0.23179445279E+03  0.17331547336E+03 0.  0.
         24    2    3    3    0    0  0.38516104786E+02  0.62207436826E+02  0.16095897323E+02  0.10906757165E+03  0.79267911231E+02 0.  0.
         -6    2    1    2    0  502  0.11235018191E+02 -0.89287523605E+02  0.37550582014E+03  0.42226911283E+03  0.17090376002E+03 0.  0.
        -24    2    5    5    0    0  0.40899244105E+02 -0.41733299574E+02  0.10025930069E+03  0.14133476643E+03  0.80679442018E+02 0.  0.
          5    1    3    3  501    0 -0.49751122977E+02  0.27080086779E+02  0.10877174273E+03  0.12272688114E+03  0.47000000000E+01 0. -1.
        -11    1    4    4    0    0  0.14028034593E+02  0.39002072504E+02 -0.30557110096E+02  0.51494508364E+02  0.00000000000E+00 0.  1.
         12    1    4    4    0    0  0.24488070193E+02  0.23205364322E+02  0.46653007419E+02  0.57573063288E+02  0.00000000000E+00 0. -1.
         -5    1    5    5    0  502 -0.29664225914E+02 -0.47554224031E+02  0.27524651944E+03  0.28093434640E+03  0.47000000000E+01 0.  1.
         11    1    6    6    0    0  0.20831459728E+02  0.20888529655E+02  0.13426754244E+02  0.32412314250E+02  0.00000000000E+00 0. -1.
        -12    1    6    6    0    0  0.20067784377E+02 -0.62621829229E+02  0.86832546450E+02  0.10892245218E+03  0.00000000000E+00 0.  1.
</event>
<event>
12    1  0.9966151E-001  0.1750502E+03  0.7818608E-02  0.1173533E+00
         21   -1    0    0  501  502  0.00000000000E+00  0.00000000000E+00  0.16944048001E+03  0.16944048001E+03  0.00000000000E+00 0. -1.
         21   -1    0    0  502  503 -0.00000000000E+00 -0.00000000000E+00 -0.21543967896E+03  0.21543967896E+03  0.00000000000E+00 0. -1.
         -6    2    1    2    0  503  0.42421201239E+01 -0.24033350337E+02  0.58051709725E+02  0.18124035846E+03  0.16994843047E+03 0.  0.
        -24    2    3    3    0    0 -0.35713564003E+02 -0.45611951590E+02  0.83272005629E+02  0.12908438036E+03  0.79828826552E+02 0.  0.
          6    2    1    2  501    0 -0.42421201239E+01  0.24033350337E+02 -0.10405090868E+03  0.20363980052E+03  0.17334064510E+03 0.  0.
         24    2    5    5    0    0  0.23056881961E+02  0.77687942644E+02 -0.73898478126E+02  0.13614676488E+03  0.80671682026E+02 0.  0.
          5    1    5    5  501    0 -0.27299002085E+02 -0.53654592307E+02 -0.30152430554E+02  0.67493035631E+02  0.47000000000E+01 0. -1.
        -13    1    6    6    0    0  0.44196953688E+02  0.54722863039E+02 -0.18783056298E+02  0.72806357266E+02  0.00000000000E+00 0.  1.
         14    1    6    6    0    0 -0.21140071727E+02  0.22965079605E+02 -0.55115421828E+02  0.63340407617E+02  0.00000000000E+00 0. -1.
         -5    1    3    3    0  503  0.39955684127E+02  0.21578601253E+02 -0.25220295904E+02  0.52155978100E+02  0.47000000000E+01 0.  1.
         11    1    4    4    0    0 -0.32736694076E+02 -0.67897291026E+02  0.70595411729E+02  0.10327364342E+03  0.00000000000E+00 0. -1.
        -12    1    4    4    0    0 -0.29768699273E+01  0.22285339436E+02  0.12676593900E+02  0.25810736938E+02  0.00000000000E+00 0.  1.
</event>
<event>
12    1  0.9966151E-001  0.1774579E+03  0.7818608E-02  0.1171277E+00
         21   -1    0    0  503  502  0.00000000000E+00  0.00000000000E+00  0.67657340429E+03  0.67657340429E+03  0.00000000000E+00 0. -1.
         21   -1    0    0  501  503 -0.00000000000E+00 -0.00000000000E+00 -0.56507952796E+02  0.56507952796E+02  0.00000000000E+00 0. -1.
          6    2    1    2  501    0  0.24361516832E+02 -0.34872622558E+02  0.46890849061E+03  0.49997253912E+03  0.16818972621E+03 0.  0.
         24    2    3    3    0    0 -0.37631589999E+02 -0.57627908379E+01  0.36835212597E+03  0.37821786748E+03  0.76916319793E+02 0.  0.
         -6    2    1    2    0  502 -0.24361516832E+02  0.34872622558E+02  0.15115696088E+03  0.23310881796E+03  0.17228380911E+03 0.  0.
        -24    2    5    5    0    0 -0.16365922302E+02 -0.48324594783E+02  0.87632109126E+02  0.12802217135E+03  0.78148448056E+02 0.  0.
          5    1    3    3  501    0  0.61993106831E+02 -0.29109831720E+02  0.10055636465E+03  0.12175467165E+03  0.47000000000E+01 0. -1.
        -13    1    4    4    0    0 -0.24523519548E+02  0.34402998222E+02  0.21724720683E+03  0.22131723424E+03  0.00000000000E+00 0.  1.
         14    1    4    4    0    0 -0.13108070451E+02 -0.40165789060E+02  0.15110491914E+03  0.15690063324E+03  0.00000000000E+00 0. -1.
         -5    1    5    5    0  502 -0.79955945304E+01  0.83197217342E+02  0.63524851755E+02  0.10508664661E+03  0.47000000000E+01 0.  1.
         13    1    6    6    0    0  0.15539904026E+02 -0.36974129778E+02  0.85082448711E+02  0.94061671092E+02  0.00000000000E+00 0. -1.
        -14    1    6    6    0    0 -0.31905826328E+02 -0.11350465006E+02  0.25496604146E+01  0.33960500258E+02  0.00000000000E+00 0.  1.
</event>
<event>
12    1  0.9966151E-001  0.1837389E+03  0.7818608E-02  0.1164306E+00
         21   -1    0    0  503  502  0.00000000000E+00  0.00000000000E+00  0.10036171745E+03  0.10036171745E+03  0.00000000000E+00 0. -1.
         21   -1    0    0  501  503 -0.00000000000E+00 -0.00000000000E+00 -0.93544894144E+03  0.93544894144E+03  0.00000000000E+00 0. -1.
          6    2    1    2  501    0 -0.35239983156E+02  0.54142203870E+02 -0.83206881457E+03  0.85204701238E+03  0.17167517139E+03 0.  0.
         24    2    3    3    0    0  0.28956510870E+02  0.14080222823E+01 -0.23192639343E+03  0.24616327815E+03  0.77240180547E+02 0.  0.
         -6    2    1    2    0  502  0.35239983156E+02 -0.54142203870E+02 -0.30184094201E+01  0.18376364650E+03  0.17200794263E+03 0.  0.
        -24    2    5    5    0    0  0.61924688105E+02 -0.53358161782E+02 -0.53274388757E+02  0.12666336928E+03  0.80769351822E+02 0.  0.
          5    1    3    3  501    0 -0.64196494026E+02  0.52734181588E+02 -0.60014242114E+03  0.60588373423E+03  0.47000000000E+01 0. -1.
        -11    1    4    4    0    0 -0.92717935162E+01 -0.13165564965E+02 -0.17670804929E+03  0.17744022357E+03  0.00000000000E+00 0.  1.
         12    1    4    4    0    0  0.38228304386E+02  0.14573587247E+02 -0.55218344146E+02  0.68723054586E+02  0.00000000000E+00 0. -1.
         -5    1    5    5    0  502 -0.26684704949E+02 -0.78404208823E+00  0.50255979337E+02  0.57100277227E+02  0.47000000000E+01 0.  1.
         13    1    6    6    0    0  0.16951039700E+02 -0.39799948270E+02  0.13235142763E+02  0.45238729349E+02  0.00000000000E+00 0. -1.
        -14    1    6    6    0    0  0.44973648405E+02 -0.13558213512E+02 -0.66509531520E+02  0.81424639928E+02  0.00000000000E+00 0.  1.
</event>
<event>
12    1  0.9966151E-001  0.2107179E+03  0.7818608E-02  0.1141082E+00
         21   -1    0    0  501  502  0.00000000000E+00  0.00000000000E+00  0.25009122733E+03  0.25009122733E+03  0.00000000000E+00 0. -1.
         21   -1    0    0  502  503 -0.00000000000E+00 -0.00000000000E+00 -0.23971554259E+03  0.23971554259E+03  0.00000000000E+00 0. -1.
         -6    2    1    2    0  503  0.95412076255E+02  0.78245332418E+02  0.13027055904E+03  0.24773464776E+03  0.17081054069E+03 0.  0.
        -24    2    3    3    0    0  0.96819973930E+02  0.35380918788E+02  0.23817350157E+02  0.13287074650E+03  0.80383159565E+02 0.  0.
          6    2    1    2  501    0 -0.95412076255E+02 -0.78245332418E+02 -0.11989487429E+03  0.24207212216E+03  0.17028897529E+03 0.  0.
         24    2    5    5    0    0 -0.84864555296E+02 -0.41729618571E+02 -0.14797829913E+03  0.19458089868E+03  0.83790186212E+02 0.  0.
          5    1    5    5  501    0 -0.10547520959E+02 -0.36515713847E+02  0.28083424846E+02  0.47491223475E+02  0.47000000000E+01 0. -1.
        -13    1    6    6    0    0 -0.83455662416E+02 -0.51417582322E+02 -0.81766968989E+02  0.12764972612E+03  0.00000000000E+00 0.  1.
         14    1    6    6    0    0 -0.14088928798E+01  0.96879637504E+01 -0.66211330145E+02  0.66931172561E+02  0.00000000000E+00 0. -1.
         -5    1    3    3    0  503 -0.14078976744E+01  0.42864413629E+02  0.10645320888E+03  0.11486390126E+03  0.47000000000E+01 0.  1.
         13    1    4    4    0    0  0.89520164368E+02  0.57914005175E+02  0.23515850957E+02  0.10918281490E+03  0.00000000000E+00 0. -1.
        -14    1    4    4    0    0  0.72998095615E+01 -0.22533086386E+02  0.30149920060E+00  0.23687931600E+02  0.00000000000E+00 0.  1.
</event>
<event>
12    1  0.9966151E-001  0.1871898E+03  0.7818608E-02  0.1161499E+00
         21   -1    0    0  501  502  0.00000000000E+00  0.00000000000E+00  0.36218727857E+03  0.36218727857E+03  0.00000000000E+00 0. -1.
         21   -1    0    0  502  503 -0.00000000000E+00 -0.00000000000E+00 -0.22752389775E+03  0.22752389775E+03  0.00000000000E+00 0. -1.
         -6    2    1    2    0  503 -0.28851006112E+02 -0.64269238251E+02  0.29194206159E+03  0.34679993472E+03  0.17342754065E+03 0.  0.
        -24    2    3    3    0    0  0.16777193538E+02 -0.80925285939E+02  0.11616472707E+03  0.16437428449E+03  0.81818613167E+02 0.  0.
          6    2    1    2  501    0  0.28851006112E+02  0.64269238251E+02 -0.15727868078E+03  0.24291124160E+03  0.17119104045E+03 0.  0.
         24    2    5    5    0    0  0.70930398712E+02  0.66549341786E+02 -0.64458326286E+02  0.14086428005E+03  0.78917255490E+02 0.  0.
          5    1    5    5  501    0 -0.42079392600E+02 -0.22801035348E+01 -0.92820354490E+02  0.10204696155E+03  0.47000000000E+01 0. -1.
        -13    1    6    6    0    0  0.46822027565E+02  0.12117794252E+02 -0.65381222229E+02  0.81325564388E+02  0.00000000000E+00 0.  1.
         14    1    6    6    0    0  0.24108371147E+02  0.54431547534E+02  0.92289594304E+00  0.59538715666E+02  0.00000000000E+00 0. -1.
         -5    1    3    3    0  503 -0.45628199650E+02  0.16656047688E+02  0.17577733453E+03  0.18242565023E+03  0.47000000000E+01 0.  1.
         11    1    4    4    0    0 -0.10076221114E+02  0.33304254485E+01 -0.70276731313E+01  0.12728320991E+02  0.00000000000E+00 0. -1.
        -12    1    4    4    0    0  0.26853414652E+02 -0.84255711388E+02  0.12319240020E+03  0.15164596350E+03  0.00000000000E+00 0.  1.
</event>
<event>
12    1  0.9966151E-001  0.2723780E+03  0.7818608E-02  0.1100004E+00
         21   -1    0    0  503  502  0.00000000000E+00  0.00000000000E+00  0.23861291143E+03  0.23861291143E+03  0.00000000000E+00 0. -1.
         21   -1    0    0  501  503 -0.00000000000E+00 -0.00000000000E+00 -0.31385413962E+03  0.31385413962E+03  0.00000000000E+00 0. -1.
          6    2    1    2  501    0  0.20130437763E+03  0.60863692041E+02 -0.82556170880E+01  0.27250309426E+03  0.17309517529E+03 0.  0.
         24    2    3    3    0    0  0.14445556625E+03 -0.23915024424E+02  0.15573092635E+02  0.16757876187E+03  0.80004882364E+02 0.  0.
         -6    2    1    2    0  502 -0.20130437763E+03 -0.60863692041E+02 -0.66985611106E+02  0.27996395679E+03  0.17223502415E+03 0.  0.
        -24    2    5    5    0    0 -0.15718355813E+03  0.20287723317E+02 -0.58229122580E+02  0.18706096965E+03  0.80516538587E+02 0.  0.
          5    1    3    3  501    0  0.56848811380E+02  0.84778716465E+02 -0.23828709723E+02  0.10492433239E+03  0.47000000000E+01 0. -1.
        -13    1    4    4    0    0  0.46508406459E+02  0.16460541102E+02  0.34174369698E+02  0.60015571554E+02  0.00000000000E+00 0.  1.
         14    1    4    4    0    0  0.97947159794E+02 -0.40375565526E+02 -0.18601277063E+02  0.10756319032E+03  0.00000000000E+00 0. -1.
         -5    1    5    5    0  502 -0.44120819501E+02 -0.81151415358E+02 -0.87564885259E+01  0.92902987139E+02  0.47000000000E+01 0.  1.
         13    1    6    6    0    0  0.82083635935E+00  0.14760866039E+02  0.65930438489E+01  0.16187191410E+02  0.00000000000E+00 0. -1.
        -14    1    6    6    0    0 -0.15800439449E+03  0.55268572783E+01 -0.64822166429E+02  0.17087377824E+03  0.00000000000E+00 0.  1.
</event>
<event>
12    1  0.9966151E-001  0.2225973E+03  0.7818608E-02  0.1132768E+00
         21   -1    0    0  503  502  0.00000000000E+00  0.00000000000E+00  0.33718527855E+02  0.33718527855E+02  0.00000000000E+00 0.  1.
         21   -1    0    0  501  503 -0.00000000000E+00 -0.00000000000E+00 -0.16312470166E+04  0.16312470166E+04  0.00000000000E+00 0.  1.
          6    2    1    2  501    0  0.14067367779E+03 -0.87562568309E+01 -0.50749013658E+03  0.55243097083E+03  0.16663728020E+03 0.  0.
         24    2    3    3    0    0  0.42302475827E+02  0.31844978242E+02 -0.33739854694E+03  0.35173569802E+03  0.84122646655E+02 0.  0.
         -6    2    1    2    0  502 -0.14067367779E+03  0.87562568309E+01 -0.10900383522E+04  0.11125345736E+04  0.17228990877E+03 0.  0.
        -24    2    5    5    0    0 -0.16484190208E+03 -0.20322389862E+02 -0.94461041739E+03  0.96219813436E+03  0.77139852880E+02 0.  0.
          5    1    3    3  501    0  0.98371201960E+02 -0.40601235073E+02 -0.17009158963E+03  0.20069527281E+03  0.47000000000E+01 0. -1.
        -13    1    4    4    0    0  0.17888575317E+02  0.59647775022E+02 -0.20296127000E+03  0.21229963568E+03  0.00000000000E+00 0.  1.
         14    1    4    4    0    0  0.24413900510E+02 -0.27802796780E+02 -0.13443727694E+03  0.13943606233E+03  0.00000000000E+00 0. -1.
         -5    1    5    5    0  502  0.24168224298E+02  0.29078646693E+02 -0.14542793479E+03  0.15033643928E+03  0.47000000000E+01 0.  1.
         13    1    6    6    0    0 -0.10941640185E+03  0.63837080194E+01 -0.42287624287E+03  0.43684896418E+03  0.00000000000E+00 0. -1.
        -14    1    6    6    0    0 -0.55425500230E+02 -0.26706097881E+02 -0.52173417452E+03  0.52534917017E+03  0.00000000000E+00 0.  1.
</event>
<event>
12    1  0.9966151E-001  0.3986070E+03  0.7818608E-02  0.1044420E+00
         21   -1    0    0  503  502  0.00000000000E+00  0.00000000000E+00  0.41153332262E+03  0.41153332262E+03  0.00000000000E+00 0.  1.
         21   -1    0    0  501  503 -0.00000000000E+00 -0.00000000000E+00 -0.69156137221E+03  0.69156137221E+03  0.00000000000E+00 0. -1.
          6    2    1    2  501    0 -0.33989391567E+03  0.11164866767E+03  0.22777218026E+03  0.45753401595E+03  0.17165054835E+03 0.  0.
         24    2    3    3    0    0 -0.27717673197E+03  0.30105593310E+02  0.13867168120E+03  0.32135873537E+03  0.79424896222E+02 0.  0.
         -6    2    1    2    0  502  0.33989391567E+03 -0.11164866767E+03 -0.50780022986E+03  0.64556067888E+03  0.17576751059E+03 0.  0.
        -24    2    5    5    0    0  0.12667554819E+03 -0.20860969241E+02 -0.29170914214E+03  0.32866649054E+03  0.80284269002E+02 0.  0.
          5    1    3    3  501    0 -0.62717183700E+02  0.81543074361E+02  0.89100499060E+02  0.13617528058E+03  0.47000000000E+01 0. -1.
        -11    1    4    4    0    0 -0.25241886277E+03  0.24369302175E+02  0.14877294119E+03  0.29401111067E+03  0.00000000000E+00 0.  1.
         12    1    4    4    0    0 -0.24757869203E+02  0.57362911349E+01 -0.10101259988E+02  0.27347624701E+02  0.00000000000E+00 0. -1.
         -5    1    5    5    0  502  0.21321836748E+03 -0.90787698429E+02 -0.21609108772E+03  0.31689418835E+03  0.47000000000E+01 0.  1.
         11    1    6    6    0    0  0.67310421804E+02  0.29025546516E+02 -0.12750313806E+03  0.14707217768E+03  0.00000000000E+00 0. -1.
        -12    1    6    6    0    0  0.59365126383E+02 -0.49886515758E+02 -0.16420600408E+03  0.18159431285E+03  0.00000000000E+00 0.  1.
</event>
<event>
12    1  0.9966151E-001  0.2293552E+03  0.7818608E-02  0.1127216E+00
         21   -1    0    0  501  502  0.00000000000E+00  0.00000000000E+00  0.85637705263E+02  0.85637705263E+02  0.00000000000E+00 0. -1.
         21   -1    0    0  502  503 -0.00000000000E+00 -0.00000000000E+00 -0.63235887682E+03  0.63235887682E+03  0.00000000000E+00 0. -1.
         -6    2    1    2    0  503 -0.84522691387E+02 -0.12468750245E+03 -0.20920368619E+03  0.30992567593E+03  0.17203686715E+03 0.  0.
        -24    2    3    3    0    0 -0.90754581300E+00 -0.44593087509E+02 -0.30358507096E+02  0.96819373914E+02  0.80392693194E+02 0.  0.
          6    2    1    2  501    0  0.84522691387E+02  0.12468750245E+03 -0.33751748537E+03  0.40807090615E+03  0.17295303667E+03 0.  0.
         24    2    5    5    0    0 -0.14103923692E+02  0.25068360261E+02 -0.85758809265E+02  0.11987704139E+03  0.78667581233E+02 0.  0.
          5    1    5    5  501    0  0.98626615079E+02  0.99619142188E+02 -0.25175867610E+03  0.28819386476E+03  0.47000000000E+01 0. -1.
        -11    1    6    6    0    0  0.26672793432E+02  0.24851325399E+02 -0.64007174652E+02  0.73661012011E+02  0.00000000000E+00 0.  1.
         12    1    6    6    0    0 -0.40776717124E+02  0.21703486165E+00 -0.21751634612E+02  0.46216029382E+02  0.00000000000E+00 0. -1.
         -5    1    3    3    0  503 -0.83615145574E+02 -0.80094414940E+02 -0.17884517910E+03  0.21310630202E+03  0.47000000000E+01 0.  1.
         13    1    4    4    0    0 -0.31110583232E+01  0.21550312786E+02 -0.20506367475E+02  0.29909961085E+02  0.00000000000E+00 0. -1.
        -14    1    4    4    0    0  0.22035125102E+01 -0.66143400295E+02 -0.98521396216E+01  0.66909412829E+02  0.00000000000E+00 0.  1.
</event>
<event>
12    1  0.9966151E-001  0.2274012E+03  0.7818608E-02  0.1128594E+00
         21   -1    0    0  503  502  0.00000000000E+00  0.00000000000E+00  0.50438967762E+02  0.50438967762E+02  0.00000000000E+00 0. -1.
         21   -1    0    0  501  503 -0.00000000000E+00 -0.00000000000E+00 -0.10256515641E+04  0.10256515641E+04  0.00000000000E+00 0. -1.
          6    2    1    2  501    0 -0.14094852653E+03  0.43340601996E+02 -0.45673871673E+03  0.50993997310E+03  0.17228936676E+03 0.  0.
         24    2    3    3    0    0 -0.34030522924E+02  0.48761972285E+02 -0.32380013213E+03  0.33918983980E+03  0.81654243127E+02 0.  0.
         -6    2    1    2    0  502  0.14094852653E+03 -0.43340601996E+02 -0.51847387960E+03  0.56615055875E+03  0.17310804843E+03 0.  0.
        -24    2    5    5    0    0  0.15168025315E+03 -0.42130602991E+02 -0.30696641705E+03  0.35431540876E+03  0.80803098864E+02 0.  0.
          5    1    3    3  501    0 -0.10691800360E+03 -0.54213702888E+01 -0.13293858460E+03  0.17075013331E+03  0.47000000000E+01 0. -1.
        -11    1    4    4    0    0 -0.28935242894E+02  0.31045904058E+02 -0.53625587204E+02  0.68387133607E+02  0.00000000000E+00 0.  1.
         12    1    4    4    0    0 -0.50952800305E+01  0.17716068228E+02 -0.27017454493E+03  0.27080270619E+03  0.00000000000E+00 0. -1.
         -5    1    5    5    0  502 -0.10731726627E+02 -0.12099990053E+01 -0.21150746255E+03  0.21183514998E+03  0.47000000000E+01 0.  1.
         11    1    6    6    0    0 -0.83406892550E+01 -0.96229015358E+01 -0.33083471960E+02  0.35449731285E+02  0.00000000000E+00 0. -1.
        -12    1    6    6    0    0  0.16002094241E+03 -0.32507701455E+02 -0.27388294509E+03  0.31886567748E+03  0.00000000000E+00 0.  1.
</event>
<event>
12    1  0.9966151E-001  0.2299249E+03  0.7818608E-02  0.1127414E+00
         21   -1    0    0  501  502  0.00000000000E+00  0.00000000000E+00  0.46590990433E+03  0.46590990433E+03  0.00000000000E+00 0.  1.
         21   -1    0    0  502  503 -0.00000000000E+00 -0.00000000000E+00 -0.26106334808E+03  0.26106334808E+03  0.00000000000E+00 0.  1.
         -6    2    1    2    0  503 -0.11787696186E+02  0.15250645414E+03  0.37795810709E+03  0.44240002147E+03  0.17166327490E+03 0.  0.
        -24    2    3    3    0    0 -0.73238619717E+02  0.87018938300E+02  0.25652043851E+03  0.29129069653E+03  0.78175082181E+02 0.  0.
          6    2    1    2  501    0  0.11787696186E+02 -0.15250645414E+03 -0.17311155083E+03  0.28457323093E+03  0.16618407384E+03 0.  0.
         24    2    5    5    0    0 -0.16386621897E+02 -0.10001506774E+03 -0.34634487804E+02  0.13375173104E+03  0.80115183697E+02 0.  0.
          5    1    5    5  501    0  0.28174318083E+02 -0.52491386398E+02 -0.13847706303E+03  0.15082149989E+03  0.47000000000E+01 0. -1.
        -13    1    6    6    0    0  0.69939900247E+01 -0.85012630261E+02  0.48914474025E+01  0.85439975761E+02  0.00000000000E+00 0.  1.
         14    1    6    6    0    0 -0.23380611922E+02 -0.15002437477E+02 -0.39525935207E+02  0.48311755278E+02  0.00000000000E+00 0. -1.
         -5    1    3    3    0  503  0.61450923531E+02  0.65487515836E+02  0.12143766858E+03  0.15110932494E+03  0.47000000000E+01 0.  1.
         11    1    4    4    0    0 -0.49316446296E+02  0.34196160473E+02  0.20539932939E+03  0.21398685422E+03  0.00000000000E+00 0. -1.
        -12    1    4    4    0    0 -0.23922173421E+02  0.52822777827E+02  0.51121109117E+02  0.77303842310E+02  0.00000000000E+00 0.  1.
</event>
<event>
12    1  0.9966151E-001  0.2949463E+03  0.7818608E-02  0.1087896E+00
         21   -1    0    0  503  502  0.00000000000E+00  0.00000000000E+00  0.69059202685E+02  0.69059202685E+02  0.00000000000E+00 0.  1.
         21   -1    0    0  501  503 -0.00000000000E+00 -0.00000000000E+00 -0.12934575159E+04  0.12934575159E+04  0.00000000000E+00 0.  1.
          6    2    1    2  501    0 -0.11809978286E+03  0.20798911636E+03 -0.72687417431E+03  0.78413656811E+03  0.17122225594E+03 0.  0.
         24    2    3    3    0    0 -0.90149183515E+02  0.52933344145E+02 -0.26794966688E+03  0.29889711998E+03  0.81324351456E+02 0.  0.
         -6    2    1    2    0  502  0.11809978286E+03 -0.20798911636E+03 -0.49752413890E+03  0.57838015047E+03  0.17258707493E+03 0.  0.
        -24    2    5    5    0    0  0.11776464756E+03 -0.22590874628E+03 -0.41481260884E+03  0.49361864590E+03  0.81771592050E+02 0.  0.
          5    1    3    3  501    0 -0.27950599345E+02  0.15505577222E+03 -0.45892450743E+03  0.48523944813E+03  0.47000000000E+01 0. -1.
        -11    1    4    4    0    0 -0.35540819808E+02  0.26314554957E+02 -0.21114478516E+03  0.21572604381E+03  0.00000000000E+00 0.  1.
         12    1    4    4    0    0 -0.54608363707E+02  0.26618789187E+02 -0.56804881716E+02  0.83171076170E+02  0.00000000000E+00 0. -1.
         -5    1    5    5    0  502  0.33513530337E+00  0.17919629921E+02 -0.82711530062E+02  0.84761504572E+02  0.47000000000E+01 0.  1.
         13    1    6    6    0    0 -0.14111629573E+01 -0.21033088604E+02 -0.84362560559E+02  0.86956447841E+02  0.00000000000E+00 0. -1.
        -14    1    6    6    0    0  0.11917581051E+03 -0.20487565768E+03 -0.33045004828E+03  0.40666219806E+03  0.00000000000E+00 0.  1.
</event>
<event>
12    1  0.9966151E-001  0.3940055E+03  0.7818608E-02  0.1045922E+00
         21   -1    0    0  501  502  0.00000000000E+00  0.00000000000E+00  0.86514109825E+03  0.86514109825E+03  0.00000000000E+00 0.  1.
         21   -1    0    0  502  503 -0.00000000000E+00 -0.00000000000E+00 -0.21814384795E+03  0.21814384795E+03  0.00000000000E+00 0.  1.
         -6    2    1    2    0  503  0.33781692374E+03  0.10670657004E+03  0.55217370741E+03  0.67802967624E+03  0.17123630648E+03 0.  0.
        -24    2    3    3    0    0  0.23616643049E+03  0.68332164738E+02  0.48512479506E+03  0.55026792763E+03  0.83695028353E+02 0.  0.
          6    2    1    2  501    0 -0.33781692374E+03 -0.10670657004E+03  0.94823542893E+02  0.40525526995E+03  0.17243480935E+03 0.  0.
         24    2    5    5    0    0 -0.88940006429E+02 -0.77026292241E+02  0.20623345252E+02  0.14382000417E+03  0.80096796376E+02 0.  0.
          5    1    5    5  501    0 -0.24887691731E+03 -0.29680277803E+02  0.74200197641E+02  0.26143526578E+03  0.47000000000E+01 0. -1.
        -13    1    6    6    0    0 -0.22085720377E+02  0.12980602489E+02 -0.10148187527E+02  0.27554687362E+02  0.00000000000E+00 0.  1.
         14    1    6    6    0    0 -0.66854286052E+02 -0.90006894730E+02  0.30771532779E+02  0.11626531681E+03  0.00000000000E+00 0. -1.
         -5    1    3    3    0  503  0.10165049325E+03  0.38374405307E+02  0.67048912349E+02  0.12776174861E+03  0.47000000000E+01 0.  1.
         13    1    4    4    0    0  0.39658809187E+02 -0.17890592134E+02  0.10677570078E+03  0.11529936995E+03  0.00000000000E+00 0. -1.
        -14    1    4    4    0    0  0.19650762130E+03  0.86222756872E+02  0.37834909428E+03  0.43496855768E+03  0.00000000000E+00 0.  1.
</event>
<event>
12    1  0.9966151E-001  0.1791642E+03  0.7818608E-02  0.1168783E+00
         21   -1    0    0  501  502  0.00000000000E+00  0.00000000000E+00  0.83062038971E+02  0.83062038971E+02  0.00000000000E+00 0.  1.
         21   -1    0    0  502  503 -0.00000000000E+00 -0.00000000000E+00 -0.39047413248E+03  0.39047413248E+03  0.00000000000E+00 0.  1.
         -6    2    1    2    0  503  0.41275441807E+02  0.29148584341E+02 -0.12529508702E+03  0.21806321440E+03  0.17117068842E+03 0.  0.
        -24    2    3    3    0    0  0.51598791928E+02 -0.35680351452E+02 -0.36865811761E+02  0.10783078180E+03  0.79579310237E+02 0.  0.
          6    2    1    2  501    0 -0.41275441807E+02 -0.29148584341E+02 -0.18211700648E+03  0.25547295705E+03  0.17189102847E+03 0.  0.
         24    2    5    5    0    0  0.62875033762E+01  0.18883491349E+01 -0.21956273260E+02  0.85475676305E+02  0.82346309833E+02 0.  0.
          5    1    5    5  501    0 -0.47562945183E+02 -0.31036933476E+02 -0.16016073322E+03  0.16999728075E+03  0.47000000000E+01 0. -1.
        -13    1    6    6    0    0  0.64611972765E+00  0.25226594689E+02 -0.45384914835E+02  0.51928691923E+02  0.00000000000E+00 0.  1.
         14    1    6    6    0    0  0.56413836485E+01 -0.23338245554E+02  0.23428641575E+02  0.33546984381E+02  0.00000000000E+00 0. -1.
         -5    1    3    3    0  503 -0.10323350122E+02  0.64828935793E+02 -0.88429275261E+02  0.11023243260E+03  0.47000000000E+01 0.  1.
         13    1    4    4    0    0  0.62982829857E+02 -0.12265916663E+02 -0.18450138640E+01  0.64192629207E+02  0.00000000000E+00 0. -1.
        -14    1    4    4    0    0 -0.11384037928E+02 -0.23414434790E+02 -0.35020797897E+02  0.43638152590E+02  0.00000000000E+00 0.  1.
</event>
<event>
12    1  0.9966151E-001  0.3452761E+03  0.7818608E-02  0.1064644E+00
         21   -1    0    0  501  502  0.00000000000E+00  0.00000000000E+00  0.30245963265E+03  0.30245963265E+03  0.00000000000E+00 0.  1.
         21   -1    0    0  502  503 -0.00000000000E+00 -0.00000000000E+00 -0.56185804734E+03  0.56185804734E+03  0.00000000000E+00 0.  1.
         -6    2    1    2    0  503  0.97696960757E+02 -0.28307431169E+03  0.10705438202E+03  0.36082662125E+03  0.17046831910E+03 0.  0.
        -24    2    3    3    0    0  0.29105481999E+02 -0.25774111979E+03  0.85065028331E+02  0.28432705756E+03  0.79550001261E+02 0.  0.
          6    2    1    2  501    0 -0.97696960757E+02  0.28307431169E+03 -0.36645279671E+03  0.50349105873E+03  0.17187155647E+03 0.  0.
         24    2    5    5    0    0 -0.41352236720E+02  0.26378934033E+03 -0.25618403912E+03  0.37808002673E+03  0.77584928679E+02 0.  0.
          5    1    5    5  501    0 -0.56344724036E+02  0.19284971359E+02 -0.11026875759E+03  0.12541103200E+03  0.47000000000E+01 0. -1.
        -13    1    6    6    0    0  0.10047062839E+02  0.12333692137E+02 -0.67181065657E+00  0.15922146934E+02  0.00000000000E+00 0.  1.
         14    1    6    6    0    0 -0.51399299559E+02  0.25145564819E+03 -0.25551222847E+03  0.36215787980E+03  0.00000000000E+00 0. -1.
         -5    1    3    3    0  503  0.68591478758E+02 -0.25333191895E+02  0.21989353692E+02  0.76499563696E+02  0.47000000000E+01 0.  1.
         13    1    4    4    0    0  0.43237227222E+02 -0.65566436009E+02  0.27593112748E+02  0.83245391584E+02  0.00000000000E+00 0. -1.
        -14    1    4    4    0    0 -0.14131745224E+02 -0.19217468378E+03  0.57471915582E+02  0.20108166597E+03  0.00000000000E+00 0.  1.
</event>
<event>
12    1  0.9966151E-001  0.2096543E+03  0.7818608E-02  0.1141859E+00
         21   -1    0    0  501  502  0.00000000000E+00  0.00000000000E+00  0.17207516366E+03  0.17207516366E+03  0.00000000000E+00 0. -1.
         21   -1    0    0  502  503 -0.00000000000E+00 -0.00000000000E+00 -0.25548426542E+03  0.25548426542E+03  0.00000000000E+00 0. -1.
         -6    2    1    2    0  503 -0.11760073391E+03 -0.25096118386E+02 -0.36350424388E+02  0.21278227257E+03  0.17174165014E+03 0.  0.
        -24    2    3    3    0    0 -0.48976722609E+02  0.35555259227E+02 -0.63484575421E+02  0.11714652253E+03  0.77653851212E+02 0.  0.
          6    2    1    2  501    0  0.11760073391E+03  0.25096118386E+02 -0.47058677363E+02  0.21477715651E+03  0.17162447398E+03 0.  0.
         24    2    5    5    0    0  0.70589382781E+02  0.32160059431E+02 -0.95831990633E+02  0.14650642716E+03  0.79140586215E+02 0.  0.
          5    1    5    5  501    0  0.47011351133E+02 -0.70639410449E+01  0.48773313270E+02  0.68270729348E+02  0.47000000000E+01 0. -1.
        -11    1    6    6    0    0  0.50213197048E+02  0.18674306750E+01 -0.73422866738E+01  0.50781508728E+02  0.00000000000E+00 0.  1.
         12    1    6    6    0    0  0.20376185733E+02  0.30292628756E+02 -0.88489703959E+02  0.95724918432E+02  0.00000000000E+00 0. -1.
         -5    1    3    3    0  503 -0.68624011305E+02 -0.60651377613E+02  0.27134151033E+02  0.95635750043E+02  0.47000000000E+01 0.  1.
         11    1    4    4    0    0 -0.48420949631E+02 -0.12757504940E+02 -0.34416328037E+02  0.60760397720E+02  0.00000000000E+00 0. -1.
        -12    1    4    4    0    0 -0.55577297846E+00  0.48312764167E+02 -0.29068247384E+02  0.56386124810E+02  0.00000000000E+00 0.  1.
</event>
<event>
12    1  0.9966151E-001  0.2500634E+03  0.7818608E-02  0.1113807E+00
         21   -1    0    0  501  502  0.00000000000E+00  0.00000000000E+00  0.14175086811E+03  0.14175086811E+03  0.00000000000E+00 0. -1.
         21   -1    0    0  502  503 -0.00000000000E+00 -0.00000000000E+00 -0.44570147963E+03  0.44570147963E+03  0.00000000000E+00 0. -1.
         -6    2    1    2    0  503  0.74308946905E+02  0.16013015017E+03 -0.19820457128E+03  0.31908740308E+03  0.17711079623E+03 0.  0.
        -24    2    3    3    0    0 -0.15658661902E+02  0.11230610807E+03 -0.15609403248E+03  0.20873933053E+03  0.79680019651E+02 0.  0.
          6    2    1    2  501    0 -0.74308946905E+02 -0.16013015017E+03 -0.10574604023E+03  0.26836494467E+03  0.17226152768E+03 0.  0.
         24    2    5    5    0    0 -0.49726936446E+02 -0.18376739855E+03 -0.10905832440E+03  0.23378090246E+03  0.80725257865E+02 0.  0.
          5    1    5    5  501    0 -0.24582010458E+02  0.23637248381E+02  0.33122841609E+01  0.34584042210E+02  0.47000000000E+01 0. -1.
        -13    1    6    6    0    0 -0.20840979341E+01 -0.54111659110E+02 -0.73231521369E+02  0.91078377444E+02  0.00000000000E+00 0.  1.
         14    1    6    6    0    0 -0.47642838512E+02 -0.12965573944E+03 -0.35826803027E+02  0.14270252501E+03  0.00000000000E+00 0. -1.
         -5    1    3    3    0  503  0.89967608807E+02  0.47824042095E+02 -0.42110538807E+02  0.11034807255E+03  0.47000000000E+01 0.  1.
         13    1    4    4    0    0 -0.19790015591E+02  0.22421816230E+02 -0.95968728029E+02  0.10052054178E+03  0.00000000000E+00 0. -1.
        -14    1    4    4    0    0  0.41313536888E+01  0.89884291842E+02 -0.60125304447E+02  0.10821878875E+03  0.00000000000E+00 0.  1.
</event>
<event>
12    1  0.9966151E-001  0.2411717E+03  0.7818608E-02  0.1119329E+00
         21   -1    0    0  503  502  0.00000000000E+00  0.00000000000E+00  0.82880494050E+02  0.82880494050E+02  0.00000000000E+00 0.  1.
         21   -1    0    0  501  503 -0.00000000000E+00 -0.00000000000E+00 -0.20278086768E+04  0.20278086768E+04  0.00000000000E+00 0.  1.
          6    2    1    2  501    0 -0.16160501091E+03 -0.35053987281E+02 -0.11597491270E+03  0.26590358767E+03  0.17294385212E+03 0.  0.
         24    2    3    3    0    0 -0.17458156057E+03 -0.43281816247E+02 -0.58587699021E+02  0.20630937399E+03  0.82334697484E+02 0.  0.
         -6    2    1    2    0  502  0.16160501091E+03  0.35053987281E+02 -0.18289532700E+04  0.18447855832E+04  0.17555290457E+03 0.  0.
        -24    2    5    5    0    0  0.14497615704E+03 -0.26201926815E+02 -0.15362715609E+04  0.15452634994E+04  0.77487719735E+02 0.  0.
          5    1    3    3  501    0  0.12976549658E+02  0.82278289665E+01 -0.57387213682E+02  0.59594213685E+02  0.47000000000E+01 0. -1.
        -13    1    4    4    0    0 -0.10648955388E+03  0.12777643974E+02 -0.47903047462E+02  0.11746486806E+03  0.00000000000E+00 0.  1.
         14    1    4    4    0    0 -0.68092006691E+02 -0.56059460221E+02 -0.10684651559E+02  0.88844505933E+02  0.00000000000E+00 0. -1.
         -5    1    5    5    0  502  0.16628853875E+02  0.61255914095E+02 -0.29268170916E+03  0.29952208378E+03  0.47000000000E+01 0.  1.
         11    1    6    6    0    0  0.13779381498E+03 -0.44362559367E+01 -0.11357946602E+04  0.11441312539E+04  0.00000000000E+00 0. -1.
        -12    1    6    6    0    0  0.71823420611E+01 -0.21765670878E+02 -0.40047690062E+03  0.40113224552E+03  0.00000000000E+00 0.  1.
</event>
<event>
12    1  0.9966151E-001  0.2007027E+03  0.7818608E-02  0.1149612E+00
         21   -1    0    0  503  502  0.00000000000E+00  0.00000000000E+00  0.21149677412E+03  0.21149677412E+03  0.00000000000E+00 0.  1.
         21   -1    0    0  501  503 -0.00000000000E+00 -0.00000000000E+00 -0.20554695593E+03  0.20554695593E+03  0.00000000000E+00 0.  1.
          6    2    1    2  501    0 -0.66139787873E+02 -0.77908434886E+02 -0.57272845282E+02  0.20871454202E+03  0.17273501521E+03 0.  0.
         24    2    3    3    0    0 -0.34359194538E+02 -0.11590607473E+03 -0.19019092494E+02  0.14595096701E+03  0.79531041002E+02 0.  0.
         -6    2    1    2    0  502  0.66139787873E+02  0.77908434886E+02  0.63222663476E+02  0.20832918803E+03  0.17017564350E+03 0.  0.
        -24    2    5    5    0    0  0.38050302138E+02  0.87334645405E+02  0.10131006568E+03  0.15984606869E+03  0.78815420372E+02 0.  0.
          5    1    3    3  501    0 -0.31780593335E+02  0.37997639842E+02 -0.38253752788E+02  0.62763575016E+02  0.47000000000E+01 0. -1.
        -11    1    4    4    0    0  0.23638117918E+02 -0.29248479348E+02 -0.17950347820E+02  0.41670722933E+02  0.00000000000E+00 0.  1.
         12    1    4    4    0    0 -0.57997312456E+02 -0.86657595380E+02 -0.10687446739E+01  0.10428024407E+03  0.00000000000E+00 0. -1.
         -5    1    5    5    0  502  0.28089485736E+02 -0.94262105186E+01 -0.38087402202E+02  0.48483119332E+02  0.47000000000E+01 0.  1.
         13    1    6    6    0    0  0.60087004942E+02  0.80140757410E+02  0.86435407558E+02  0.13230294343E+03  0.00000000000E+00 0. -1.
        -14    1    6    6    0    0 -0.22036702804E+02  0.71938879948E+01  0.14874658121E+02  0.27543125262E+02  0.00000000000E+00 0.  1.
</event>
<event>
12    1  0.9966151E-001  0.2597603E+03  0.7818608E-02  0.1107346E+00
         21   -1    0    0  503  502  0.00000000000E+00  0.00000000000E+00  0.13514600641E+03  0.13514600641E+03  0.00000000000E+00 0. -1.
         21   -1    0    0  501  503 -0.00000000000E+00 -0.00000000000E+00 -0.49954132305E+03  0.49954132305E+03  0.00000000000E+00 0.  1.
          6    2    1    2  501    0  0.83035793325E+02 -0.17558662468E+03 -0.19660971158E+03  0.32577723406E+03  0.17248136654E+03 0.  0.
         24    2    3    3    0    0  0.27206084164E+02 -0.85162101617E+02 -0.18470158205E+03  0.21873778178E+03  0.75754789940E+02 0.  0.
         -6    2    1    2    0  502 -0.83035793325E+02  0.17558662468E+03 -0.16778560506E+03  0.30891009540E+03  0.17189482840E+03 0.  0.
        -24    2    5    5    0    0 -0.88682886514E+02  0.19554511518E+03 -0.12489046219E+03  0.26103197631E+03  0.80234149083E+02 0.  0.
          5    1    3    3  501    0  0.55829709161E+02 -0.90424523063E+02 -0.11908129536E+02  0.10703945228E+03  0.47000000000E+01 0. -1.
        -13    1    4    4    0    0  0.31595748597E+02 -0.52962840506E+01 -0.85508878796E+02  0.91313253732E+02  0.00000000000E+00 0.  1.
         14    1    4    4    0    0 -0.43896644331E+01 -0.79865817566E+02 -0.99192703250E+02  0.12742452804E+03  0.00000000000E+00 0. -1.
         -5    1    5    5    0  502  0.56470931899E+01 -0.19958490504E+02 -0.42895142878E+02  0.47878119086E+02  0.47000000000E+01 0.  1.
         11    1    6    6    0    0 -0.27161736340E+02  0.14827564750E+03 -0.93184325481E+02  0.17721948560E+03  0.00000000000E+00 0. -1.
        -12    1    6    6    0    0 -0.61521150175E+02  0.47269467688E+02 -0.31706136706E+02  0.83812490711E+02  0.00000000000E+00 0.  1.
</event>
<event>
12    1  0.9966151E-001  0.3591059E+03  0.7818608E-02  0.1059231E+00
         21   -1    0    0  501  502  0.00000000000E+00  0.00000000000E+00  0.44780701541E+03  0.44780701541E+03  0.00000000000E+00 0.  1.
         21   -1    0    0  502  503 -0.00000000000E+00 -0.00000000000E+00 -0.28748814444E+03  0.28748814444E+03  0.00000000000E+00 0.  1.
         -6    2    1    2    0  503  0.11760866959E+03 -0.29190882964E+03  0.50886817356E+02  0.36269338075E+03  0.17295796101E+03 0.  0.
        -24    2    3    3    0    0  0.81779608734E+02 -0.10632787315E+03  0.73120982025E+02  0.17232410516E+03  0.79720751323E+02 0.  0.
          6    2    1    2  501    0 -0.11760866959E+03  0.29190882964E+03  0.10943205362E+03  0.37260177910E+03  0.16677573997E+03 0.  0.
         24    2    5    5    0    0 -0.13520227655E+03  0.16377220227E+03  0.67035698313E+02  0.23641047533E+03  0.79341906815E+02 0.  0.
          5    1    5    5  501    0  0.17593606954E+02  0.12813662736E+03  0.42396355304E+02  0.13619130376E+03  0.47000000000E+01 0. -1.
        -11    1    6    6    0    0 -0.45637234482E+02  0.25670269910E+02  0.47420948138E+02  0.70643232165E+02  0.00000000000E+00 0.  1.
         12    1    6    6    0    0 -0.89565042067E+02  0.13810193236E+03  0.19614750175E+02  0.16576724317E+03  0.00000000000E+00 0. -1.
         -5    1    3    3    0  503  0.35829060861E+02 -0.18558095649E+03 -0.22234164669E+02  0.19036927560E+03  0.47000000000E+01 0.  1.
         11    1    4    4    0    0  0.75069017289E+00 -0.55360336757E+02  0.48202325098E+02  0.73408409371E+02  0.00000000000E+00 0. -1.
        -12    1    4    4    0    0  0.81028918561E+02 -0.50967536394E+02  0.24918656927E+02  0.98915695784E+02  0.00000000000E+00 0.  1.
</event>
<event>
12    1  0.9966151E-001  0.3414499E+03  0.7818608E-02  0.1066919E+00
         21   -1    0    0  503  502  0.00000000000E+00  0.00000000000E+00  0.91867110906E+02  0.91867110906E+02  0.00000000000E+00 0.  1.
         21   -1    0    0  501  503 -0.00000000000E+00 -0.00000000000E+00 -0.12439234668E+04  0.12439234668E+04  0.00000000000E+00 0.  1.
          6    2    1    2  501    0 -0.29405422146E+03  0.27010401279E+02 -0.59292791179E+03  0.68421601891E+03  0.17143688349E+03 0.  0.
         24    2    3    3    0    0 -0.23604050139E+03  0.75312041640E+02 -0.40218285112E+03  0.47902243142E+03  0.79526235645E+02 0.  0.
         -6    2    1    2    0  502  0.29405422146E+03 -0.27010401279E+02 -0.55912844415E+03  0.65157455884E+03  0.15724929805E+03 0.  0.
        -24    2    5    5    0    0  0.21990064286E+03 -0.17999164107E+02 -0.29404636814E+03  0.37612846133E+03  0.79555579089E+02 0.  0.
          5    1    3    3  501    0 -0.58013720065E+02 -0.48301640361E+02 -0.19074506067E+03  0.20519358749E+03  0.47000000000E+01 0. -1.
        -13    1    4    4    0    0 -0.13322027571E+01 -0.43396116200E+00  0.37713562405E+01  0.40232094612E+01  0.00000000000E+00 0.  1.
         14    1    4    4    0    0 -0.23470829863E+03  0.75746002802E+02 -0.40595420736E+03  0.47499922196E+03  0.00000000000E+00 0. -1.
         -5    1    5    5    0  502  0.74153578593E+02 -0.90112371717E+01 -0.26508207601E+03  0.27544609751E+03  0.47000000000E+01 0.  1.
         11    1    6    6    0    0  0.12332931339E+03 -0.43351445985E+02 -0.20021194017E+03  0.23911145601E+03  0.00000000000E+00 0. -1.
        -12    1    6    6    0    0  0.96571329477E+02  0.25352281878E+02 -0.93834427971E+02  0.13701700532E+03  0.00000000000E+00 0.  1.
</event>
<event>
12    1  0.9966151E-001  0.1936602E+03  0.7818608E-02  0.1155446E+00
         21   -1    0    0  501  502  0.00000000000E+00  0.00000000000E+00  0.15295496130E+03  0.15295496130E+03  0.00000000000E+00 0.  1.
         21   -1    0    0  502  503 -0.00000000000E+00 -0.00000000000E+00 -0.29813964210E+03  0.29813964210E+03  0.00000000000E+00 0.  1.
         -6    2    1    2    0  503  0.50857643395E+02  0.72014817835E+02  0.23531912658E+02  0.19508462889E+03  0.17242861606E+03 0.  0.
        -24    2    3    3    0    0  0.72989390468E+01  0.10787029871E+03  0.29286024507E+01  0.13483877737E+03  0.80521073729E+02 0.  0.
          6    2    1    2  501    0 -0.50857643395E+02 -0.72014817835E+02 -0.16871659345E+03  0.25600997452E+03  0.17118172878E+03 0.  0.
         24    2    5    5    0    0  0.30331892414E+02 -0.59881127062E+02 -0.77541826910E+02  0.13323418199E+03  0.85046100760E+02 0.  0.
          5    1    5    5  501    0 -0.81189535809E+02 -0.12133690773E+02 -0.91174766545E+02  0.12277579253E+03  0.47000000000E+01 0. -1.
        -11    1    6    6    0    0  0.48325790799E+02 -0.59900604830E+01 -0.51034263901E+02  0.70539059909E+02  0.00000000000E+00 0.  1.
         12    1    6    6    0    0 -0.17993898385E+02 -0.53891066579E+02 -0.26507563008E+02  0.62695122081E+02  0.00000000000E+00 0. -1.
         -5    1    3    3    0  503  0.43558704348E+02 -0.35855480879E+02  0.20603310207E+02  0.60245851518E+02  0.47000000000E+01 0.  1.
         11    1    4    4    0    0  0.91617068041E+01  0.77764620823E+02 -0.35510154805E+02  0.85978161283E+02  0.00000000000E+00 0. -1.
        -12    1    4    4    0    0 -0.18627677574E+01  0.30105677891E+02  0.38438757256E+02  0.48860616087E+02  0.00000000000E+00 0.  1.
</event>
<event>
12    1  0.9966151E-001  0.1738897E+03  0.7818608E-02  0.1174341E+00
         21   -1    0    0  503  502  0.00000000000E+00  0.00000000000E+00  0.14272869256E+03  0.14272869256E+03  0.00000000000E+00 0.  1.
         21   -1    0    0  501  503 -0.00000000000E+00 -0.00000000000E+00 -0.32659572541E+03  0.32659572541E+03  0.00000000000E+00 0.  1.
          6    2    1    2  501    0  0.39402450267E+01  0.19244627997E+02  0.48893100739E+02  0.17878198811E+03  0.17084081109E+03 0.  0.
         24    2    3    3    0    0 -0.23397174297E+02  0.56452190681E+02  0.74642787785E+02  0.12570776085E+03  0.80601599060E+02 0.  0.
         -6    2    1    2    0  502 -0.39402450267E+01 -0.19244627997E+02 -0.23276013359E+03  0.29054242987E+03  0.17277656823E+03 0.  0.
        -24    2    5    5    0    0  0.48442523745E+02 -0.19446055811E+02 -0.21451091954E+03  0.23487269976E+03  0.80158738111E+02 0.  0.
          5    1    3    3  501    0  0.27337419324E+02 -0.37207562684E+02 -0.25749687046E+02  0.53074227259E+02  0.47000000000E+01 0. -1.
        -13    1    4    4    0    0  0.19966906818E+02 -0.36377528186E+00 -0.29795758532E+01  0.20191274665E+02  0.00000000000E+00 0.  1.
         14    1    4    4    0    0 -0.43364081116E+02  0.56815965963E+02  0.77622363638E+02  0.10551648618E+03  0.00000000000E+00 0. -1.
         -5    1    5    5    0  502 -0.52382768772E+02  0.20142781379E+00 -0.18249214043E+02  0.55669730110E+02  0.47000000000E+01 0.  1.
         13    1    6    6    0    0  0.17497181731E+02 -0.45426074794E+02 -0.73276727813E+02  0.87972487055E+02  0.00000000000E+00 0. -1.
        -14    1    6    6    0    0  0.30945342014E+02  0.25980018983E+02 -0.14123419173E+03  0.14690021271E+03  0.00000000000E+00 0.  1.
</event>
<event>
12    1  0.9966151E-001  0.2014817E+03  0.7818608E-02  0.1148880E+00
         21   -1    0    0  501  502  0.00000000000E+00  0.00000000000E+00  0.51066794291E+02  0.51066794291E+02  0.00000000000E+00 0. -1.
         21   -1    0    0  502  503 -0.00000000000E+00 -0.00000000000E+00 -0.16150328167E+04  0.16150328167E+04  0.00000000000E+00 0. -1.
         -6    2    1    2    0  503 -0.10475157489E+03  0.61406147664E+01 -0.18401034620E+03  0.27151273981E+03  0.16984922956E+03 0.  0.
        -24    2    3    3    0    0 -0.93951443848E+01  0.19952032909E+02 -0.28207864733E+02  0.88263981729E+02  0.80675240828E+02 0.  0.
          6    2    1    2  501    0  0.10475157489E+03 -0.61406147664E+01 -0.13799556762E+04  0.13945868712E+04  0.17200079466E+03 0.  0.
         24    2    5    5    0    0  0.10607849098E+03  0.34107223503E+02 -0.69692885761E+03  0.71035783488E+03  0.80513800397E+02 0.  0.
          5    1    5    5  501    0 -0.13269160951E+01 -0.40247838269E+02 -0.68302681858E+03  0.68422903628E+03  0.47000000000E+01 0. -1.
        -13    1    6    6    0    0  0.47305571285E+02  0.56136321664E+02 -0.42368875626E+03  0.43000147194E+03  0.00000000000E+00 0.  1.
         14    1    6    6    0    0  0.58772919695E+02 -0.22029098161E+02 -0.27324010135E+03  0.28035636294E+03  0.00000000000E+00 0. -1.
         -5    1    3    3    0  503 -0.95356430501E+02 -0.13811418142E+02 -0.15580248147E+03  0.18324875809E+03  0.47000000000E+01 0.  1.
         11    1    4    4    0    0  0.22830276791E+02 -0.30169033312E+01  0.16670899514E+02  0.28429599622E+02  0.00000000000E+00 0. -1.
        -12    1    4    4    0    0 -0.32225421175E+02  0.22968936240E+02 -0.44878764246E+02  0.59834382108E+02  0.00000000000E+00 0.  1.
</event>
<event>
12    1  0.9966151E-001  0.2106486E+03  0.7818608E-02  0.1141409E+00
         21   -1    0    0  503  502  0.00000000000E+00  0.00000000000E+00  0.47245427716E+03  0.47245427716E+03  0.00000000000E+00 0. -1.
         21   -1    0    0  501  503 -0.00000000000E+00 -0.00000000000E+00 -0.13743364418E+03  0.13743364418E+03  0.00000000000E+00 0. -1.
          6    2    1    2  501    0 -0.17551979675E+02 -0.11607809121E+03  0.34114922548E+03  0.40094340017E+03  0.17490174627E+03 0.  0.
         24    2    3    3    0    0 -0.18729537320E+02 -0.10433109128E+03  0.35682513338E+03  0.38076413512E+03  0.80133504931E+02 0.  0.
         -6    2    1    2    0  502  0.17551979675E+02  0.11607809121E+03 -0.61285925027E+01  0.20894452117E+03  0.17273696197E+03 0.  0.
        -24    2    5    5    0    0  0.19110614929E+02 -0.84806421258E+01  0.47052339322E+01  0.83817508937E+02  0.81031467248E+02 0.  0.
          5    1    3    3  501    0  0.11775576451E+01 -0.11746999938E+02 -0.15675907899E+02  0.20179265051E+02  0.47000000000E+01 0. -1.
        -13    1    4    4    0    0  0.19950609860E+02 -0.66518651361E+02  0.26723265787E+03  0.27610876705E+03  0.00000000000E+00 0.  1.
         14    1    4    4    0    0 -0.38680147180E+02 -0.37812439914E+02  0.89592475508E+02  0.10465536807E+03  0.00000000000E+00 0. -1.
         -5    1    5    5    0  502 -0.15586352538E+01  0.12455873334E+03 -0.10833826435E+02  0.12512701223E+03  0.47000000000E+01 0.  1.
         13    1    6    6    0    0 -0.12332374021E+02 -0.20051289931E+02  0.32607059036E+02  0.40216439124E+02  0.00000000000E+00 0. -1.
        -14    1    6    6    0    0  0.31442988950E+02  0.11570647805E+02 -0.27901825103E+02  0.43601069813E+02  0.00000000000E+00 0.  1.
</event>
<event>
12    1  0.9966151E-001  0.1983506E+03  0.7818608E-02  0.1151369E+00
         21   -1    0    0  501  502  0.00000000000E+00  0.00000000000E+00  0.13189360613E+03  0.13189360613E+03  0.00000000000E+00 0.  1.
         21   -1    0    0  502  503 -0.00000000000E+00 -0.00000000000E+00 -0.30311873203E+03  0.30311873203E+03  0.00000000000E+00 0.  1.
         -6    2    1    2    0  503 -0.84654322046E+02 -0.46016850675E+02 -0.53661185929E+02  0.20443864159E+03  0.17213869558E+03 0.  0.
        -24    2    3    3    0    0 -0.80591001920E+02 -0.23016453764E+02  0.28633466191E+02  0.11876467474E+03  0.79123358412E+02 0.  0.
          6    2    1    2  501    0  0.84654322046E+02  0.46016850675E+02 -0.11756393997E+03  0.23057369656E+03  0.17337544456E+03 0.  0.
         24    2    5    5    0    0  0.11043048646E+02  0.84589496609E+01 -0.12342003661E+03  0.14759418482E+03  0.79737288661E+02 0.  0.
          5    1    5    5  501    0  0.73611273400E+02  0.37557901014E+02  0.58560966462E+01  0.82979511737E+02  0.47000000000E+01 0. -1.
        -11    1    6    6    0    0  0.30618487104E+02 -0.24975288537E+02 -0.81127890933E+02  0.90238525460E+02  0.00000000000E+00 0.  1.
         12    1    6    6    0    0 -0.19575438458E+02  0.33434238197E+02 -0.42292145682E+02  0.57355659364E+02  0.00000000000E+00 0. -1.
         -5    1    3    3    0  503 -0.40633201260E+01 -0.23000396911E+02 -0.82294652120E+02  0.85673966852E+02  0.47000000000E+01 0.  1.
         13    1    4    4    0    0 -0.23845763215E+01 -0.26673763344E+02  0.30321565976E+02  0.40454582168E+02  0.00000000000E+00 0. -1.
        -14    1    4    4    0    0 -0.78206425598E+02  0.36573095797E+01 -0.16880997854E+01  0.78310092575E+02  0.00000000000E+00 0.  1.
</event>
<event>
12    1  0.9966151E-001  0.1942135E+03  0.7818608E-02  0.1155244E+00
         21   -1    0    0  503  502  0.00000000000E+00  0.00000000000E+00  0.14098155552E+03  0.14098155552E+03  0.00000000000E+00 0.  1.
         21   -1    0    0  501  503 -0.00000000000E+00 -0.00000000000E+00 -0.27704857103E+03  0.27704857103E+03  0.00000000000E+00 0.  1.
          6    2    1    2  501    0  0.57698317275E+02  0.57162562605E+02 -0.11336242584E+03  0.22487754409E+03  0.17641489694E+03 0.  0.
         24    2    3    3    0    0  0.54034377218E+02 -0.35712573881E+02 -0.19002560605E+02  0.92344191301E+02  0.63017858604E+02 0.  0.
         -6    2    1    2    0  502 -0.57698317275E+02 -0.57162562605E+02 -0.22704589668E+02  0.19315258246E+03  0.17376929343E+03 0.  0.
        -24    2    5    5    0    0 -0.89190958091E+02 -0.86275850466E+02 -0.26543353685E+02  0.14983750351E+03  0.79675457042E+02 0.  0.
          5    1    3    3  501    0  0.36639400574E+01  0.92875136487E+02 -0.94359865234E+02  0.13253335279E+03  0.47000000000E+01 0. -1.
        -13    1    4    4    0    0 -0.11753180745E+02  0.51221032244E+01 -0.10775036547E+01  0.12866009995E+02  0.00000000000E+00 0.  1.
         14    1    4    4    0    0  0.65787557963E+02 -0.40834677105E+02 -0.17925056950E+02  0.79478181306E+02  0.00000000000E+00 0. -1.
         -5    1    5    5    0  502  0.31492640815E+02  0.29113287860E+02  0.38387640175E+01  0.43315078953E+02  0.47000000000E+01 0.  1.
         11    1    6    6    0    0 -0.27238345323E+02  0.76485668513E+01 -0.24306027603E+02  0.37298941120E+02  0.00000000000E+00 0. -1.
        -12    1    6    6    0    0 -0.61952612768E+02 -0.93924417317E+02 -0.22373260820E+01  0.11253856239E+03  0.00000000000E+00 0.  1.
</event>
<event>
12    1  0.9966151E-001  0.2021396E+03  0.7818608E-02  0.1148010E+00
         21   -1    0    0  503  502  0.00000000000E+00  0.00000000000E+00  0.11274379220E+03  0.11274379220E+03  0.00000000000E+00 0. -1.
         21   -1    0    0  501  503 -0.00000000000E+00 -0.00000000000E+00 -0.36393070901E+03  0.36393070901E+03  0.00000000000E+00 0. -1.
          6    2    1    2  501    0  0.74300358820E+02 -0.75053133977E+02 -0.10775079594E+03  0.22906471020E+03  0.17235687162E+03 0.  0.
         24    2    3    3    0    0 -0.31880496192E+01 -0.91834110240E+02 -0.61035448534E+02  0.13692097309E+03  0.81107086183E+02 0.  0.
         -6    2    1    2    0  502 -0.74300358820E+02  0.75053133977E+02 -0.14343612087E+03  0.24760979101E+03  0.17199759181E+03 0.  0.
        -24    2    5    5    0    0 -0.51625687342E+02  0.82008093777E+02 -0.14750010750E+02  0.11667195411E+03  0.63279088330E+02 0.  0.
          5    1    3    3  501    0  0.77488408439E+02  0.16780976263E+02 -0.46715347409E+02  0.92143737119E+02  0.47000000000E+01 0. -1.
        -11    1    4    4    0    0  0.68180433663E+01 -0.41725293791E+02 -0.73074543563E+02  0.84423780858E+02  0.00000000000E+00 0.  1.
         12    1    4    4    0    0 -0.10006092986E+02 -0.50108816448E+02  0.12039095030E+02  0.52497192228E+02  0.00000000000E+00 0. -1.
         -5    1    5    5    0  502 -0.22674671478E+02 -0.69549598005E+01 -0.12868611012E+03  0.13093783690E+03  0.47000000000E+01 0.  1.
         11    1    6    6    0    0 -0.26200515623E+02 -0.32048312995E+01  0.74804580991E+00  0.26406391937E+02  0.00000000000E+00 0. -1.
        -12    1    6    6    0    0 -0.25425171719E+02  0.85212925077E+02 -0.15498056559E+02  0.90265562172E+02  0.00000000000E+00 0.  1.
</event>
<event>
12    1  0.9966151E-001  0.1872827E+03  0.7818608E-02  0.1161345E+00
         21   -1    0    0  503  502  0.00000000000E+00  0.00000000000E+00  0.15049523968E+03  0.15049523968E+03  0.00000000000E+00 0. -1.
         21   -1    0    0  501  503 -0.00000000000E+00 -0.00000000000E+00 -0.24728342357E+03  0.24728342357E+03  0.00000000000E+00 0. -1.
          6    2    1    2  501    0 -0.29676918827E+02  0.57089355445E+02  0.30757159858E+01  0.18553440225E+03  0.17399321933E+03 0.  0.
         24    2    3    3    0    0  0.39967958237E+02  0.63293741459E+02  0.27910942475E+02  0.11118534858E+03  0.77328039130E+02 0.  0.
         -6    2    1    2    0  502  0.29676918827E+02 -0.57089355445E+02 -0.99863899870E+02  0.21224426100E+03  0.17588323914E+03 0.  0.
        -24    2    5    5    0    0 -0.50830175544E+02 -0.77708271843E+01 -0.75665708059E+02  0.11466684578E+03  0.69130989023E+02 0.  0.
          5    1    3    3  501    0 -0.69644877064E+02 -0.62043860134E+01 -0.24835226489E+02  0.74349053671E+02  0.47000000000E+01 0. -1.
        -11    1    4    4    0    0  0.54597169575E+02  0.46714447963E+02 -0.44496646962E+01  0.71992291879E+02  0.00000000000E+00 0.  1.
         12    1    4    4    0    0 -0.14629211338E+02  0.16579293496E+02  0.32360607171E+02  0.39193056702E+02  0.00000000000E+00 0. -1.
         -5    1    5    5    0  502  0.80507094371E+02 -0.49318528261E+02 -0.24198191811E+02  0.97577415219E+02  0.47000000000E+01 0.  1.
         13    1    6    6    0    0 -0.54390934023E+02 -0.11913282091E+02 -0.86304755160E+02  0.10270740361E+03  0.00000000000E+00 0. -1.
        -14    1    6    6    0    0  0.35607584791E+01  0.41424549063E+01  0.10639047101E+02  0.11959442162E+02  0.00000000000E+00 0.  1.
</event>
<event>
12    1  0.9966151E-001  0.2916988E+03  0.7818608E-02  0.1089558E+00
         21   -1    0    0  503  502  0.00000000000E+00  0.00000000000E+00  0.42000870259E+03  0.42000870259E+03  0.00000000000E+00 0.  1.
         21   -1    0    0  501  503 -0.00000000000E+00 -0.00000000000E+00 -0.20612966541E+03  0.20612966541E+03  0.00000000000E+00 0.  1.
          6    2    1    2  501    0  0.75249733323E+02  0.22314199959E+03  0.15087971336E+03  0.32840963387E+03  0.17214332799E+03 0.  0.
         24    2    3    3    0    0  0.97055085777E+02  0.89187203642E+02  0.94121160635E+02  0.18122612916E+03  0.81302337241E+02 0.  0.
         -6    2    1    2    0  502 -0.75249733323E+02 -0.22314199959E+03  0.62999323809E+02  0.29772873413E+03  0.17093451956E+03 0.  0.
        -24    2    5    5    0    0 -0.11687186325E+03 -0.19128920164E+03  0.47809195671E+02  0.24295800810E+03  0.80574707105E+02 0.  0.
          5    1    3    3  501    0 -0.21805352453E+02  0.13395479595E+03  0.56758552728E+02  0.14718350472E+03  0.47000000000E+01 0. -1.
        -13    1    4    4    0    0  0.43370131870E+02  0.33756407390E+02 -0.54785037133E+01  0.55231126924E+02  0.00000000000E+00 0.  1.
         14    1    4    4    0    0  0.53684953906E+02  0.55430796252E+02  0.99599664349E+02  0.12599500223E+03  0.00000000000E+00 0. -1.
         -5    1    5    5    0  502  0.41622129925E+02 -0.31852797949E+02  0.15190128138E+02  0.54770726027E+02  0.47000000000E+01 0.  1.
         11    1    6    6    0    0 -0.30453813308E+02 -0.11096721435E+03  0.48754015092E+02  0.12497244253E+03  0.00000000000E+00 0. -1.
        -12    1    6    6    0    0 -0.86418049940E+02 -0.80321987296E+02 -0.94481942133E+00  0.11798556557E+03  0.00000000000E+00 0.  1.
</event>
<event>
12    1  0.9966151E-001  0.2838730E+03  0.7818608E-02  0.1094321E+00
         21   -1    0    0  501  502  0.00000000000E+00  0.00000000000E+00  0.54817288900E+03  0.54817288900E+03  0.00000000000E+00 0. -1.
         21   -1    0    0  502  503 -0.00000000000E+00 -0.00000000000E+00 -0.16594472759E+03  0.16594472759E+03  0.00000000000E+00 0. -1.
         -6    2    1    2    0  503 -0.16794524859E+03  0.14128051195E+03  0.60382836882E+02  0.28496925984E+03  0.17145145809E+03 0.  0.
        -24    2    3    3    0    0 -0.13659031295E+03  0.46094486306E+02  0.80595507411E+02  0.18262594781E+03  0.77942194859E+02 0.  0.
          6    2    1    2  501    0  0.16794524859E+03 -0.14128051195E+03  0.32184532452E+03  0.42914835675E+03  0.18005029742E+03 0.  0.
         24    2    5    5    0    0  0.13029100719E+03 -0.19833394602E+02  0.20153008597E+03  0.25403384897E+03  0.80930283417E+02 0.  0.
          5    1    5    5  501    0  0.37654241398E+02 -0.12144711735E+03  0.12031523855E+03  0.17511450778E+03  0.47000000000E+01 0. -1.
        -13    1    6    6    0    0  0.79160322463E+02 -0.48748373292E+02  0.98559991740E+02  0.13548738880E+03  0.00000000000E+00 0.  1.
         14    1    6    6    0    0  0.51130684730E+02  0.28914978690E+02  0.10297009423E+03  0.11854646017E+03  0.00000000000E+00 0. -1.
         -5    1    3    3    0  503 -0.31354935643E+02  0.95186025644E+02 -0.20212670530E+02  0.10234331203E+03  0.47000000000E+01 0.  1.
         13    1    4    4    0    0 -0.52226033192E+02 -0.20746509899E+02  0.25509675088E+02  0.61714825926E+02  0.00000000000E+00 0. -1.
        -14    1    4    4    0    0 -0.84364279756E+02  0.66840996206E+02  0.55085832323E+02  0.12091112188E+03  0.00000000000E+00 0.  1.
</event>
<event>
12    1  0.9966151E-001  0.1751416E+03  0.7818608E-02  0.1172898E+00
         21   -1    0    0  503  502  0.00000000000E+00  0.00000000000E+00  0.41986100935E+03  0.41986100935E+03  0.00000000000E+00 0. -1.
         21   -1    0    0  501  503 -0.00000000000E+00 -0.00000000000E+00 -0.74268004278E+02  0.74268004278E+02  0.00000000000E+00 0. -1.
          6    2    1    2  501    0 -0.19147996815E+02 -0.29086834665E+02  0.20979170231E+03  0.27250640030E+03  0.17039510004E+03 0.  0.
         24    2    3    3    0    0 -0.66912967495E+02 -0.17917778882E+02  0.76031611165E+02  0.12995783941E+03  0.79434514588E+02 0.  0.
         -6    2    1    2    0  502  0.19147996815E+02  0.29086834665E+02  0.13580130277E+03  0.22162261332E+03  0.17164468874E+03 0.  0.
        -24    2    5    5    0    0 -0.13970133257E+02 -0.43713757099E+02  0.68913204448E+02  0.11725382298E+03  0.83026333619E+02 0.  0.
          5    1    3    3  501    0  0.47764970680E+02 -0.11169055783E+02  0.13376009114E+03  0.14254856090E+03  0.47000000000E+01 0. -1.
        -13    1    4    4    0    0 -0.20216690220E+02 -0.35910517123E+02  0.67656299856E+02  0.79219029997E+02  0.00000000000E+00 0.  1.
         14    1    4    4    0    0 -0.46696277276E+02  0.17992738241E+02  0.83753113087E+01  0.50738809410E+02  0.00000000000E+00 0. -1.
         -5    1    5    5    0  502  0.33118130072E+02  0.72800591764E+02  0.66888098317E+02  0.10436879034E+03  0.47000000000E+01 0.  1.
         11    1    6    6    0    0  0.24111600400E+02 -0.16805416430E+02  0.63926235357E+02  0.70358758248E+02  0.00000000000E+00 0. -1.
        -12    1    6    6    0    0 -0.38081733658E+02 -0.26908340669E+02  0.49869690915E+01  0.46895064737E+02  0.00000000000E+00 0.  1.
</event>
<event>
12    1  0.9966151E-001  0.1792275E+03  0.7818608E-02  0.1170062E+00
         21   -1    0    0  503  502  0.00000000000E+00  0.00000000000E+00  0.18188000626E+03  0.18188000626E+03  0.00000000000E+00 0. -1.
         21   -1    0    0  501  503 -0.00000000000E+00 -0.00000000000E+00 -0.31908251513E+03  0.31908251513E+03  0.00000000000E+00 0. -1.
          6    2    1    2  501    0 -0.18550471757E+02 -0.43263856193E+02  0.10158303916E+03  0.20601363371E+03  0.17293531211E+03 0.  0.
         24    2    3    3    0    0 -0.56273881235E+02 -0.13829566409E+02  0.40763185139E+01  0.97298024851E+02  0.78053075858E+02 0.  0.
         -6    2    1    2    0  502  0.18550471757E+02  0.43263856193E+02 -0.23878554804E+03  0.29494888769E+03  0.16661460663E+03 0.  0.
        -24    2    5    5    0    0  0.58018996228E+02  0.62077549155E+02 -0.21666797958E+03  0.24572494736E+03  0.78841044822E+02 0.  0.
          5    1    3    3  501    0  0.37723409478E+02 -0.29434289785E+02  0.97506720649E+02  0.10871560886E+03  0.47000000000E+01 0. -1.
        -11    1    4    4    0    0 -0.57278303699E+02 -0.93060856084E+00  0.32646195311E+02  0.65935151287E+02  0.00000000000E+00 0.  1.
         12    1    4    4    0    0  0.10044224639E+01 -0.12898957848E+02 -0.28569876797E+02  0.31362873564E+02  0.00000000000E+00 0. -1.
         -5    1    5    5    0  502 -0.39468524471E+02 -0.18813692962E+02 -0.22117568461E+02  0.49223940328E+02  0.47000000000E+01 0.  1.
         11    1    6    6    0    0 -0.17902053461E+02  0.10143274908E+02 -0.20418305294E+02  0.28987527233E+02  0.00000000000E+00 0. -1.
        -12    1    6    6    0    0  0.75921049689E+02  0.51934274247E+02 -0.19624967428E+03  0.21673742013E+03  0.00000000000E+00 0.  1.
</event>
<event>
12    1  0.9966151E-001  0.2533161E+03  0.7818608E-02  0.1111604E+00
         21   -1    0    0  503  502  0.00000000000E+00  0.00000000000E+00  0.69865977519E+03  0.69865977519E+03  0.00000000000E+00 0.  1.
         21   -1    0    0  501  503 -0.00000000000E+00 -0.00000000000E+00 -0.12082305782E+03  0.12082305782E+03  0.00000000000E+00 0.  1.
          6    2    1    2  501    0 -0.77933870927E+02 -0.16738603699E+03  0.49153791307E+03  0.55187015478E+03  0.16988047014E+03 0.  0.
         24    2    3    3    0    0 -0.65245301650E+02 -0.16618170515E+03  0.49985502710E+03  0.53594173391E+03  0.74196937408E+02 0.  0.
         -6    2    1    2    0  502  0.77933870927E+02  0.16738603699E+03  0.86298804300E+02  0.26761267823E+03  0.17342804938E+03 0.  0.
        -24    2    5    5    0    0  0.74456271175E+02  0.57676966900E+02  0.97659647299E+02  0.15716208968E+03  0.79323053978E+02 0.  0.
          5    1    3    3  501    0 -0.12688569276E+02 -0.12043318380E+01 -0.83171140295E+01  0.15928420864E+02  0.47000000000E+01 0. -1.
        -11    1    4    4    0    0 -0.38385470069E+02 -0.39071677214E+02  0.23013941369E+03  0.23656751680E+03  0.00000000000E+00 0.  1.
         12    1    4    4    0    0 -0.26859831582E+02 -0.12711002794E+03  0.26971561341E+03  0.29937421711E+03  0.00000000000E+00 0. -1.
         -5    1    5    5    0  502  0.34775997512E+01  0.10970907009E+03 -0.11360842998E+02  0.11045058856E+03  0.47000000000E+01 0.  1.
         11    1    6    6    0    0  0.62766347725E+02  0.42308720326E+02  0.11052435569E+03  0.13395997695E+03  0.00000000000E+00 0. -1.
        -12    1    6    6    0    0  0.11689923450E+02  0.15368246574E+02 -0.12864708393E+02  0.23202112728E+02  0.00000000000E+00 0.  1.
</event>
<event>
12    1  0.9966151E-001  0.2088035E+03  0.7818608E-02  0.1142527E+00
         21   -1    0    0  503  502  0.00000000000E+00  0.00000000000E+00  0.11145579985E+04  0.11145579985E+04  0.00000000000E+00 0. -1.
         21   -1    0    0  501  503 -0.00000000000E+00 -0.00000000000E+00 -0.44284811825E+02  0.44284811825E+02  0.00000000000E+00 0. -1.
          6    2    1    2  501    0 -0.11708932017E+03 -0.11032565284E+02  0.33696873257E+03  0.39638996513E+03  0.17246869667E+03 0.  0.
         24    2    3    3    0    0 -0.74003279027E+02  0.61270027751E+02  0.20567244720E+03  0.24036151755E+03  0.79006341369E+02 0.  0.
         -6    2    1    2    0  502  0.11708932017E+03  0.11032565284E+02  0.73330445410E+03  0.76245284519E+03  0.17253200381E+03 0.  0.
        -24    2    5    5    0    0  0.26248410980E+02 -0.13435387493E+02  0.54568289426E+03  0.55251311286E+03  0.81433593033E+02 0.  0.
          5    1    3    3  501    0 -0.43086041141E+02 -0.72302593036E+02  0.13129628537E+03  0.15602844758E+03  0.47000000000E+01 0. -1.
        -11    1    4    4    0    0 -0.11075041548E+02  0.45178717955E+02  0.14192109285E+03  0.14934982323E+03  0.00000000000E+00 0.  1.
         12    1    4    4    0    0 -0.62928237479E+02  0.16091309797E+02  0.63751354345E+02  0.91011694325E+02  0.00000000000E+00 0. -1.
         -5    1    5    5    0  502  0.90840909188E+02  0.24467952777E+02  0.18762155984E+03  0.20993973233E+03  0.47000000000E+01 0.  1.
         13    1    6    6    0    0  0.37670365800E+02 -0.24903926940E+02  0.15371075363E+03  0.16020692188E+03  0.00000000000E+00 0. -1.
        -14    1    6    6    0    0 -0.11421954820E+02  0.11468539447E+02  0.39197214063E+03  0.39230619098E+03  0.00000000000E+00 0.  1.
</event>
<event>
12    1  0.9966151E-001  0.4660740E+03  0.7818608E-02  0.1023046E+00
         21   -1    0    0  503  502  0.00000000000E+00  0.00000000000E+00  0.15685462724E+03  0.15685462724E+03  0.00000000000E+00 0. -1.
         21   -1    0    0  501  503 -0.00000000000E+00 -0.00000000000E+00 -0.14419552804E+04  0.14419552804E+04  0.00000000000E+00 0. -1.
          6    2    1    2  501    0 -0.41026953263E+03 -0.13774946916E+03 -0.48292872814E+03  0.67115207898E+03  0.17299985837E+03 0.  0.
         24    2    3    3    0    0 -0.24105777312E+03 -0.14188104410E+03 -0.35483441630E+03  0.45883172623E+03  0.79874960675E+02 0.  0.
         -6    2    1    2    0  502  0.41026953263E+03  0.13774946916E+03 -0.80217192504E+03  0.92765782868E+03  0.17254925133E+03 0.  0.
        -24    2    5    5    0    0  0.39425070178E+03  0.12742653630E+03 -0.80403245874E+03  0.90794190947E+03  0.78861766826E+02 0.  0.
          5    1    3    3  501    0 -0.16921175950E+03  0.41315749386E+01 -0.12809431184E+03  0.21232035275E+03  0.47000000000E+01 0. -1.
        -13    1    4    4    0    0 -0.46348228871E+01 -0.25297632348E+02 -0.19412702592E+02  0.32222737431E+02  0.00000000000E+00 0.  1.
         14    1    4    4    0    0 -0.23642295024E+03 -0.11658341175E+03 -0.33542171371E+03  0.42660898880E+03  0.00000000000E+00 0. -1.
         -5    1    5    5    0  502  0.16018830853E+02  0.10322932858E+02  0.18605336962E+01  0.19715919211E+02  0.47000000000E+01 0.  1.
         11    1    6    6    0    0  0.98554360406E+02 -0.23433729063E+01 -0.20206210131E+03  0.22482781442E+03  0.00000000000E+00 0. -1.
        -12    1    6    6    0    0  0.29569634137E+03  0.12976990921E+03 -0.60197035743E+03  0.68311409506E+03  0.00000000000E+00 0.  1.
</event>
<event>
12    1  0.9966151E-001  0.2435545E+03  0.7818608E-02  0.1118014E+00
         21   -1    0    0  501  502  0.00000000000E+00  0.00000000000E+00  0.24977697517E+03  0.24977697517E+03  0.00000000000E+00 0. -1.
         21   -1    0    0  502  503 -0.00000000000E+00 -0.00000000000E+00 -0.53837188623E+03  0.53837188623E+03  0.00000000000E+00 0. -1.
         -6    2    1    2    0  503 -0.16529997814E+03 -0.32230332443E+02 -0.44008280934E+03  0.50132596840E+03  0.17114897142E+03 0.  0.
        -24    2    3    3    0    0 -0.90571208562E+02 -0.64860096370E+02 -0.36696226026E+03  0.39170026341E+03  0.79735939091E+02 0.  0.
          6    2    1    2  501    0  0.16529997814E+03  0.32230332443E+02  0.15148789827E+03  0.28682289300E+03  0.17594292120E+03 0.  0.
         24    2    5    5    0    0  0.11303372398E+03  0.63407508631E+02  0.36780869589E+02  0.15688610041E+03  0.80394534797E+02 0.  0.
          5    1    5    5  501    0  0.52266254160E+02 -0.31177176188E+02  0.11470702868E+03  0.12993679259E+03  0.47000000000E+01 0. -1.
        -11    1    6    6    0    0  0.39297248602E+02  0.80373632568E+01 -0.23719412913E+02  0.46599179228E+02  0.00000000000E+00 0.  1.
         12    1    6    6    0    0  0.73736475382E+02  0.55370145374E+02  0.60500282503E+02  0.11028692118E+03  0.00000000000E+00 0. -1.
         -5    1    3    3    0  503 -0.74728769582E+02  0.32629763927E+02 -0.73120549078E+02  0.10962570499E+03  0.47000000000E+01 0.  1.
         11    1    4    4    0    0  0.14650661128E+02 -0.10776967228E+02 -0.61298286580E+02  0.63939540440E+02  0.00000000000E+00 0. -1.
        -12    1    4    4    0    0 -0.10522186969E+03 -0.54083129142E+02 -0.30566397368E+03  0.32776072297E+03  0.00000000000E+00 0.  1.
</event>
<event>
12    1  0.9966151E-001  0.2540745E+03  0.7818608E-02  0.1111294E+00
         21   -1    0    0  501  502  0.00000000000E+00  0.00000000000E+00  0.52649660687E+02  0.52649660687E+02  0.00000000000E+00 0.  1.
         21   -1    0    0  502  503 -0.00000000000E+00 -0.00000000000E+00 -0.17992885110E+04  0.17992885110E+04  0.00000000000E+00 0.  1.
         -6    2    1    2    0  503  0.10761194691E+03  0.14717063628E+03 -0.14074587857E+04  0.14302077065E+04  0.17695853486E+03 0.  0.
        -24    2    3    3    0    0 -0.42357474786E+01  0.45388034870E+02 -0.74073573387E+03  0.74653284042E+03  0.80893999416E+02 0.  0.
          6    2    1    2  501    0 -0.10761194691E+03 -0.14717063628E+03 -0.33918006467E+03  0.42173046522E+03  0.17197075834E+03 0.  0.
         24    2    5    5    0    0 -0.32610118018E+02 -0.57523553758E+02 -0.27163171421E+03  0.28664995815E+03  0.63340597603E+02 0.  0.
          5    1    5    5  501    0 -0.75001828889E+02 -0.89647082523E+02 -0.67548350460E+02  0.13508050707E+03  0.47000000000E+01 0. -1.
        -11    1    6    6    0    0  0.12011519838E+02 -0.40589127009E+02 -0.10206239129E+03  0.11049201580E+03  0.00000000000E+00 0.  1.
         12    1    6    6    0    0 -0.44621637856E+02 -0.16934426749E+02 -0.16956932292E+03  0.17615794234E+03  0.00000000000E+00 0. -1.
         -5    1    3    3    0  503  0.11184769439E+03  0.10178260141E+03 -0.66672305180E+03  0.68367486607E+03  0.47000000000E+01 0.  1.
         11    1    4    4    0    0  0.14041890835E+02  0.21071631938E+02 -0.60085543922E+02  0.65203228134E+02  0.00000000000E+00 0. -1.
        -12    1    4    4    0    0 -0.18277638313E+02  0.24316402933E+02 -0.68065018994E+03  0.68132961229E+03  0.00000000000E+00 0.  1.
</event>
<event>
12    1  0.9966151E-001  0.1893707E+03  0.7818608E-02  0.1159269E+00
         21   -1    0    0  503  502  0.00000000000E+00  0.00000000000E+00  0.50711407048E+03  0.50711407048E+03  0.00000000000E+00 0.  1.
         21   -1    0    0  501  503 -0.00000000000E+00 -0.00000000000E+00 -0.70507367674E+02  0.70507367674E+02  0.00000000000E+00 0.  1.
          6    2    1    2  501    0  0.57761739206E+02  0.52045181395E+02  0.23360601600E+03  0.30072084998E+03  0.17267350543E+03 0.  0.
         24    2    3    3    0    0  0.17636811790E+02  0.81384290434E+02  0.22087278792E+03  0.24919398110E+03  0.79864835257E+02 0.  0.
         -6    2    1    2    0  502 -0.57761739206E+02 -0.52045181395E+02  0.20300068680E+03  0.27690058817E+03  0.17152124494E+03 0.  0.
        -24    2    5    5    0    0 -0.25763552726E+02 -0.97736762839E+02  0.16191094326E+03  0.20745952268E+03  0.81290002724E+02 0.  0.
          5    1    3    3  501    0  0.40124927416E+02 -0.29339109040E+02  0.12733228081E+02  0.51526868882E+02  0.47000000000E+01 0. -1.
        -13    1    4    4    0    0  0.40969521051E+02  0.23885061081E+02  0.58119833964E+02  0.75012751569E+02  0.00000000000E+00 0.  1.
         14    1    4    4    0    0 -0.23332709261E+02  0.57499229353E+02  0.16275295396E+03  0.17418122953E+03  0.00000000000E+00 0. -1.
         -5    1    5    5    0  502 -0.31998186480E+02  0.45691581445E+02  0.41089743538E+02  0.69441065494E+02  0.47000000000E+01 0.  1.
         11    1    6    6    0    0 -0.47575730278E+02 -0.93472550631E+02  0.11558654560E+03  0.15607952254E+03  0.00000000000E+00 0. -1.
        -12    1    6    6    0    0  0.21812177552E+02 -0.42642122085E+01  0.46324397667E+02  0.51380000142E+02  0.00000000000E+00 0.  1.
</event>
<event>
12    1  0.9966151E-001  0.1825594E+03  0.7818608E-02  0.1165917E+00
         21   -1    0    0  503  502  0.00000000000E+00  0.00000000000E+00  0.23553948387E+03  0.23553948387E+03  0.00000000000E+00 0.  1.
         21   -1    0    0  501  503 -0.00000000000E+00 -0.00000000000E+00 -0.14601250799E+03  0.14601250799E+03  0.00000000000E+00 0.  1.
          6    2    1    2  501    0  0.52270764307E+02  0.35675994786E+02  0.46918351811E+01  0.18024395085E+03  0.16870346497E+03 0.  0.
         24    2    3    3    0    0  0.96674150986E+02  0.18765267377E+02  0.20606355967E+02  0.12991507820E+03  0.82190503763E+02 0.  0.
         -6    2    1    2    0  502 -0.52270764307E+02 -0.35675994786E+02  0.84835140694E+02  0.20130804101E+03  0.17123935551E+03 0.  0.
        -24    2    5    5    0    0 -0.29621791772E+02  0.33351854116E+02  0.88954615149E+02  0.12839110230E+03  0.81126782713E+02 0.  0.
          5    1    3    3  501    0 -0.44403386680E+02  0.16910727408E+02 -0.15914520786E+02  0.50328872647E+02  0.47000000000E+01 0. -1.
        -11    1    4    4    0    0  0.81108893324E+02  0.42687444599E+02  0.34799821005E+02  0.98040287865E+02  0.00000000000E+00 0.  1.
         12    1    4    4    0    0  0.15565257663E+02 -0.23922177222E+02 -0.14193465038E+02  0.31874790335E+02  0.00000000000E+00 0. -1.
         -5    1    5    5    0  502 -0.22648972535E+02 -0.69027848901E+02 -0.41194744544E+01  0.72916938709E+02  0.47000000000E+01 0.  1.
         11    1    6    6    0    0  0.23977845281E+01 -0.25481322850E+02  0.25229406081E+02  0.35938421167E+02  0.00000000000E+00 0. -1.
        -12    1    6    6    0    0 -0.32019576300E+02  0.58833176966E+02  0.63725209068E+02  0.92452681135E+02  0.00000000000E+00 0.  1.
</event>
<event>
12    1  0.9966151E-001  0.2243111E+03  0.7818608E-02  0.1130842E+00
         21   -1    0    0  503  502  0.00000000000E+00  0.00000000000E+00  0.14966130320E+04  0.14966130320E+04  0.00000000000E+00 0. -1.
         21   -1    0    0  501  503 -0.00000000000E+00 -0.00000000000E+00 -0.36440005294E+02  0.36440005294E+02  0.00000000000E+00 0. -1.
          6    2    1    2  501    0  0.10969967885E+03 -0.92913233241E+02  0.94633004356E+03  0.97238370624E+03  0.17123852478E+03 0.  0.
         24    2    3    3    0    0  0.67263410276E+02  0.96025496250E+01  0.35117395038E+03  0.36695560327E+03  0.81955451431E+02 0.  0.
         -6    2    1    2    0  502 -0.10969967885E+03  0.92913233241E+02  0.51384298313E+03  0.56066933104E+03  0.17218768540E+03 0.  0.
        -24    2    5    5    0    0 -0.85501300881E+02  0.12339511517E+01  0.38598777795E+03  0.40142205241E+03  0.69578044957E+02 0.  0.
          5    1    3    3  501    0  0.42436268574E+02 -0.10251578287E+03  0.59515609318E+03  0.60542810298E+03  0.47000000000E+01 0. -1.
        -11    1    4    4    0    0 -0.95791255653E+00 -0.11476434604E+02  0.19378524226E+03  0.19412713944E+03  0.00000000000E+00 0.  1.
         12    1    4    4    0    0  0.68221322833E+02  0.21078984229E+02  0.15738870812E+03  0.17282846383E+03  0.00000000000E+00 0. -1.
         -5    1    5    5    0  502 -0.24198377969E+02  0.91679282089E+02  0.12785520518E+03  0.15924727863E+03  0.47000000000E+01 0.  1.
         13    1    6    6    0    0 -0.31335093481E+02 -0.33411241220E+02  0.17051224093E+03  0.17655770567E+03  0.00000000000E+00 0. -1.
        -14    1    6    6    0    0 -0.54166207401E+02  0.34645192372E+02  0.21547553702E+03  0.22486434674E+03  0.00000000000E+00 0.  1.
</event>
<event>
12    1  0.9966151E-001  0.1831554E+03  0.7818608E-02  0.1167425E+00
         21   -1    0    0  501  502  0.00000000000E+00  0.00000000000E+00  0.31180357826E+03  0.31180357826E+03  0.00000000000E+00 0. -1.
         21   -1    0    0  502  503 -0.00000000000E+00 -0.00000000000E+00 -0.14781216134E+03  0.14781216134E+03  0.00000000000E+00 0. -1.
         -6    2    1    2    0  503  0.62144439843E+02  0.13961736348E+02  0.21253270723E+03  0.28056382199E+03  0.17172374641E+03 0.  0.
        -24    2    3    3    0    0 -0.31025348523E+02 -0.98614500094E+01  0.10089287895E+03  0.13314029968E+03  0.80542820462E+02 0.  0.
          6    2    1    2  501    0 -0.62144439843E+02 -0.13961736348E+02 -0.48541290310E+02  0.17905191760E+03  0.16014515555E+03 0.  0.
         24    2    5    5    0    0 -0.96657349220E+02 -0.25628373256E+02 -0.14312668256E+02  0.12884295527E+03  0.79976233825E+02 0.  0.
          5    1    5    5  501    0  0.34512909377E+02  0.11666636908E+02 -0.34228622054E+02  0.50208962329E+02  0.47000000000E+01 0. -1.
        -11    1    6    6    0    0 -0.22583208923E+02 -0.23848954911E+02  0.28311129028E+02  0.43362356976E+02  0.00000000000E+00 0.  1.
         12    1    6    6    0    0 -0.74074140297E+02 -0.17794183453E+01 -0.42623797285E+02  0.85480598298E+02  0.00000000000E+00 0. -1.
         -5    1    3    3    0  503  0.93169788366E+02  0.23823186358E+02  0.11163982828E+03  0.14742352231E+03  0.47000000000E+01 0.  1.
         11    1    4    4    0    0 -0.37188451648E+02 -0.39200211561E-01  0.11143019791E+03  0.11747200296E+03  0.00000000000E+00 0. -1.
        -12    1    4    4    0    0  0.61631031251E+01 -0.98222497978E+01 -0.10537318960E+02  0.15668296719E+02  0.00000000000E+00 0.  1.
</event>
<event>
12    1  0.9966151E-001  0.3219645E+03  0.7818608E-02  0.1074758E+00
         21   -1    0    0  503  502  0.00000000000E+00  0.00000000000E+00  0.46533134668E+03  0.46533134668E+03  0.00000000000E+00 0.  1.
         21   -1    0    0  501  503 -0.00000000000E+00 -0.00000000000E+00 -0.43889968443E+03  0.43889968443E+03  0.00000000000E+00 0. -1.
          6    2    1    2  501    0  0.16202399163E+03  0.21870534462E+03  0.33052695842E+03  0.46142088951E+03  0.17198071230E+03 0.  0.
         24    2    3    3    0    0  0.17249477407E+03  0.20166115459E+03  0.34095583459E+03  0.43837760075E+03  0.74177970728E+02 0.  0.
         -6    2    1    2    0  502 -0.16202399163E+03 -0.21870534462E+03 -0.30409529617E+03  0.44281014160E+03  0.17182278871E+03 0.  0.
        -24    2    5    5    0    0 -0.41630767096E+02 -0.16726130881E+03 -0.17837872354E+03  0.26123986879E+03  0.81962392847E+02 0.  0.
          5    1    3    3  501    0 -0.10470782439E+02  0.17044190033E+02 -0.10428876174E+02  0.23043288763E+02  0.47000000000E+01 0. -1.
        -11    1    4    4    0    0  0.14910367526E+03  0.17052661962E+03  0.23925329163E+03  0.32947438676E+03  0.00000000000E+00 0.  1.
         12    1    4    4    0    0  0.23391098805E+02  0.31134534970E+02  0.10170254296E+03  0.10890321398E+03  0.00000000000E+00 0. -1.
         -5    1    5    5    0  502 -0.12039322453E+03 -0.51444035816E+02 -0.12571657263E+03  0.18157027281E+03  0.47000000000E+01 0.  1.
         11    1    6    6    0    0  0.16518378507E+02 -0.51693849328E+02 -0.22708487098E+02  0.58828447821E+02  0.00000000000E+00 0. -1.
        -12    1    6    6    0    0 -0.58149145603E+02 -0.11556745948E+03 -0.15567023644E+03  0.20241142097E+03  0.00000000000E+00 0.  1.
</event>
<event>
12    1  0.9966151E-001  0.2264805E+03  0.7818608E-02  0.1129175E+00
         21   -1    0    0  501  502  0.00000000000E+00  0.00000000000E+00  0.19439049047E+03  0.19439049047E+03  0.00000000000E+00 0.  1.
         21   -1    0    0  502  503 -0.00000000000E+00 -0.00000000000E+00 -0.37214829864E+03  0.37214829864E+03  0.00000000000E+00 0.  1.
         -6    2    1    2    0  503 -0.57899326434E+02 -0.13398137752E+03  0.64097901211E+02  0.23519665779E+03  0.17293231443E+03 0.  0.
        -24    2    3    3    0    0  0.40120092637E+01 -0.14268248160E+03  0.54207267788E+02  0.17172511039E+03  0.78591977229E+02 0.  0.
          6    2    1    2  501    0  0.57899326434E+02  0.13398137752E+03 -0.24185570938E+03  0.33134213131E+03  0.17317644846E+03 0.  0.
         24    2    5    5    0    0  0.32905304848E+02  0.45115945295E+02 -0.34031941625E+02  0.10388977454E+03  0.80726108517E+02 0.  0.
          5    1    5    5  501    0  0.24994021586E+02  0.88865432225E+02 -0.20782376775E+03  0.22745235677E+03  0.47000000000E+01 0. -1.
        -11    1    6    6    0    0 -0.17356983562E+02 -0.44861011580E+01  0.10139845641E+02  0.20596272760E+02  0.00000000000E+00 0.  1.
         12    1    6    6    0    0  0.50262288411E+02  0.49602046453E+02 -0.44171787266E+02  0.83293501780E+02  0.00000000000E+00 0. -1.
         -5    1    3    3    0  503 -0.61911335698E+02  0.87011040780E+01  0.98906334226E+01  0.63471547402E+02  0.47000000000E+01 0.  1.
         13    1    4    4    0    0 -0.19954004748E+02 -0.52719215833E+02 -0.11810553674E+02  0.57593117659E+02  0.00000000000E+00 0. -1.
        -14    1    4    4    0    0  0.23966014012E+02 -0.89963265765E+02  0.66017821462E+02  0.11413199273E+03  0.00000000000E+00 0.  1.
</event>
<event>
12    1  0.9966151E-001  0.4751844E+03  0.7818608E-02  0.1020484E+00
         21   -1    0    0  501  502  0.00000000000E+00  0.00000000000E+00  0.99533845773E+03  0.99533845773E+03  0.00000000000E+00 0.  1.
         21   -1    0    0  502  503 -0.00000000000E+00 -0.00000000000E+00 -0.32349681072E+03  0.32349681072E+03  0.00000000000E+00 0.  1.
         -6    2    1    2    0  503  0.35889263505E+03 -0.25955629945E+03  0.69649016616E+03  0.84301202543E+03  0.17145648830E+03 0.  0.
        -24    2    3    3    0    0  0.18359242602E+03 -0.18786589340E+03  0.49621060331E+03  0.56732439259E+03  0.81438509265E+02 0.  0.
          6    2    1    2  501    0 -0.35889263505E+03  0.25955629945E+03 -0.24648519159E+02  0.47582324302E+03  0.17212441147E+03 0.  0.
         24    2    5    5    0    0 -0.66179923295E+02  0.51996520847E+02 -0.83012305393E+01  0.11658638917E+03  0.80249955044E+02 0.  0.
          5    1    5    5  501    0 -0.29271271176E+03  0.20755977860E+03 -0.16347288620E+02  0.35923685385E+03  0.47000000000E+01 0. -1.
        -13    1    6    6    0    0 -0.15127384565E+02  0.38484454652E+02  0.30222512427E+02  0.51218075628E+02  0.00000000000E+00 0.  1.
         14    1    6    6    0    0 -0.51052538731E+02  0.13512066195E+02 -0.38523742966E+02  0.65368313546E+02  0.00000000000E+00 0. -1.
         -5    1    3    3    0  503  0.17530020903E+03 -0.71690406047E+02  0.20027956285E+03  0.27568763284E+03  0.47000000000E+01 0.  1.
         11    1    4    4    0    0  0.15268222147E+03 -0.14663394892E+03  0.31960844599E+03  0.38335745001E+03  0.00000000000E+00 0. -1.
        -12    1    4    4    0    0  0.30910204550E+02 -0.41231944476E+02  0.17660215732E+03  0.18396694258E+03  0.00000000000E+00 0.  1.
</event>
<event>
12    1  0.9966151E-001  0.3522040E+03  0.7818608E-02  0.1061731E+00
         21   -1    0    0  503  502  0.00000000000E+00  0.00000000000E+00  0.27066995422E+03  0.27066995422E+03  0.00000000000E+00 0.  1.
         21   -1    0    0  501  503 -0.00000000000E+00 -0.00000000000E+00 -0.46105917098E+03  0.46105917098E+03  0.00000000000E+00 0.  1.
          6    2    1    2  501    0 -0.23163907820E+03 -0.20072376915E+03 -0.12460536737E+03  0.37359622567E+03  0.17349624840E+03 0.  0.
         24    2    3    3    0    0 -0.11058581348E+03 -0.12300885851E+03 -0.70177335687E+00  0.18368126880E+03  0.79861847004E+02 0.  0.
         -6    2    1    2    0  502  0.23163907820E+03  0.20072376915E+03 -0.65783849398E+02  0.35813289953E+03  0.17316167253E+03 0.  0.
        -24    2    5    5    0    0  0.21549600263E+03  0.10136784281E+03 -0.53797066777E+02  0.25665397587E+03  0.79140206169E+02 0.  0.
          5    1    3    3  501    0 -0.12105326472E+03 -0.77714910638E+02 -0.12390359401E+03  0.18991495687E+03  0.47000000000E+01 0. -1.
        -11    1    4    4    0    0 -0.54684589321E+02 -0.10225346872E+02  0.12788268467E+02  0.57083288607E+02  0.00000000000E+00 0.  1.
         12    1    4    4    0    0 -0.55901224156E+02 -0.11278351164E+03 -0.13490041824E+02  0.12659798019E+03  0.00000000000E+00 0. -1.
         -5    1    5    5    0  502  0.16143075567E+02  0.99355926344E+02 -0.11986782621E+02  0.10147892365E+03  0.47000000000E+01 0.  1.
         11    1    6    6    0    0  0.79391721319E+02  0.55984750970E+02  0.13684475721E+02  0.98105059151E+02  0.00000000000E+00 0. -1.
        -12    1    6    6    0    0  0.13610428131E+03  0.45383091837E+02 -0.67481542498E+02  0.15854891672E+03  0.00000000000E+00 0.  1.
</event>
<event>
12    1  0.9966151E-001  0.4622957E+03  0.7818608E-02  0.1024254E+00
         21   -1    0    0  501  502  0.00000000000E+00  0.00000000000E+00  0.26076239890E+03  0.26076239890E+03  0.00000000000E+00 0.  1.
         21   -1    0    0  502  503 -0.00000000000E+00 -0.00000000000E+00 -0.90046621014E+03  0.90046621014E+03  0.00000000000E+00 0.  1.
         -6    2    1    2    0  503  0.42381551875E+03  0.52989603290E+02 -0.14169034613E+03  0.48171797933E+03  0.17189696168E+03 0.  0.
        -24    2    3    3    0    0  0.21565791929E+03  0.82943609594E+02 -0.11152980217E+03  0.26921250383E+03  0.81538303399E+02 0.  0.
          6    2    1    2  501    0 -0.42381551875E+03 -0.52989603290E+02 -0.49801346511E+03  0.67951062970E+03  0.17688920956E+03 0.  0.
         24    2    5    5    0    0 -0.24318558046E+03 -0.32249523906E+02 -0.18603385027E+03  0.31838641898E+03  0.81129895887E+02 0.  0.
          5    1    5    5  501    0 -0.18062993829E+03 -0.20740079384E+02 -0.31197961483E+03  0.36112421073E+03  0.47000000000E+01 0. -1.
        -13    1    6    6    0    0 -0.29497779180E+02 -0.46686185914E+01 -0.64341990101E+02  0.70935228668E+02  0.00000000000E+00 0.  1.
         14    1    6    6    0    0 -0.21368780128E+03 -0.27580905314E+02 -0.12169186017E+03  0.24745119031E+03  0.00000000000E+00 0. -1.
         -5    1    3    3    0  503  0.20815759946E+03 -0.29954006304E+02 -0.30160543964E+02  0.21250547550E+03  0.47000000000E+01 0.  1.
         13    1    4    4    0    0  0.11658257628E+03  0.12735590393E+02 -0.85209744898E+02  0.14496341945E+03  0.00000000000E+00 0. -1.
        -14    1    4    4    0    0  0.99075343013E+02  0.70208019201E+02 -0.26320057268E+02  0.12424908437E+03  0.00000000000E+00 0.  1.
</event>
<event>
12    1  0.9966151E-001  0.3699470E+03  0.7818608E-02  0.1054743E+00
         21   -1    0    0  501  502  0.00000000000E+00  0.00000000000E+00  0.32254980611E+04  0.32254980611E+04  0.00000000000E+00 0.  1.
         21   -1    0    0  502  503 -0.00000000000E+00 -0.00000000000E+00 -0.49313843493E+02  0.49313843493E+02  0.00000000000E+00 0.  1.
         -6    2    1    2    0  503  0.32732004594E+03  0.94800477102E+01  0.22019952739E+04  0.22328555690E+04  0.17214099467E+03 0.  0.
        -24    2    3    3    0    0  0.33722699505E+03  0.11127714154E+02  0.21877646367E+04  0.22148149626E+04  0.72424724362E+02 0.  0.
          6    2    1    2  501    0 -0.32732004594E+03 -0.94800477102E+01  0.97418894372E+03  0.10419563356E+04  0.17146609992E+03 0.  0.
         24    2    5    5    0    0 -0.80089027204E+02 -0.23844232490E+02  0.40662598089E+03  0.42269927006E+03  0.79669221606E+02 0.  0.
          5    1    5    5  501    0 -0.24723101873E+03  0.14364184780E+02  0.56756296283E+03  0.61925706553E+03  0.47000000000E+01 0. -1.
        -11    1    6    6    0    0 -0.45576455000E+01  0.30898274316E+00  0.21844031510E+03  0.21848807487E+03  0.00000000000E+00 0.  1.
         12    1    6    6    0    0 -0.75531381704E+02 -0.24153215234E+02  0.18818566579E+03  0.20421119518E+03  0.00000000000E+00 0. -1.
         -5    1    3    3    0  503 -0.99069491084E+01 -0.16476664435E+01  0.14230637208E+02  0.18040606439E+02  0.47000000000E+01 0.  1.
         13    1    4    4    0    0  0.24736780828E+03  0.34111700788E+02  0.14659553489E+04  0.14870707870E+04  0.00000000000E+00 0. -1.
        -14    1    4    4    0    0  0.89859186771E+02 -0.22983986635E+02  0.72180928779E+03  0.72774417553E+03  0.00000000000E+00 0.  1.
</event>
<event>
12    1  0.9966151E-001  0.3853593E+03  0.7818608E-02  0.1049064E+00
         21   -1    0    0  503  502  0.00000000000E+00  0.00000000000E+00  0.75780856309E+03  0.75780856309E+03  0.00000000000E+00 0.  1.
         21   -1    0    0  501  503 -0.00000000000E+00 -0.00000000000E+00 -0.21331997908E+03  0.21331997908E+03  0.00000000000E+00 0.  1.
          6    2    1    2  501    0 -0.28702310199E+03  0.18928181517E+03  0.13199424708E+03  0.40733806129E+03  0.17404582236E+03 0.  0.
         24    2    3    3    0    0 -0.80442658114E+02  0.12731931771E+03  0.33068360642E+02  0.17001285847E+03  0.71621405068E+02 0.  0.
         -6    2    1    2    0  502  0.28702310199E+03 -0.18928181517E+03  0.41249433692E+03  0.56379048089E+03  0.17175057996E+03 0.  0.
        -24    2    5    5    0    0  0.13742164722E+03 -0.16938991816E+03  0.24867515204E+03  0.34100112259E+03  0.82853973135E+02 0.  0.
          5    1    3    3  501    0 -0.20658044388E+03  0.61962497457E+02  0.98925886439E+02  0.23732520281E+03  0.47000000000E+01 0. -1.
        -11    1    4    4    0    0 -0.27595412407E+02 -0.13751733057E+01  0.62881542535E+01  0.28336174255E+02  0.00000000000E+00 0.  1.
         12    1    4    4    0    0 -0.52847245707E+02  0.12869449102E+03  0.26780206389E+02  0.14167668422E+03  0.00000000000E+00 0. -1.
         -5    1    5    5    0  502  0.14960145477E+03 -0.19891897007E+02  0.16381918488E+03  0.22278935830E+03  0.47000000000E+01 0.  1.
         11    1    6    6    0    0  0.50689744116E+02 -0.99803174545E+01  0.60923093460E+02  0.79879160059E+02  0.00000000000E+00 0. -1.
        -12    1    6    6    0    0  0.86731903106E+02 -0.15940960071E+03  0.18775205858E+03  0.26112196253E+03  0.00000000000E+00 0.  1.
</event>
<event>
12    1  0.9966151E-001  0.2161752E+03  0.7818608E-02  0.1137510E+00
         21   -1    0    0  501  502  0.00000000000E+00  0.00000000000E+00  0.42398524784E+02  0.42398524784E+02  0.00000000000E+00 0. -1.
         21   -1    0    0  502  503 -0.00000000000E+00 -0.00000000000E+00 -0.12157627742E+04  0.12157627742E+04  0.00000000000E+00 0. -1.
         -6    2    1    2    0  503  0.11491195404E+03  0.65650933291E+02 -0.38320498825E+03  0.43997476561E+03  0.17092960285E+03 0.  0.
        -24    2    3    3    0    0  0.90446968121E+02 -0.19441262539E+02 -0.20817541202E+03  0.24376910850E+03  0.86762661078E+02 0.  0.
          6    2    1    2  501    0 -0.11491195404E+03 -0.65650933291E+02 -0.79015926113E+03  0.81818653334E+03  0.16602030949E+03 0.  0.
         24    2    5    5    0    0 -0.69603752167E+02 -0.53563553297E+02 -0.20277598870E+03  0.22891568166E+03  0.59754089043E+02 0.  0.
          5    1    5    5  501    0 -0.45308201870E+02 -0.12087379993E+02 -0.58738327243E+03  0.58927085168E+03  0.47000000000E+01 0. -1.
        -13    1    6    6    0    0  0.57970644641E+01 -0.69241798731E+01 -0.61251352945E+02  0.61913475600E+02  0.00000000000E+00 0.  1.
         14    1    6    6    0    0 -0.75400816631E+02 -0.46639373424E+02 -0.14152463576E+03  0.16700220606E+03  0.00000000000E+00 0. -1.
         -5    1    3    3    0  503  0.24464985916E+02  0.85092195830E+02 -0.17502957623E+03  0.19620565711E+03  0.47000000000E+01 0.  1.
         11    1    4    4    0    0  0.23253593841E+02 -0.47462433535E+02 -0.71505534931E+02  0.88918241938E+02  0.00000000000E+00 0. -1.
        -12    1    4    4    0    0  0.67193374280E+02  0.28021170996E+02 -0.13666987709E+03  0.15485086656E+03  0.00000000000E+00 0.  1.
</event>
<event>
12    1  0.9966151E-001  0.5036893E+03  0.7818608E-02  0.1012835E+00
         21   -1    0    0  501  502  0.00000000000E+00  0.00000000000E+00  0.10766418192E+04  0.10766418192E+04  0.00000000000E+00 0. -1.
         21   -1    0    0  502  503 -0.00000000000E+00 -0.00000000000E+00 -0.27226189722E+03  0.27226189722E+03  0.00000000000E+00 0. -1.
         -6    2    1    2    0  503  0.44814086278E+03  0.15262318378E+03  0.15441034417E+03  0.52661220865E+03  0.17132949188E+03 0.  0.
        -24    2    3    3    0    0  0.33958616733E+03  0.12687223069E+03  0.17887560117E+03  0.41229741394E+03  0.81100856240E+02 0.  0.
          6    2    1    2  501    0 -0.44814086278E+03 -0.15262318378E+03  0.64996957782E+03  0.82229150778E+03  0.17198489047E+03 0.  0.
         24    2    5    5    0    0 -0.40650711549E+03 -0.10027315023E+03  0.61058512056E+03  0.74452827482E+03  0.78774507028E+02 0.  0.
          5    1    5    5  501    0 -0.41633747293E+02 -0.52350033551E+02  0.39384457263E+02  0.77763232960E+02  0.47000000000E+01 0. -1.
        -11    1    6    6    0    0 -0.17693388268E+03 -0.81584079189E+02  0.25624342556E+03  0.32190410678E+03  0.00000000000E+00 0.  1.
         12    1    6    6    0    0 -0.22957323281E+03 -0.18689071042E+02  0.35434169500E+03  0.42262416804E+03  0.00000000000E+00 0. -1.
         -5    1    3    3    0  503  0.10855469545E+03  0.25750953092E+02 -0.24465257002E+02  0.11431479471E+03  0.47000000000E+01 0.  1.
         13    1    4    4    0    0  0.11880343382E+03  0.83780095112E+02  0.54494134786E+02  0.15525131545E+03  0.00000000000E+00 0. -1.
        -14    1    4    4    0    0  0.22078273351E+03  0.43092135579E+02  0.12438146639E+03  0.25704609848E+03  0.00000000000E+00 0.  1.
</event>
<event>
12    1  0.9966151E-001  0.1745477E+03  0.7818608E-02  0.1173321E+00
         21   -1    0    0  501  502  0.00000000000E+00  0.00000000000E+00  0.70674332074E+02  0.70674332074E+02  0.00000000000E+00 0.  1.
         21   -1    0    0  502  503 -0.00000000000E+00 -0.00000000000E+00 -0.54197764338E+03  0.54197764338E+03  0.00000000000E+00 0.  1.
         -6    2    1    2    0  503  0.83744059676E+01  0.18259356916E+02 -0.37531964072E+03  0.41392236073E+03  0.17338786927E+03 0.  0.
        -24    2    3    3    0    0  0.26961238183E+02  0.62150749919E+02 -0.33343290363E+03  0.35029443089E+03  0.83301038468E+02 0.  0.
          6    2    1    2  501    0 -0.83744059676E+01 -0.18259356916E+02 -0.95983670583E+02  0.19872961472E+03  0.17284981909E+03 0.  0.
         24    2    5    5    0    0 -0.26744260217E+02 -0.29667565335E+02 -0.12873022865E+03  0.15920714226E+03  0.84735013367E+02 0.  0.
          5    1    5    5  501    0  0.18369854250E+02  0.11408208419E+02  0.32746558068E+02  0.39522472465E+02  0.47000000000E+01 0. -1.
        -11    1    6    6    0    0 -0.47704544521E+02  0.28217393407E+01 -0.39639613820E+02  0.62088523615E+02  0.00000000000E+00 0.  1.
         12    1    6    6    0    0  0.20960284304E+02 -0.32489304676E+02 -0.89090614830E+02  0.97118618643E+02  0.00000000000E+00 0. -1.
         -5    1    3    3    0  503 -0.18586832215E+02 -0.43891393003E+02 -0.41886737095E+02  0.63627929842E+02  0.47000000000E+01 0.  1.
         13    1    4    4    0    0  0.43691474722E+01  0.19773270971E+02 -0.87172833599E+01  0.22046830241E+02  0.00000000000E+00 0. -1.
        -14    1    4    4    0    0  0.22592090710E+02  0.42377478949E+02 -0.32471562027E+03  0.32824760065E+03  0.00000000000E+00 0.  1.
</event>
<event>
12    1  0.9966151E-001  0.2221453E+03  0.7818608E-02  0.1132385E+00
         21   -1    0    0  501  502  0.00000000000E+00  0.00000000000E+00  0.32907213716E+03  0.32907213716E+03  0.00000000000E+00 0. -1.
         21   -1    0    0  502  503 -0.00000000000E+00 -0.00000000000E+00 -0.24650666013E+03  0.24650666013E+03  0.00000000000E+00 0. -1.
         -6    2    1    2    0  503  0.12715151075E+03 -0.59720338920E+02 -0.13910614585E+03  0.26210507066E+03  0.17208870586E+03 0.  0.
        -24    2    3    3    0    0  0.59423789159E+02  0.25108088885E+02 -0.24884504236E+02  0.10446123206E+03  0.78302666662E+02 0.  0.
          6    2    1    2  501    0 -0.12715151075E+03  0.59720338920E+02  0.22167162288E+03  0.31347372664E+03  0.17144516131E+03 0.  0.
         24    2    5    5    0    0 -0.85568060850E+01 -0.11290156992E+02  0.58348651006E+02  0.99455788968E+02  0.79285574411E+02 0.  0.
          5    1    5    5  501    0 -0.11859470467E+03  0.71010495912E+02  0.16332297187E+03  0.21401793767E+03  0.47000000000E+01 0. -1.
        -11    1    6    6    0    0  0.22878045207E+02 -0.42221016760E+01 -0.88828822829E+01  0.24902543900E+02  0.00000000000E+00 0.  1.
         12    1    6    6    0    0 -0.31434851292E+02 -0.70680553160E+01  0.67231533289E+02  0.74553245068E+02  0.00000000000E+00 0. -1.
         -5    1    3    3    0  503  0.67727721595E+02 -0.84828427805E+02 -0.11422164161E+03  0.15764383860E+03  0.47000000000E+01 0.  1.
         13    1    4    4    0    0 -0.68240363329E+01 -0.77151603199E+01 -0.28636688862E+02  0.30432731058E+02  0.00000000000E+00 0. -1.
        -14    1    4    4    0    0  0.66247825492E+02  0.32823249205E+02  0.37521846265E+01  0.74028501000E+02  0.00000000000E+00 0.  1.
</event>
<event>
12    1  0.9966151E-001  0.2083304E+03  0.7818608E-02  0.1142957E+00
         21   -1    0    0  503  502  0.00000000000E+00  0.00000000000E+00  0.12868597150E+03  0.12868597150E+03  0.00000000000E+00 0. -1.
         21   -1    0    0  501  503 -0.00000000000E+00 -0.00000000000E+00 -0.36933629993E+03  0.36933629993E+03  0.00000000000E+00 0. -1.
          6    2    1    2  501    0 -0.32032001946E+02  0.11400973772E+03 -0.19418891937E+03  0.28457389264E+03  0.17102249713E+03 0.  0.
         24    2    3    3    0    0 -0.64722699172E+02  0.73763409246E+02 -0.19494543191E+03  0.23250556300E+03  0.80156391315E+02 0.  0.
         -6    2    1    2    0  502  0.32032001946E+02 -0.11400973772E+03 -0.46461409063E+02  0.21344837878E+03  0.17139801174E+03 0.  0.
        -24    2    5    5    0    0  0.31767389353E+02 -0.98361239315E+02  0.32424908702E+02  0.13288730473E+03  0.76964671298E+02 0.  0.
          5    1    3    3  501    0  0.32690697226E+02  0.40246328477E+02  0.75651254621E+00  0.52068329647E+02  0.47000000000E+01 0. -1.
        -13    1    4    4    0    0 -0.67857203515E+02  0.86680524021E+02 -0.18706910219E+03  0.21705520567E+03  0.00000000000E+00 0.  1.
         14    1    4    4    0    0  0.31345043432E+01 -0.12917114776E+02 -0.78763297189E+01  0.15450357324E+02  0.00000000000E+00 0. -1.
         -5    1    5    5    0  502  0.26461259295E+00 -0.15648498408E+02 -0.78886317765E+02  0.80561074054E+02  0.47000000000E+01 0.  1.
         11    1    6    6    0    0 -0.22187481526E+02 -0.53153252713E+02  0.22334067036E+02  0.61776720217E+02  0.00000000000E+00 0. -1.
        -12    1    6    6    0    0  0.53954870878E+02 -0.45207986602E+02  0.10090841666E+02  0.71110584512E+02  0.00000000000E+00 0.  1.
</event>
<event>
12    1  0.9966151E-001  0.1762610E+03  0.7818608E-02  0.1171947E+00
         21   -1    0    0  501  502  0.00000000000E+00  0.00000000000E+00  0.10700997675E+03  0.10700997675E+03  0.00000000000E+00 0. -1.
         21   -1    0    0  502  503 -0.00000000000E+00 -0.00000000000E+00 -0.29630741163E+03  0.29630741163E+03  0.00000000000E+00 0. -1.
         -6    2    1    2    0  503  0.35153547756E+02  0.87576048553E+01 -0.12949647034E+03  0.21718817433E+03  0.17055468237E+03 0.  0.
        -24    2    3    3    0    0  0.50017277185E+02  0.39388359338E+02 -0.14610633438E+03  0.17901552501E+03  0.81525004629E+02 0.  0.
          6    2    1    2  501    0 -0.35153547756E+02 -0.87576048553E+01 -0.59800964536E+02  0.18612921405E+03  0.17249771419E+03 0.  0.
         24    2    5    5    0    0 -0.32773653708E+02  0.12624186116E+02  0.30635584913E+02  0.93050191935E+02  0.80537672575E+02 0.  0.
          5    1    5    5  501    0 -0.23798940471E+01 -0.21381790971E+02 -0.90436549449E+02  0.93079022110E+02  0.47000000000E+01 0. -1.
        -13    1    6    6    0    0 -0.42050284930E+02  0.17166861010E+02 -0.13768546543E+02  0.47460514678E+02  0.00000000000E+00 0.  1.
         14    1    6    6    0    0  0.92766312213E+01 -0.45426748942E+01  0.44404131456E+02  0.45589677257E+02  0.00000000000E+00 0. -1.
         -5    1    3    3    0  503 -0.14863729429E+02 -0.30630754482E+02  0.16609864044E+02  0.38172649322E+02  0.47000000000E+01 0.  1.
         11    1    4    4    0    0  0.39824753400E+02  0.51178067408E+02 -0.50619040205E+02  0.82264772523E+02  0.00000000000E+00 0. -1.
        -12    1    4    4    0    0  0.10192523784E+02 -0.11789708070E+02 -0.95487294179E+02  0.96750752488E+02  0.00000000000E+00 0.  1.
</event>
<event>
12    1  0.9966151E-001  0.2466291E+03  0.7818608E-02  0.1115730E+00
         21   -1    0    0  503  502  0.00000000000E+00  0.00000000000E+00  0.97252571404E+03  0.97252571404E+03  0.00000000000E+00 0. -1.
         21   -1    0    0  501  503 -0.00000000000E+00 -0.00000000000E+00 -0.65142109682E+02  0.65142109682E+02  0.00000000000E+00 0. -1.
          6    2    1    2  501    0 -0.15328910250E+03  0.85637808379E+02  0.56711450296E+03  0.61842120739E+03  0.17318933890E+03 0.  0.
         24    2    3    3    0    0 -0.96942336834E+02  0.70913252119E+02  0.20094461519E+03  0.24761904009E+03  0.80684227994E+02 0.  0.
         -6    2    1    2    0  502  0.15328910250E+03 -0.85637808379E+02  0.34026910140E+03  0.41924661634E+03  0.17074331839E+03 0.  0.
        -24    2    5    5    0    0  0.15799777611E+03 -0.10523781538E+03  0.33734298207E+03  0.39834245274E+03  0.94011313460E+02 0.  0.
          5    1    3    3  501    0 -0.56346765668E+02  0.14724556260E+02  0.36616988777E+03  0.37080216729E+03  0.47000000000E+01 0. -1.
        -11    1    4    4    0    0 -0.89332911267E+02  0.21063148652E+02  0.15058637273E+03  0.17635271736E+03  0.00000000000E+00 0.  1.
         12    1    4    4    0    0 -0.76094255662E+01  0.49850103467E+02  0.50358242455E+02  0.71266322736E+02  0.00000000000E+00 0. -1.
         -5    1    5    5    0  502 -0.47086736117E+01  0.19600006996E+02  0.29261193263E+01  0.20904163598E+02  0.47000000000E+01 0.  1.
         11    1    6    6    0    0  0.31903191873E+02 -0.74889093735E+02  0.14659022429E+03  0.16767493512E+03  0.00000000000E+00 0. -1.
        -12    1    6    6    0    0  0.12609458424E+03 -0.30348721640E+02  0.19075275778E+03  0.23066751761E+03  0.00000000000E+00 0.  1.
</event>
<event>
12    1  0.9966151E-001  0.1755407E+03  0.7818608E-02  0.1172466E+00
         21   -1    0    0  503  502  0.00000000000E+00  0.00000000000E+00  0.20261465371E+03  0.20261465371E+03  0.00000000000E+00 0. -1.
         21   -1    0    0  501  503 -0.00000000000E+00 -0.00000000000E+00 -0.15321597256E+03  0.15321597256E+03  0.00000000000E+00 0. -1.
          6    2    1    2  501    0 -0.33637421577E+02  0.10240570752E+02  0.40323083106E+01  0.17558699786E+03  0.17198310640E+03 0.  0.
         24    2    3    3    0    0  0.32630919732E+02  0.48230691362E+02  0.12206994339E+02  0.98621695189E+02  0.78652727475E+02 0.  0.
         -6    2    1    2    0  502  0.33637421577E+02 -0.10240570752E+02  0.45366372843E+02  0.18024362841E+03  0.17086050562E+03 0.  0.
        -24    2    5    5    0    0 -0.28664080380E+02  0.37646564326E+02  0.96652035918E+01  0.93806840309E+02  0.80420232645E+02 0.  0.
          5    1    3    3  501    0 -0.66268341309E+02 -0.37990120611E+02 -0.81746860280E+01  0.76965302673E+02  0.47000000000E+01 0. -1.
        -13    1    4    4    0    0  0.24277095145E+02  0.67179790702E+02  0.23291202145E+02  0.75133093406E+02  0.00000000000E+00 0.  1.
         14    1    4    4    0    0  0.83538245873E+01 -0.18949099340E+02 -0.11084207806E+02  0.23488601783E+02  0.00000000000E+00 0. -1.
         -5    1    5    5    0  502  0.62301501957E+02 -0.47887135078E+02  0.35701169251E+02  0.86436788106E+02  0.47000000000E+01 0.  1.
         11    1    6    6    0    0 -0.52358257085E+00 -0.68281965871E+01  0.34811150763E+02  0.35478368407E+02  0.00000000000E+00 0. -1.
        -12    1    6    6    0    0 -0.28140497810E+02  0.44474760913E+02 -0.25145947172E+02  0.58328471902E+02  0.00000000000E+00 0.  1.
</event>
<event>
12    1  0.9966151E-001  0.1911423E+03  0.7818608E-02  0.1159303E+00
         21   -1    0    0  501  502  0.00000000000E+00  0.00000000000E+00  0.28613838145E+03  0.28613838145E+03  0.00000000000E+00 0.  1.
         21   -1    0    0  502  503 -0.00000000000E+00 -0.00000000000E+00 -0.13734517627E+03  0.13734517627E+03  0.00000000000E+00 0.  1.
         -6    2    1    2    0  503 -0.38623776284E+02 -0.72706004233E+02  0.14592354088E+03  0.24047674574E+03  0.17250340956E+03 0.  0.
        -24    2    3    3    0    0  0.76533653764E+01 -0.79749351464E+02  0.15555004843E+03  0.19245651846E+03  0.80157101174E+02 0.  0.
          6    2    1    2  501    0  0.38623776284E+02  0.72706004233E+02  0.28696642904E+01  0.18300681198E+03  0.16341756060E+03 0.  0.
         24    2    5    5    0    0 -0.14549985806E+01 -0.95658989640E+01  0.33280874449E+02  0.86456794096E+02  0.79205663922E+02 0.  0.
          5    1    5    5  501    0  0.40078774865E+02  0.82271903197E+02 -0.30411210159E+02  0.96550017885E+02  0.47000000000E+01 0. -1.
        -13    1    6    6    0    0 -0.12737610650E+01  0.35076607407E+02  0.16199105282E+02  0.38657494310E+02  0.00000000000E+00 0.  1.
         14    1    6    6    0    0 -0.18123751562E+00 -0.44642506371E+02  0.17081769167E+02  0.47799299785E+02  0.00000000000E+00 0. -1.
         -5    1    3    3    0  503 -0.46277141660E+02  0.70433472309E+01 -0.96265075502E+01  0.48020227281E+02  0.47000000000E+01 0.  1.
         11    1    4    4    0    0 -0.15773745829E+02 -0.73975475198E+02  0.68233142568E+02  0.10186728490E+03  0.00000000000E+00 0. -1.
        -12    1    4    4    0    0  0.23427111205E+02 -0.57738762662E+01  0.87316905866E+02  0.90589233557E+02  0.00000000000E+00 0.  1.
</event>
<event>
12    1  0.9966151E-001  0.2701887E+03  0.7818608E-02  0.1101302E+00
         21   -1    0    0  501  502  0.00000000000E+00  0.00000000000E+00  0.16680971228E+03  0.16680971228E+03  0.00000000000E+00 0. -1.
         21   -1    0    0  502  503 -0.00000000000E+00 -0.00000000000E+00 -0.45335549391E+03  0.45335549391E+03  0.00000000000E+00 0. -1.
         -6    2    1    2    0  503 -0.11741195712E+03  0.17126738578E+03 -0.20389342211E+03  0.33848853473E+03  0.17286953306E+03 0.  0.
        -24    2    3    3    0    0 -0.98482040899E+02  0.33420477668E+02 -0.10453855927E+03  0.16745172415E+03  0.79348149568E+02 0.  0.
          6    2    1    2  501    0  0.11741195712E+03 -0.17126738578E+03 -0.82652359523E+02  0.28167667145E+03  0.17144167987E+03 0.  0.
         24    2    5    5    0    0  0.13943086826E+03 -0.17371609852E+03 -0.97559715081E+02  0.25456306064E+03  0.75274191637E+02 0.  0.
          5    1    5    5  501    0 -0.22018911132E+02  0.24487127425E+01  0.14907355558E+02  0.27113610812E+02  0.47000000000E+01 0. -1.
        -11    1    6    6    0    0  0.22087846870E+02 -0.34489259435E+01 -0.29191630834E+02  0.36768456322E+02  0.00000000000E+00 0.  1.
         12    1    6    6    0    0  0.11734302139E+03 -0.17026717258E+03 -0.68368084247E+02  0.21779460432E+03  0.00000000000E+00 0. -1.
         -5    1    3    3    0  503 -0.18929916226E+02  0.13784690811E+03 -0.99354862832E+02  0.17103681058E+03  0.47000000000E+01 0.  1.
         11    1    4    4    0    0 -0.22740049385E+02 -0.18375388745E+02 -0.12094025169E+01  0.29261363810E+02  0.00000000000E+00 0. -1.
        -12    1    4    4    0    0 -0.75741991514E+02  0.51795866413E+02 -0.10332915676E+03  0.13819036034E+03  0.00000000000E+00 0.  1.
</event>
<event>
12    1  0.9966151E-001  0.1737023E+03  0.7818608E-02  0.1174124E+00
         21   -1    0    0  503  502  0.00000000000E+00  0.00000000000E+00  0.14390884551E+03  0.14390884551E+03  0.00000000000E+00 0. -1.
         21   -1    0    0  501  503 -0.00000000000E+00 -0.00000000000E+00 -0.30745590680E+03  0.30745590680E+03  0.00000000000E+00 0. -1.
          6    2    1    2  501    0  0.24098884485E+02  0.12554005586E+02  0.45814233395E+02  0.17932680394E+03  0.17123317243E+03 0.  0.
         24    2    3    3    0    0  0.34939167420E+02  0.61534818248E+02 -0.56434225087E+01  0.10730866668E+03  0.80473737644E+02 0.  0.
         -6    2    1    2    0  502 -0.24098884485E+02 -0.12554005586E+02 -0.20936129468E+03  0.27203794837E+03  0.17156379091E+03 0.  0.
        -24    2    5    5    0    0 -0.23633330826E+02 -0.32330468778E+02 -0.35186541347E+02  0.96680428041E+02  0.80654937461E+02 0.  0.
          5    1    3    3  501    0 -0.10840282935E+02 -0.48980812663E+02  0.51457655904E+02  0.72018137259E+02  0.47000000000E+01 0. -1.
        -13    1    4    4    0    0  0.53328819976E+02  0.27182630981E+02  0.17023258043E+02  0.62230617718E+02  0.00000000000E+00 0.  1.
         14    1    4    4    0    0 -0.18389652556E+02  0.34352187267E+02 -0.22666680551E+02  0.45078048964E+02  0.00000000000E+00 0. -1.
         -5    1    5    5    0  502 -0.46555365929E+00  0.19776463192E+02 -0.17417475333E+03  0.17535752033E+03  0.47000000000E+01 0.  1.
         11    1    6    6    0    0 -0.49373744417E+01 -0.13728715383E+02 -0.59224997575E+02  0.60995537789E+02  0.00000000000E+00 0. -1.
        -12    1    6    6    0    0 -0.18695956384E+02 -0.18601753394E+02  0.24038456228E+02  0.35684890252E+02  0.00000000000E+00 0.  1.
</event>
<event>
12    1  0.9966151E-001  0.1867166E+03  0.7818608E-02  0.1163250E+00
         21   -1    0    0  503  502  0.00000000000E+00  0.00000000000E+00  0.75336331379E+02  0.75336331379E+02  0.00000000000E+00 0. -1.
         21   -1    0    0  501  503 -0.00000000000E+00 -0.00000000000E+00 -0.62054083942E+03  0.62054083942E+03  0.00000000000E+00 0. -1.
          6    2    1    2  501    0 -0.34702627095E+02 -0.35736422856E+02 -0.46215149695E+03  0.49844466739E+03  0.17994920415E+03 0.  0.
         24    2    3    3    0    0  0.44785200589E+01 -0.64557643470E+02 -0.42463976520E+03  0.43684073027E+03  0.79518217781E+02 0.  0.
         -6    2    1    2    0  502  0.34702627095E+02  0.35736422856E+02 -0.83053011096E+02  0.19743250341E+03  0.17204774484E+03 0.  0.
        -24    2    5    5    0    0  0.58564016156E+02  0.64824430663E+02 -0.10048740226E+03  0.15570090769E+03  0.80703803147E+02 0.  0.
          5    1    3    3  501    0 -0.39181147154E+02  0.28821220615E+02 -0.37511731741E+02  0.61603937116E+02  0.47000000000E+01 0. -1.
        -13    1    4    4    0    0  0.67055789744E+01 -0.26889879245E+02 -0.36639349044E+03  0.36744009067E+03  0.00000000000E+00 0.  1.
         14    1    4    4    0    0 -0.22270589155E+01 -0.37667764225E+02 -0.58246274765E+02  0.69400639601E+02  0.00000000000E+00 0. -1.
         -5    1    5    5    0  502 -0.23861389061E+02 -0.29088007808E+02  0.17434391168E+02  0.41731595723E+02  0.47000000000E+01 0.  1.
         11    1    6    6    0    0 -0.12636215959E+02  0.22409415100E+02 -0.56028196440E+02  0.61652369259E+02  0.00000000000E+00 0. -1.
        -12    1    6    6    0    0  0.71200232115E+02  0.42415015563E+02 -0.44459205824E+02  0.94048538431E+02  0.00000000000E+00 0.  1.
</event>
<event>
12    1  0.9966151E-001  0.7288776E+03  0.7818608E-02  0.9669935E-01
         21   -1    0    0  501  502  0.00000000000E+00  0.00000000000E+00  0.59030089647E+03  0.59030089647E+03  0.00000000000E+00 0. -1.
         21   -1    0    0  502  503 -0.00000000000E+00 -0.00000000000E+00 -0.95248462367E+03  0.95248462367E+03  0.00000000000E+00 0. -1.
         -6    2    1    2    0  503 -0.41218030452E+03 -0.57553409823E+03 -0.36634480181E+03  0.81389604576E+03  0.16457872837E+03 0.  0.
        -24    2    3    3    0    0 -0.10343643438E+03 -0.22095044477E+03 -0.12642932994E+03  0.28603823509E+03  0.79468871009E+02 0.  0.
          6    2    1    2  501    0  0.41218030452E+03  0.57553409823E+03  0.41610746106E+01  0.72888947437E+03  0.17358124797E+03 0.  0.
         24    2    5    5    0    0  0.32823899476E+03  0.53409936552E+03  0.29295824856E+02  0.63184914138E+03  0.73294762194E+02 0.  0.
          5    1    5    5  501    0  0.83941309757E+02  0.41434732705E+02 -0.25134750245E+02  0.97040332996E+02  0.47000000000E+01 0. -1.
        -13    1    6    6    0    0  0.43443725003E+02  0.38423098664E+02  0.15426024843E+02  0.60013781713E+02  0.00000000000E+00 0.  1.
         14    1    6    6    0    0  0.28479526976E+03  0.49567626686E+03  0.13869800013E+02  0.57183535966E+03  0.00000000000E+00 0. -1.
         -5    1    3    3    0  503 -0.30874387014E+03 -0.35458365346E+03 -0.23991547187E+03  0.52785781068E+03  0.47000000000E+01 0.  1.
         13    1    4    4    0    0  0.55078468963E+01 -0.50059919137E+02 -0.71180768685E+01  0.50862549088E+02  0.00000000000E+00 0. -1.
        -14    1    4    4    0    0 -0.10894428128E+03 -0.17089052563E+03 -0.11931125307E+03  0.23517568600E+03  0.00000000000E+00 0.  1.
</event>
<event>
12    1  0.9966151E-001  0.2413860E+03  0.7818608E-02  0.1119088E+00
         21   -1    0    0  503  502  0.00000000000E+00  0.00000000000E+00  0.37290054575E+03  0.37290054575E+03  0.00000000000E+00 0. -1.
         21   -1    0    0  501  503 -0.00000000000E+00 -0.00000000000E+00 -0.17181309906E+03  0.17181309906E+03  0.00000000000E+00 0. -1.
          6    2    1    2  501    0  0.16757112610E+03 -0.20931397078E+02  0.18492768961E+03  0.30408131939E+03  0.17247896316E+03 0.  0.
         24    2    3    3    0    0  0.36390592293E+02 -0.47634508769E+02  0.11853665192E+03  0.15457797993E+03  0.79057525883E+02 0.  0.
         -6    2    1    2    0  502 -0.16757112610E+03  0.20931397078E+02  0.16159757089E+02  0.24063232542E+03  0.17065922947E+03 0.  0.
        -24    2    5    5    0    0 -0.42346830028E+02  0.51760665691E+02  0.34019999727E+02  0.11035321583E+03  0.80920030503E+02 0.  0.
          5    1    3    3  501    0  0.13118053380E+03  0.26703111691E+02  0.66391037685E+02  0.14950333945E+03  0.47000000000E+01 0. -1.
        -13    1    4    4    0    0  0.61119104107E+02 -0.26286086824E+02  0.78312010076E+02  0.10275832895E+03  0.00000000000E+00 0.  1.
         14    1    4    4    0    0 -0.24728511814E+02 -0.21348421946E+02  0.40224641844E+02  0.51819650979E+02  0.00000000000E+00 0. -1.
         -5    1    5    5    0  502 -0.12522429607E+03 -0.30829268613E+02 -0.17860242638E+02  0.13027910959E+03  0.47000000000E+01 0.  1.
         11    1    6    6    0    0 -0.61882296449E+02  0.52478895076E+02  0.13936808847E+02  0.82326713058E+02  0.00000000000E+00 0. -1.
        -12    1    6    6    0    0  0.19535466421E+02 -0.71822938461E+00  0.20083190881E+02  0.28026502773E+02  0.00000000000E+00 0.  1.
</event>
<event>
12    1  0.9966151E-001  0.2326927E+03  0.7818608E-02  0.1124839E+00
         21   -1    0    0  503  502  0.00000000000E+00  0.00000000000E+00  0.36081822256E+03  0.36081822256E+03  0.00000000000E+00 0. -1.
         21   -1    0    0  501  503 -0.00000000000E+00 -0.00000000000E+00 -0.15351964929E+03  0.15351964929E+03  0.00000000000E+00 0. -1.
          6    2    1    2  501    0 -0.71096418538E+01 -0.15542582774E+03  0.14396495406E+03  0.27362708941E+03  0.17302641741E+03 0.  0.
         24    2    3    3    0    0 -0.91509352092E+01 -0.18154716483E+03  0.94352045114E+02  0.21732414220E+03  0.72693615202E+02 0.  0.
         -6    2    1    2    0  502  0.71096418538E+01  0.15542582774E+03  0.63333619207E+02  0.24071078244E+03  0.17240301194E+03 0.  0.
        -24    2    5    5    0    0  0.37230082848E+02  0.22928684459E+02  0.51984841752E+02  0.10427904606E+03  0.79119479492E+02 0.  0.
          5    1    3    3  501    0  0.20412933555E+01  0.26121337093E+02  0.49612908946E+02  0.56302947207E+02  0.47000000000E+01 0. -1.
        -11    1    4    4    0    0 -0.45553917968E+00 -0.88503067891E+02  0.59788405446E+01  0.88705958517E+02  0.00000000000E+00 0.  1.
         12    1    4    4    0    0 -0.86953960296E+01 -0.93044096942E+02  0.88373204569E+02  0.12861818368E+03  0.00000000000E+00 0. -1.
         -5    1    5    5    0  502 -0.30120440995E+02  0.13249714328E+03  0.11348777455E+02  0.13643173638E+03  0.47000000000E+01 0.  1.
         13    1    6    6    0    0  0.52879589661E+02  0.38063493279E+02  0.50543673463E+02  0.82460556937E+02  0.00000000000E+00 0. -1.
        -14    1    6    6    0    0 -0.15649506812E+02 -0.15134808821E+02  0.14411682896E+01  0.21818489122E+02  0.00000000000E+00 0.  1.
</event>
<event>
12    1  0.9966151E-001  0.1761536E+03  0.7818608E-02  0.1171768E+00
         21   -1    0    0  501  502  0.00000000000E+00  0.00000000000E+00  0.63546894388E+03  0.63546894388E+03  0.00000000000E+00 0. -1.
         21   -1    0    0  502  503 -0.00000000000E+00 -0.00000000000E+00 -0.53196286897E+02  0.53196286897E+02  0.00000000000E+00 0. -1.
         -6    2    1    2    0  503 -0.39794717121E+02 -0.13229070839E+02  0.39271281126E+03  0.43041079271E+03  0.17108907191E+03 0.  0.
        -24    2    3    3    0    0 -0.11185417030E+02  0.11738479725E+02  0.38206474114E+03  0.39069502719E+03  0.80038942986E+02 0.  0.
          6    2    1    2  501    0  0.39794717121E+02  0.13229070839E+02  0.18955984573E+03  0.25825443808E+03  0.17030499654E+03 0.  0.
         24    2    5    5    0    0 -0.21698200734E+02  0.16598084054E+02  0.26836502347E+02  0.84203567128E+02  0.74991563188E+02 0.  0.
          5    1    5    5  501    0  0.61492917855E+02 -0.33690132159E+01  0.16272334338E+03  0.17405087095E+03  0.47000000000E+01 0. -1.
        -13    1    6    6    0    0 -0.95973292422E+01  0.43901219592E+02  0.30210714955E+02  0.54148989910E+02  0.00000000000E+00 0.  1.
         14    1    6    6    0    0 -0.12100871492E+02 -0.27303135537E+02 -0.33742126073E+01  0.30054577218E+02  0.00000000000E+00 0. -1.
         -5    1    3    3    0  503 -0.28609300091E+02 -0.24967550563E+02  0.10648070121E+02  0.39715765511E+02  0.47000000000E+01 0.  1.
         11    1    4    4    0    0 -0.95321060684E+00  0.41838607349E+02  0.12845037624E+03  0.13509580612E+03  0.00000000000E+00 0. -1.
        -12    1    4    4    0    0 -0.10232206423E+02 -0.30100127625E+02  0.25361436490E+03  0.25559922107E+03  0.00000000000E+00 0.  1.
</event>
<event>
12    1  0.9966151E-001  0.2373571E+03  0.7818608E-02  0.1121786E+00
         21   -1    0    0  501  502  0.00000000000E+00  0.00000000000E+00  0.28389860541E+03  0.28389860541E+03  0.00000000000E+00 0. -1.
         21   -1    0    0  502  503 -0.00000000000E+00 -0.00000000000E+00 -0.22645305260E+03  0.22645305260E+03  0.00000000000E+00 0. -1.
         -6    2    1    2    0  503  0.99078723860E+02 -0.13006964357E+03  0.12024908903E+03  0.26607934517E+03  0.17205716728E+03 0.  0.
        -24    2    3    3    0    0  0.76771710362E+01 -0.68794308292E+02  0.22743019817E+01  0.10468216133E+03  0.78495774682E+02 0.  0.
          6    2    1    2  501    0 -0.99078723860E+02  0.13006964357E+03 -0.62803536215E+02  0.24427231284E+03  0.17026442071E+03 0.  0.
         24    2    5    5    0    0 -0.71984733660E+02  0.30038480852E+02  0.12741970430E+02  0.11593864074E+03  0.84825104746E+02 0.  0.
          5    1    5    5  501    0 -0.27093990200E+02  0.10003116272E+03 -0.75545506645E+02  0.12833367210E+03  0.47000000000E+01 0. -1.
        -13    1    6    6    0    0 -0.53525893341E+02  0.57962894587E+02  0.20626765305E+02  0.81548647161E+02  0.00000000000E+00 0.  1.
         14    1    6    6    0    0 -0.18458840319E+02 -0.27924413735E+02 -0.78847948755E+01  0.34389993583E+02  0.00000000000E+00 0. -1.
         -5    1    3    3    0  503  0.91401552824E+02 -0.61275335280E+02  0.11797478705E+03  0.16139718384E+03  0.47000000000E+01 0.  1.
         13    1    4    4    0    0 -0.51153414284E+01 -0.61033932044E+02  0.33677801538E+02  0.69896365393E+02  0.00000000000E+00 0. -1.
        -14    1    4    4    0    0  0.12792512465E+02 -0.77603762485E+01 -0.31403499556E+02  0.34785795938E+02  0.00000000000E+00 0.  1.
</event>
<event>
12    1  0.9966151E-001  0.2724449E+03  0.7818608E-02  0.1100468E+00
         21   -1    0    0  501  502  0.00000000000E+00  0.00000000000E+00  0.91666894888E+03  0.91666894888E+03  0.00000000000E+00 0. -1.
         21   -1    0    0  502  503 -0.00000000000E+00 -0.00000000000E+00 -0.81011966668E+02  0.81011966668E+02  0.00000000000E+00 0. -1.
         -6    2    1    2    0  503  0.17929632362E+03  0.10554629076E+03  0.48266308751E+03  0.55424712658E+03  0.17589494058E+03 0.  0.
        -24    2    3    3    0    0  0.61000384495E+02  0.50270061532E+02  0.10333721969E+03  0.15304942628E+03  0.80606574890E+02 0.  0.
          6    2    1    2  501    0 -0.17929632362E+03 -0.10554629076E+03  0.35299389471E+03  0.44343378897E+03  0.16953360830E+03 0.  0.
         24    2    5    5    0    0 -0.20399529056E+02 -0.74690649221E+02  0.16430834583E+03  0.19478828168E+03  0.70359138040E+02 0.  0.
          5    1    5    5  501    0 -0.15889679457E+03 -0.30855641538E+02  0.18868554888E+03  0.24864550729E+03  0.47000000000E+01 0. -1.
        -11    1    6    6    0    0 -0.36929801536E+02 -0.64095670887E+02  0.15750079346E+03  0.17400737113E+03  0.00000000000E+00 0.  1.
         12    1    6    6    0    0  0.16530272480E+02 -0.10594978334E+02  0.68075523706E+01  0.20780910554E+02  0.00000000000E+00 0. -1.
         -5    1    3    3    0  503  0.11829593913E+03  0.55276229227E+02  0.37932586782E+03  0.40119770030E+03  0.47000000000E+01 0.  1.
         11    1    4    4    0    0 -0.13265932510E+02 -0.86072924953E+00  0.41858733579E+02  0.43919009518E+02  0.00000000000E+00 0. -1.
        -12    1    4    4    0    0  0.74266317005E+02  0.51130790782E+02  0.61478486108E+02  0.10913041676E+03  0.00000000000E+00 0.  1.
</event>
<event>
12    1  0.9966151E-001  0.2043230E+03  0.7818608E-02  0.1150044E+00
         21   -1    0    0  503  502  0.00000000000E+00  0.00000000000E+00  0.17394359289E+03  0.17394359289E+03  0.00000000000E+00 0. -1.
         21   -1    0    0  501  503 -0.00000000000E+00 -0.00000000000E+00 -0.54259322827E+03  0.54259322827E+03  0.00000000000E+00 0. -1.
          6    2    1    2  501    0  0.69005637335E+02  0.21055088654E+02  0.88686703309E+02  0.22274023946E+03  0.19116168076E+03 0.  0.
         24    2    3    3    0    0  0.40791399818E+02  0.22822042813E+02 -0.32896190286E+02  0.97825647280E+02  0.79390893641E+02 0.  0.
         -6    2    1    2    0  502 -0.69005637335E+02 -0.21055088654E+02 -0.45733633869E+03  0.49379658169E+03  0.17167831157E+03 0.  0.
        -24    2    5    5    0    0 -0.64706148749E+02  0.34137923212E+02 -0.17247294320E+03  0.20356564218E+03  0.79622679262E+02 0.  0.
          5    1    3    3  501    0  0.28214237517E+02 -0.17669541588E+01  0.12158289360E+03  0.12491459219E+03  0.47000000000E+01 0. -1.
        -13    1    4    4    0    0 -0.11886243056E+02  0.33230474910E+02 -0.25680936140E+02  0.43646966880E+02  0.00000000000E+00 0.  1.
         14    1    4    4    0    0  0.52677642874E+02 -0.10408432098E+02 -0.72152541464E+01  0.54178680400E+02  0.00000000000E+00 0. -1.
         -5    1    5    5    0  502 -0.42994885851E+01 -0.55193011866E+02 -0.28486339549E+03  0.29023093951E+03  0.47000000000E+01 0.  1.
         11    1    6    6    0    0 -0.25615094067E+02  0.38811790452E+01 -0.14442480856E+03  0.14673009889E+03  0.00000000000E+00 0. -1.
        -12    1    6    6    0    0 -0.39091054683E+02  0.30256744167E+02 -0.28048134647E+02  0.56835543289E+02  0.00000000000E+00 0.  1.
</event>
<event>
12    1  0.9966151E-001  0.3399192E+03  0.7818608E-02  0.1067194E+00
         21   -1    0    0  503  502  0.00000000000E+00  0.00000000000E+00  0.37109402664E+03  0.37109402664E+03  0.00000000000E+00 0. -1.
         21   -1    0    0  501  503 -0.00000000000E+00 -0.00000000000E+00 -0.37177153431E+03  0.37177153431E+03  0.00000000000E+00 0. -1.
          6    2    1    2  501    0  0.27235641904E+03 -0.97667820707E+02  0.15317700357E+03  0.37283807593E+03  0.17840407577E+03 0.  0.
         24    2    3    3    0    0  0.21871265065E+03 -0.13699221182E+03  0.10237988502E+03  0.28901386179E+03  0.80282512411E+02 0.  0.
         -6    2    1    2    0  502 -0.27235641904E+03  0.97667820707E+02 -0.15385451124E+03  0.37002748502E+03  0.17184908160E+03 0.  0.
        -24    2    5    5    0    0 -0.18740666916E+03  0.13138758177E+03 -0.13351208712E+03  0.27627575698E+03  0.78223143615E+02 0.  0.
          5    1    3    3  501    0  0.53643768392E+02  0.39324391113E+02  0.50797118544E+02  0.83824214139E+02  0.47000000000E+01 0. -1.
        -13    1    4    4    0    0  0.17231426189E+03 -0.11208228252E+03  0.11404317432E+03  0.23507549536E+03  0.00000000000E+00 0.  1.
         14    1    4    4    0    0  0.46398388754E+02 -0.24909929297E+02 -0.11663289301E+02  0.53938366437E+02  0.00000000000E+00 0. -1.
         -5    1    5    5    0  502 -0.84949749881E+02 -0.33719761067E+02 -0.20342424119E+02  0.93751728038E+02  0.47000000000E+01 0.  1.
         13    1    6    6    0    0 -0.14138372189E+02  0.13095634713E+02  0.10366274470E+02  0.21882615545E+02  0.00000000000E+00 0. -1.
        -14    1    6    6    0    0 -0.17326829697E+03  0.11829194706E+03 -0.14387836159E+03  0.25439314144E+03  0.00000000000E+00 0.  1.
</event>
<event>
12    1  0.9966151E-001  0.4051889E+03  0.7818608E-02  0.1042039E+00
         21   -1    0    0  503  502  0.00000000000E+00  0.00000000000E+00  0.23122982907E+03  0.23122982907E+03  0.00000000000E+00 0. -1.
         21   -1    0    0  501  503 -0.00000000000E+00 -0.00000000000E+00 -0.70989042495E+03  0.70989042495E+03  0.00000000000E+00 0. -1.
          6    2    1    2  501    0  0.95501274451E+02  0.35501925479E+03 -0.22453077724E+03  0.46324088348E+03  0.17034929266E+03 0.  0.
         24    2    3    3    0    0  0.62861444803E+02  0.28778624512E+03 -0.10588210961E+03  0.32293681227E+03  0.79402011675E+02 0.  0.
         -6    2    1    2    0  502 -0.95501274451E+02 -0.35501925479E+03 -0.25412981863E+03  0.47787937054E+03  0.16919681847E+03 0.  0.
        -24    2    5    5    0    0 -0.11463521882E+02 -0.12374620245E+03 -0.42720823713E+02  0.15343303950E+03  0.79196552174E+02 0.  0.
          5    1    3    3  501    0  0.32639829648E+02  0.67233009666E+02 -0.11864866764E+03  0.14030407122E+03  0.47000000000E+01 0. -1.
        -13    1    4    4    0    0  0.63195558140E+02  0.13560480516E+03 -0.76170325534E+02  0.16788168525E+03  0.00000000000E+00 0.  1.
         14    1    4    4    0    0 -0.33411333719E+00  0.15218143996E+03 -0.29711784072E+02  0.15505512701E+03  0.00000000000E+00 0. -1.
         -5    1    5    5    0  502 -0.84037752569E+02 -0.23127305233E+03 -0.21140899492E+03  0.32444633104E+03  0.47000000000E+01 0.  1.
         11    1    6    6    0    0 -0.20561818355E+02 -0.92701323377E+01 -0.30519678718E+02  0.37949631312E+02  0.00000000000E+00 0. -1.
        -12    1    6    6    0    0  0.90982964725E+01 -0.11447607012E+03 -0.12201144995E+02  0.11548340819E+03  0.00000000000E+00 0.  1.
</event>
<event>
12    1  0.9966151E-001  0.1785807E+03  0.7818608E-02  0.1170485E+00
         21   -1    0    0  503  502  0.00000000000E+00  0.00000000000E+00  0.70509362662E+03  0.70509362662E+03  0.00000000000E+00 0. -1.
         21   -1    0    0  501  503 -0.00000000000E+00 -0.00000000000E+00 -0.73243464195E+02  0.73243464195E+02  0.00000000000E+00 0. -1.
          6    2    1    2  501    0  0.15151666205E+02 -0.16517501027E+02  0.72488840600E+02  0.19273219192E+03  0.17716846492E+03 0.  0.
         24    2    3    3    0    0  0.47693362361E+00  0.59591048192E+02  0.25222577427E+02  0.10182537879E+03  0.78618756430E+02 0.  0.
         -6    2    1    2    0  502 -0.15151666205E+02  0.16517501027E+02  0.55936132183E+03  0.58560489889E+03  0.17188836034E+03 0.  0.
        -24    2    5    5    0    0 -0.70371969373E+02  0.13066131347E+02  0.45364233297E+03  0.46619054280E+03  0.80120647007E+02 0.  0.
          5    1    3    3  501    0  0.14674732581E+02 -0.76108549219E+02  0.47266263173E+02  0.90906813138E+02  0.47000000000E+01 0. -1.
        -11    1    4    4    0    0  0.23505194248E+02  0.27348470869E+02 -0.20373994168E+02  0.41418989049E+02  0.00000000000E+00 0.  1.
         12    1    4    4    0    0 -0.23028260624E+02  0.32242577323E+02  0.45596571595E+02  0.60406389737E+02  0.00000000000E+00 0. -1.
         -5    1    5    5    0  502  0.55220303168E+02  0.34513696790E+01  0.10571898886E+03  0.11941435609E+03  0.47000000000E+01 0.  1.
         13    1    6    6    0    0 -0.47427557287E+01  0.80636927263E+01  0.17343410637E+01  0.95144527541E+01  0.00000000000E+00 0. -1.
        -14    1    6    6    0    0 -0.65629213644E+02  0.50024386212E+01  0.45190799190E+03  0.45667609005E+03  0.00000000000E+00 0.  1.
</event>
<event>
12    1  0.9966151E-001  0.2143965E+03  0.7818608E-02  0.1138226E+00
         21   -1    0    0  501  502  0.00000000000E+00  0.00000000000E+00  0.34850502950E+03  0.34850502950E+03  0.00000000000E+00 0. -1.
         21   -1    0    0  502  503 -0.00000000000E+00 -0.00000000000E+00 -0.22843749426E+03  0.22843749426E+03  0.00000000000E+00 0. -1.
         -6    2    1    2    0  503  0.11709507392E+03  0.50864495000E+02  0.24790055363E+03  0.32775074919E+03  0.17224231745E+03 0.  0.
        -24    2    3    3    0    0  0.68856895868E+02 -0.41805896159E+01  0.65397725217E+02  0.13106253008E+03  0.90231784247E+02 0.  0.
          6    2    1    2  501    0 -0.11709507392E+03 -0.50864495000E+02 -0.12783301839E+03  0.24919177457E+03  0.17162985386E+03 0.  0.
         24    2    5    5    0    0 -0.24844857602E+02 -0.16617859814E+02 -0.12250047502E+03  0.15053347309E+03  0.82222502556E+02 0.  0.
          5    1    5    5  501    0 -0.92250216317E+02 -0.34246635186E+02 -0.53325433672E+01  0.98658301480E+02  0.47000000000E+01 0. -1.
        -13    1    6    6    0    0 -0.46532984882E+02 -0.19519967458E+02 -0.37791480408E+02  0.63043983083E+02  0.00000000000E+00 0.  1.
         14    1    6    6    0    0  0.21688127280E+02  0.29021076437E+01 -0.84708994611E+02  0.87489490007E+02  0.00000000000E+00 0. -1.
         -5    1    3    3    0  503  0.48238178051E+02  0.55045084616E+02  0.18250282841E+03  0.19668821912E+03  0.47000000000E+01 0.  1.
         11    1    4    4    0    0  0.50447730002E+02  0.24157807602E+02  0.77142677247E+02  0.95286755550E+02  0.00000000000E+00 0. -1.
        -12    1    4    4    0    0  0.18409165866E+02 -0.28338397218E+02 -0.11744952030E+02  0.35775774526E+02  0.00000000000E+00 0.  1.
</event>
<event>
12    1  0.9966151E-001  0.2131892E+03  0.7818608E-02  0.1139443E+00
         21   -1    0    0  501  502  0.00000000000E+00  0.00000000000E+00  0.35040960696E+03  0.35040960696E+03  0.00000000000E+00 0. -1.
         21   -1    0    0  502  503 -0.00000000000E+00 -0.00000000000E+00 -0.15156692357E+03  0.15156692357E+03  0.00000000000E+00 0. -1.
         -6    2    1    2    0  503 -0.12336642053E+03 -0.41789699840E+01  0.19765923857E+03  0.29072121428E+03  0.17381861908E+03 0.  0.
        -24    2    3    3    0    0 -0.64950448441E+02  0.28749349942E+02  0.19698232436E+03  0.22349585999E+03  0.78123475650E+02 0.  0.
          6    2    1    2  501    0  0.12336642053E+03  0.41789699840E+01  0.11834448219E+01  0.21125531624E+03  0.17143707474E+03 0.  0.
         24    2    5    5    0    0  0.13832013432E+02 -0.30204887032E+02 -0.21966343878E+02  0.94045936594E+02  0.85196585203E+02 0.  0.
          5    1    5    5  501    0  0.10953440709E+03  0.34383857016E+02  0.23149788700E+02  0.11720937965E+03  0.47000000000E+01 0. -1.
        -13    1    6    6    0    0  0.35086345650E+02 -0.31792199758E+02  0.16441196760E+02  0.50120939410E+02  0.00000000000E+00 0.  1.
         14    1    6    6    0    0 -0.21254332217E+02  0.15873127259E+01 -0.38407540638E+02  0.43924997183E+02  0.00000000000E+00 0. -1.
         -5    1    3    3    0  503 -0.58415972084E+02 -0.32928319926E+02  0.67691421852E+00  0.67225354299E+02  0.47000000000E+01 0.  1.
         13    1    4    4    0    0 -0.32111143759E+02 -0.19327406261E+02  0.12724274140E+03  0.13264761372E+03  0.00000000000E+00 0. -1.
        -14    1    4    4    0    0 -0.32839304682E+02  0.48076756203E+02  0.69739582954E+02  0.90848246266E+02  0.00000000000E+00 0.  1.
</event>
<event>
12    1  0.9966151E-001  0.1984870E+03  0.7818608E-02  0.1151798E+00
         21   -1    0    0  503  502  0.00000000000E+00  0.00000000000E+00  0.32299963374E+03  0.32299963374E+03  0.00000000000E+00 0. -1.
         21   -1    0    0  501  503 -0.00000000000E+00 -0.00000000000E+00 -0.14206001865E+03  0.14206001865E+03  0.00000000000E+00 0. -1.
          6    2    1    2  501    0  0.34811340297E+02 -0.92264161059E+02  0.18328198077E+03  0.27016546255E+03  0.17225733031E+03 0.  0.
         24    2    3    3    0    0  0.11711609624E+01 -0.68643846238E+02  0.25761366477E+02  0.10730228418E+03  0.78337621510E+02 0.  0.
         -6    2    1    2    0  502 -0.34811340297E+02  0.92264161059E+02 -0.23423656832E+01  0.19489418985E+03  0.16808852945E+03 0.  0.
        -24    2    5    5    0    0  0.16760712790E+02  0.17668304717E+02  0.43051684975E+02  0.93371146762E+02  0.79193642319E+02 0.  0.
          5    1    3    3  501    0  0.33640179335E+02 -0.23620314821E+02  0.15752061430E+03  0.16286317836E+03  0.47000000000E+01 0. -1.
        -13    1    4    4    0    0 -0.38220095710E+02 -0.32280050695E+02  0.17824437126E+02  0.53108266285E+02  0.00000000000E+00 0.  1.
         14    1    4    4    0    0  0.39391256672E+02 -0.36363795543E+02  0.79369293502E+01  0.54194017899E+02  0.00000000000E+00 0. -1.
         -5    1    5    5    0  502 -0.51572053087E+02  0.74595856342E+02 -0.45394050658E+02  0.10152304309E+03  0.47000000000E+01 0.  1.
         13    1    6    6    0    0 -0.24392980796E+02  0.15262144967E+02 -0.59008620735E+01  0.29372959577E+02  0.00000000000E+00 0. -1.
        -14    1    6    6    0    0  0.41153693585E+02  0.24061597498E+01  0.48952547049E+02  0.63998187185E+02  0.00000000000E+00 0.  1.
</event>
<event>
12    1  0.9966151E-001  0.3175356E+03  0.7818608E-02  0.1077177E+00
         21   -1    0    0  503  502  0.00000000000E+00  0.00000000000E+00  0.62045425000E+03  0.62045425000E+03  0.00000000000E+00 0.  1.
         21   -1    0    0  501  503 -0.00000000000E+00 -0.00000000000E+00 -0.18063555192E+03  0.18063555192E+03  0.00000000000E+00 0.  1.
          6    2    1    2  501    0 -0.13013757811E+03  0.22752452433E+03  0.35156038193E+03  0.47151673713E+03  0.17329204495E+03 0.  0.
         24    2    3    3    0    0 -0.19076495193E+02  0.31151665124E+02  0.11750898996E+03  0.14640289852E+03  0.79316499330E+02 0.  0.
         -6    2    1    2    0  502  0.13013757811E+03 -0.22752452433E+03  0.88258316146E+02  0.32957306479E+03  0.17923636980E+03 0.  0.
        -24    2    5    5    0    0  0.17669073783E+02 -0.11227663885E+03 -0.11249216051E+02  0.14021869189E+03  0.81341852046E+02 0.  0.
          5    1    3    3  501    0 -0.11106108291E+03  0.19637285920E+03  0.23405139198E+03  0.32511383861E+03  0.47000000000E+01 0. -1.
        -13    1    4    4    0    0 -0.13805408837E+02 -0.17555675027E+02  0.38878493920E+01  0.22669504003E+02  0.00000000000E+00 0.  1.
         14    1    4    4    0    0 -0.52710863554E+01  0.48707340151E+02  0.11362114056E+03  0.12373339452E+03  0.00000000000E+00 0. -1.
         -5    1    5    5    0  502  0.11246850432E+03 -0.11524788548E+03  0.99507532197E+02  0.18935437290E+03  0.47000000000E+01 0.  1.
         13    1    6    6    0    0 -0.86538818140E+01 -0.30509763446E+02  0.31125699447E+02  0.44435847038E+02  0.00000000000E+00 0. -1.
        -14    1    6    6    0    0  0.26322955597E+02 -0.81766875402E+02 -0.42374915498E+02  0.95782844852E+02  0.00000000000E+00 0.  1.
</event>
<event>
12    1  0.9966151E-001  0.2678021E+03  0.7818608E-02  0.1102657E+00
         21   -1    0    0  501  502  0.00000000000E+00  0.00000000000E+00  0.25520225014E+03  0.25520225014E+03  0.00000000000E+00 0.  1.
         21   -1    0    0  502  503 -0.00000000000E+00 -0.00000000000E+00 -0.28279806673E+03  0.28279806673E+03  0.00000000000E+00 0.  1.
         -6    2    1    2    0  503  0.18691947790E+03 -0.83163342668E+02 -0.39511588095E+02  0.26993321857E+03  0.17160345018E+03 0.  0.
        -24    2    3    3    0    0  0.76881415493E+02 -0.31488065385E+02 -0.83565001838E+02  0.14054425953E+03  0.76598492436E+02 0.  0.
          6    2    1    2  501    0 -0.18691947790E+03  0.83163342668E+02  0.11915771502E+02  0.26806709830E+03  0.17280900093E+03 0.  0.
         24    2    5    5    0    0 -0.14687407823E+03 -0.87950954804E+01  0.21824886939E+02  0.16716977946E+03  0.76289323725E+02 0.  0.
          5    1    5    5  501    0 -0.40045399673E+02  0.91958438149E+02 -0.99091154373E+01  0.10089731885E+03  0.47000000000E+01 0. -1.
        -13    1    6    6    0    0 -0.42609497836E+02  0.24274502654E+02 -0.15760296662E+02  0.51509297567E+02  0.00000000000E+00 0.  1.
         14    1    6    6    0    0 -0.10426458039E+03 -0.33069598135E+02  0.37585183601E+02  0.11566048189E+03  0.00000000000E+00 0. -1.
         -5    1    3    3    0  503  0.11003806241E+03 -0.51675277284E+02  0.44053413743E+02  0.12938895905E+03  0.47000000000E+01 0.  1.
         13    1    4    4    0    0  0.78637970300E+02 -0.49099517572E+02 -0.80081042720E+02  0.12250578110E+03  0.00000000000E+00 0. -1.
        -14    1    4    4    0    0 -0.17565548066E+01  0.17611452187E+02 -0.34839591180E+01  0.18038478430E+02  0.00000000000E+00 0.  1.
</event>
<event>
12    1  0.9966151E-001  0.5390491E+03  0.7818608E-02  0.1004328E+00
         21   -1    0    0  503  502  0.00000000000E+00  0.00000000000E+00  0.35901537714E+03  0.35901537714E+03  0.00000000000E+00 0.  1.
         21   -1    0    0  501  503 -0.00000000000E+00 -0.00000000000E+00 -0.82162432758E+03  0.82162432758E+03  0.00000000000E+00 0.  1.
          6    2    1    2  501    0  0.50366088643E+03  0.52198873268E+02 -0.32006979883E+03  0.62306335160E+03  0.17136001019E+03 0.  0.
         24    2    3    3    0    0  0.25212673647E+03  0.83514621933E+02 -0.13234442776E+03  0.30760652467E+03  0.81019399794E+02 0.  0.
         -6    2    1    2    0  502 -0.50366088643E+03 -0.52198873268E+02 -0.14253915161E+03  0.55757635312E+03  0.18486473142E+03 0.  0.
        -24    2    5    5    0    0 -0.40753179693E+03 -0.10510777620E+03 -0.12408111618E+03  0.44620785250E+03  0.81089543807E+02 0.  0.
          5    1    3    3  501    0  0.25153414997E+03 -0.31315748665E+02 -0.18772537107E+03  0.31545682693E+03  0.47000000000E+01 0. -1.
        -13    1    4    4    0    0 -0.46877019849E+01  0.22169664796E+01 -0.11002171974E+02  0.12162946946E+02  0.00000000000E+00 0.  1.
         14    1    4    4    0    0  0.25681443845E+03  0.81297655454E+02 -0.12134225579E+03  0.29544357773E+03  0.00000000000E+00 0. -1.
         -5    1    5    5    0  502 -0.96129089500E+02  0.52908902931E+02 -0.18458035434E+02  0.11136850062E+03  0.47000000000E+01 0.  1.
         13    1    6    6    0    0 -0.91067869006E+02 -0.59608690917E+02 -0.28590732598E+02  0.11253436270E+03  0.00000000000E+00 0. -1.
        -14    1    6    6    0    0 -0.31646392793E+03 -0.45499085282E+02 -0.95490383579E+02  0.33367348980E+03  0.00000000000E+00 0.  1.
</event>
<event>
12    1  0.9966151E-001  0.1773029E+03  0.7818608E-02  0.1170620E+00
         21   -1    0    0  503  502  0.00000000000E+00  0.00000000000E+00  0.75276956179E+03  0.75276956179E+03  0.00000000000E+00 0.  1.
         21   -1    0    0  501  503 -0.00000000000E+00 -0.00000000000E+00 -0.42636211114E+02  0.42636211114E+02  0.00000000000E+00 0.  1.
          6    2    1    2  501    0 -0.37224617296E+01 -0.42646743541E+02  0.41669426201E+03  0.45256057472E+03  0.17130196830E+03 0.  0.
         24    2    3    3    0    0 -0.65908394966E+02 -0.25711492876E+02  0.31154007993E+03  0.32913697480E+03  0.79176570942E+02 0.  0.
         -6    2    1    2    0  502  0.37224617296E+01  0.42646743541E+02  0.29343908867E+03  0.34284519819E+03  0.17205734424E+03 0.  0.
        -24    2    5    5    0    0 -0.47823678200E+02  0.77684563310E+01  0.90874413719E+02  0.13088285012E+03  0.80775666364E+02 0.  0.
          5    1    3    3  501    0  0.62185933237E+02 -0.16935250665E+02  0.10515418207E+03  0.12342359991E+03  0.47000000000E+01 0. -1.
        -11    1    4    4    0    0 -0.59710480331E+02 -0.40117410386E+02  0.14503240287E+03  0.16189239006E+03  0.00000000000E+00 0.  1.
         12    1    4    4    0    0 -0.61979146358E+01  0.14405917510E+02  0.16650767707E+03  0.16724458475E+03  0.00000000000E+00 0. -1.
         -5    1    5    5    0  502  0.51546139929E+02  0.34878287210E+02  0.20256467495E+03  0.21196234807E+03  0.47000000000E+01 0. -1.
         11    1    6    6    0    0 -0.70605418326E+02  0.44041922270E+01  0.63024155241E+02  0.94744742070E+02  0.00000000000E+00 0. -1.
        -12    1    6    6    0    0  0.22781740126E+02  0.33642641040E+01  0.27850258478E+02  0.36138108050E+02  0.00000000000E+00 0.  1.
</event>
<event>
12    1  0.9966151E-001  0.1961045E+03  0.7818608E-02  0.1153247E+00
         21   -1    0    0  501  502  0.00000000000E+00  0.00000000000E+00  0.19240250674E+04  0.19240250674E+04  0.00000000000E+00 0. -1.
         21   -1    0    0  502  503 -0.00000000000E+00 -0.00000000000E+00 -0.19936037833E+02  0.19936037833E+02  0.00000000000E+00 0. -1.
         -6    2    1    2    0  503 -0.84208016575E+02 -0.43282198169E+02  0.99323419510E+03  0.10124085878E+04  0.17173422373E+03 0.  0.
        -24    2    3    3    0    0  0.19982833000E+01  0.28862590173E+02  0.38475324276E+03  0.39361334219E+03  0.77841910891E+02 0.  0.
          6    2    1    2  501    0  0.84208016575E+02  0.43282198169E+02  0.91085483442E+03  0.93155251739E+03  0.17079000125E+03 0.  0.
         24    2    5    5    0    0  0.59724892473E+02  0.90258544265E+02  0.75476520316E+03  0.76665174890E+03  0.79816819071E+02 0.  0.
          5    1    5    5  501    0  0.24483124101E+02 -0.46976346096E+02  0.15608963127E+03  0.16490076849E+03  0.47000000000E+01 0. -1.
        -13    1    6    6    0    0  0.34197991831E+02  0.73039464413E+01  0.95560901060E+02  0.10175822370E+03  0.00000000000E+00 0.  1.
         14    1    6    6    0    0  0.25526900642E+02  0.82954597824E+02  0.65920430210E+03  0.66489352521E+03  0.00000000000E+00 0. -1.
         -5    1    3    3    0  503 -0.86206299875E+02 -0.72144788342E+02  0.60848095234E+03  0.61879524561E+03  0.47000000000E+01 0.  1.
         13    1    4    4    0    0  0.35345412989E+02 -0.16478369466E+01  0.12307975075E+03  0.12806497816E+03  0.00000000000E+00 0. -1.
        -14    1    4    4    0    0 -0.33347129689E+02  0.30510427120E+02  0.26167349201E+03  0.26554836403E+03  0.00000000000E+00 0.  1.
</event>
<event>
12    1  0.9966151E-001  0.4204346E+03  0.7818608E-02  0.1036946E+00
         21   -1    0    0  501  502  0.00000000000E+00  0.00000000000E+00  0.61730215502E+03  0.61730215502E+03  0.00000000000E+00 0.  1.
         21   -1    0    0  502  503 -0.00000000000E+00 -0.00000000000E+00 -0.28770752302E+03  0.28770752302E+03  0.00000000000E+00 0.  1.
         -6    2    1    2    0  503 -0.22726879763E+03 -0.30861898619E+03  0.13179205627E+03  0.44060684340E+03  0.17282493844E+03 0.  0.
        -24    2    3    3    0    0 -0.13934994309E+03 -0.27740493441E+03  0.13685824702E+03  0.34705579691E+03  0.73113898246E+02 0.  0.
          6    2    1    2  501    0  0.22726879763E+03  0.30861898619E+03  0.19780257573E+03  0.46440283464E+03  0.17218405514E+03 0.  0.
         24    2    5    5    0    0  0.20467295078E+03  0.20672557634E+03  0.82098641350E+02  0.30851078963E+03  0.61743337405E+02 0.  0.
          5    1    5    5  501    0  0.22595846851E+02  0.10189340985E+03  0.11570393438E+03  0.15589204501E+03  0.47000000000E+01 0. -1.
        -11    1    6    6    0    0  0.20382145900E+03  0.21010739815E+03  0.83999037929E+02  0.30453923274E+03  0.00000000000E+00 0.  1.
         12    1    6    6    0    0  0.85149178027E+00 -0.33818218074E+01 -0.19003965790E+01  0.39715568920E+01  0.00000000000E+00 0. -1.
         -5    1    3    3    0  503 -0.87918854534E+02 -0.31214051781E+02 -0.50661907498E+01  0.93551046493E+02  0.47000000000E+01 0.  1.
         13    1    4    4    0    0 -0.85533040413E+02 -0.11007920563E+03  0.87116608914E+02  0.16438563217E+03  0.00000000000E+00 0. -1.
        -14    1    4    4    0    0 -0.53816902679E+02 -0.16732572878E+03  0.49741638107E+02  0.18267016474E+03  0.00000000000E+00 0.  1.
</event>
<event>
12    1  0.9966151E-001  0.2176965E+03  0.7818608E-02  0.1137606E+00
         21   -1    0    0  501  502  0.00000000000E+00  0.00000000000E+00  0.39869559851E+02  0.39869559851E+02  0.00000000000E+00 0.  1.
         21   -1    0    0  502  503 -0.00000000000E+00 -0.00000000000E+00 -0.14698626198E+04  0.14698626198E+04  0.00000000000E+00 0.  1.
         -6    2    1    2    0  503  0.11388683796E+03 -0.15599529493E+02 -0.34047271861E+03  0.39867577232E+03  0.17264745042E+03 0.  0.
        -24    2    3    3    0    0  0.31472566016E-01  0.28472075992E+02 -0.15222145671E+03  0.17425211438E+03  0.79885964844E+02 0.  0.
          6    2    1    2  501    0 -0.11388683796E+03  0.15599529493E+02 -0.10895203413E+04  0.11110564073E+04  0.18487349432E+03 0.  0.
         24    2    5    5    0    0 -0.11930188412E+02 -0.36079161516E+01 -0.21170401139E+03  0.22711767445E+03  0.81292700512E+02 0.  0.
          5    1    5    5  501    0 -0.10195664954E+03  0.19207445644E+02 -0.87781632995E+03  0.88393873288E+03  0.47000000000E+01 0. -1.
        -11    1    6    6    0    0  0.30198398190E+00 -0.23774989699E+02 -0.19882914218E+03  0.20024577176E+03  0.00000000000E+00 0.  1.
         12    1    6    6    0    0 -0.12232172394E+02  0.20167073547E+02 -0.12874869207E+02  0.26871902687E+02  0.00000000000E+00 0. -1.
         -5    1    3    3    0  503  0.11385536539E+03 -0.44071605484E+02 -0.18825126190E+03  0.22442365794E+03  0.47000000000E+01 0.  1.
         13    1    4    4    0    0  0.21915402775E+02 -0.15659936284E+02 -0.95017231390E+02  0.98761291731E+02  0.00000000000E+00 0. -1.
        -14    1    4    4    0    0 -0.21883930209E+02  0.44132012276E+02 -0.57204225321E+02  0.75490822644E+02  0.00000000000E+00 0.  1.
</event>
<event>
12    1  0.9966151E-001  0.2223881E+03  0.7818608E-02  0.1132612E+00
         21   -1    0    0  501  502  0.00000000000E+00  0.00000000000E+00  0.24153376945E+03  0.24153376945E+03  0.00000000000E+00 0.  1.
         21   -1    0    0  502  503 -0.00000000000E+00 -0.00000000000E+00 -0.23057168731E+03  0.23057168731E+03  0.00000000000E+00 0.  1.
         -6    2    1    2    0  503 -0.13540351299E+03 -0.36929288914E+02  0.88119825332E+02  0.23671262945E+03  0.16902627492E+03 0.  0.
        -24    2    3    3    0    0 -0.91306700945E+02  0.51451152186E+01 -0.10214535735E+02  0.12092609792E+03  0.78456348185E+02 0.  0.
          6    2    1    2  501    0  0.13540351299E+03  0.36929288914E+02 -0.77157743187E+02  0.23539282731E+03  0.17250675960E+03 0.  0.
         24    2    5    5    0    0  0.15638459521E+03  0.55116992416E+02 -0.38627612113E+02  0.18766799761E+03  0.78950366912E+02 0.  0.
          5    1    5    5  501    0 -0.20981082223E+02 -0.18187703501E+02 -0.38530131074E+02  0.47724829706E+02  0.47000000000E+01 0. -1.
        -11    1    6    6    0    0  0.40117844106E+02  0.52691679498E+02 -0.40734810633E+01  0.66350943867E+02  0.00000000000E+00 0.  1.
         12    1    6    6    0    0  0.11626675111E+03  0.24253129175E+01 -0.34554131049E+02  0.12131705374E+03  0.00000000000E+00 0. -1.
         -5    1    3    3    0  503 -0.44096812043E+02 -0.42074404133E+02  0.98334361067E+02  0.11578653152E+03  0.47000000000E+01 0.  1.
         13    1    4    4    0    0 -0.10358103354E+03 -0.57410201352E+01 -0.56364874591E+01  0.10389302100E+03  0.00000000000E+00 0. -1.
        -14    1    4    4    0    0  0.12274332593E+02  0.10886135354E+02 -0.45780482758E+01  0.17033076926E+02  0.00000000000E+00 0.  1.
</event>
<event>
12    1  0.9966151E-001  0.2344282E+03  0.7818608E-02  0.1124293E+00
         21   -1    0    0  501  502  0.00000000000E+00  0.00000000000E+00  0.61117233597E+03  0.61117233597E+03  0.00000000000E+00 0.  1.
         21   -1    0    0  502  503 -0.00000000000E+00 -0.00000000000E+00 -0.10455414292E+03  0.10455414292E+03  0.00000000000E+00 0.  1.
         -6    2    1    2    0  503 -0.14832240146E+03  0.57297422858E+02  0.11419087667E+03  0.26076072179E+03  0.17226162739E+03 0.  0.
        -24    2    3    3    0    0 -0.35913432725E+02  0.97952810433E+01  0.10659080072E+03  0.13840026705E+03  0.80045692825E+02 0.  0.
          6    2    1    2  501    0  0.14832240146E+03 -0.57297422858E+02  0.39242731637E+03  0.45496575710E+03  0.16646955295E+03 0.  0.
         24    2    5    5    0    0  0.12552698210E+03 -0.97269746649E+02  0.26459900625E+03  0.31902612094E+03  0.80911092456E+02 0.  0.
          5    1    5    5  501    0  0.22795419367E+02  0.39972323792E+02  0.12782831012E+03  0.13593963616E+03  0.47000000000E+01 0. -1.
        -13    1    6    6    0    0  0.28748724481E+02 -0.37172631691E+02  0.15101078612E+03  0.15815356850E+03  0.00000000000E+00 0.  1.
         14    1    6    6    0    0  0.96778257616E+02 -0.60097114958E+02  0.11358822014E+03  0.16087255244E+03  0.00000000000E+00 0. -1.
         -5    1    3    3    0  503 -0.11240896874E+03  0.47502141814E+02  0.76000759522E+01  0.12236045474E+03  0.47000000000E+01 0.  1.
         13    1    4    4    0    0 -0.31980933641E+02  0.39519230774E+02  0.91870363405E+02  0.10499863518E+03  0.00000000000E+00 0. -1.
        -14    1    4    4    0    0 -0.39324990835E+01 -0.29723949731E+02  0.14720437317E+02  0.33401631868E+02  0.00000000000E+00 0.  1.
</event>
<event>
12    1  0.9966151E-001  0.2903795E+03  0.7818608E-02  0.1090222E+00
         21   -1    0    0  503  502  0.00000000000E+00  0.00000000000E+00  0.56619151771E+03  0.56619151771E+03  0.00000000000E+00 0.  1.
         21   -1    0    0  501  503 -0.00000000000E+00 -0.00000000000E+00 -0.15672704616E+03  0.15672704616E+03  0.00000000000E+00 0.  1.
          6    2    1    2  501    0  0.84202463762E+02  0.21759446943E+03  0.28698622626E+03  0.40826626105E+03  0.17286653180E+03 0.  0.
         24    2    3    3    0    0  0.20079923390E+02  0.18043795083E+03  0.13982023420E+03  0.24342625900E+03  0.82131530203E+02 0.  0.
         -6    2    1    2    0  502 -0.84202463762E+02 -0.21759446943E+03  0.12247824530E+03  0.31465230282E+03  0.17195273497E+03 0.  0.
        -24    2    5    5    0    0 -0.65718597215E+02 -0.22866835367E+03  0.13918522643E+03  0.28698467818E+03  0.79871949151E+02 0.  0.
          5    1    3    3  501    0  0.64122540372E+02  0.37156518602E+02  0.14716599206E+03  0.16484000205E+03  0.47000000000E+01 0. -1.
        -11    1    4    4    0    0  0.33329405442E+02  0.90213343992E+02  0.30135487713E+02  0.10078414717E+03  0.00000000000E+00 0.  1.
         12    1    4    4    0    0 -0.13249482051E+02  0.90224606840E+02  0.10968474649E+03  0.14264211183E+03  0.00000000000E+00 0. -1.
         -5    1    5    5    0  502 -0.18483866547E+02  0.11073884240E+02 -0.16706981130E+02  0.27667624639E+02  0.47000000000E+01 0.  1.
         13    1    6    6    0    0 -0.32908071610E+02 -0.85463505672E+02  0.11429332088E+02  0.92290744990E+02  0.00000000000E+00 0. -1.
        -14    1    6    6    0    0 -0.32810525605E+02 -0.14320484800E+03  0.12775589434E+03  0.19469393319E+03  0.00000000000E+00 0.  1.
</event>
<event>
12    1  0.9966151E-001  0.1801210E+03  0.7818608E-02  0.1167874E+00
         21   -1    0    0  501  502  0.00000000000E+00  0.00000000000E+00  0.11905217595E+04  0.11905217595E+04  0.00000000000E+00 0. -1.
         21   -1    0    0  502  503 -0.00000000000E+00 -0.00000000000E+00 -0.27165428642E+02  0.27165428642E+02  0.00000000000E+00 0. -1.
         -6    2    1    2    0  503  0.17029065062E+02 -0.47242449219E+02  0.56231750788E+03  0.59046131313E+03  0.17297902926E+03 0.  0.
        -24    2    3    3    0    0  0.73173973567E+02 -0.42532944263E+02  0.44882938236E+03  0.46366985118E+03  0.79865102948E+02 0.  0.
          6    2    1    2  501    0 -0.17029065062E+02  0.47242449219E+02  0.60103882299E+03  0.62722587503E+03  0.17217082651E+03 0.  0.
         24    2    5    5    0    0  0.13486578813E+01 -0.36729880394E+02  0.21871148792E+03  0.23532617615E+03  0.78694289761E+02 0.  0.
          5    1    5    5  501    0 -0.18377722943E+02  0.83972329614E+02  0.38232733508E+03  0.39189969889E+03  0.47000000000E+01 0. -1.
        -13    1    6    6    0    0  0.36476726043E+02 -0.35159527259E+02  0.11087817041E+03  0.12190452237E+03  0.00000000000E+00 0.  1.
         14    1    6    6    0    0 -0.35128068161E+02 -0.15703531354E+01  0.10783331751E+03  0.11342165378E+03  0.00000000000E+00 0. -1.
         -5    1    3    3    0  503 -0.56144908505E+02 -0.47095049565E+01  0.11348812553E+03  0.12679146195E+03  0.47000000000E+01 0.  1.
         11    1    4    4    0    0 -0.28031175751E+01  0.18505562654E+02  0.82676620344E+02  0.84768725770E+02  0.00000000000E+00 0. -1.
        -12    1    4    4    0    0  0.75977091142E+02 -0.61038506916E+02  0.36615276201E+03  0.37890112541E+03  0.00000000000E+00 0.  1.
</event>
<event>
12    1  0.9966151E-001  0.2223924E+03  0.7818608E-02  0.1132354E+00
         21   -1    0    0  503  502  0.00000000000E+00  0.00000000000E+00  0.19177478603E+03  0.19177478603E+03  0.00000000000E+00 0. -1.
         21   -1    0    0  501  503 -0.00000000000E+00 -0.00000000000E+00 -0.25763350245E+03  0.25763350245E+03  0.00000000000E+00 0. -1.
          6    2    1    2  501    0 -0.12824314151E+03  0.52867927004E+02 -0.48710045119E+02  0.22766430516E+03  0.17383051026E+03 0.  0.
         24    2    3    3    0    0 -0.47915050430E+02 -0.20512849384E+02  0.24172458510E+02  0.96625036631E+02  0.77688228876E+02 0.  0.
         -6    2    1    2    0  502  0.12824314151E+03 -0.52867927004E+02 -0.17148671299E+02  0.22174398332E+03  0.17214818082E+03 0.  0.
        -24    2    5    5    0    0  0.10931470869E+03 -0.10169104484E+03 -0.95785220761E+01  0.16862732338E+03  0.77798791567E+02 0.  0.
          5    1    3    3  501    0 -0.80328091085E+02  0.73380776388E+02 -0.72882503630E+02  0.13103926853E+03  0.47000000000E+01 0. -1.
        -13    1    4    4    0    0  0.50976323758E+01 -0.34849893164E+01  0.38612221698E+02  0.39102872923E+02  0.00000000000E+00 0.  1.
         14    1    4    4    0    0 -0.53012682805E+02 -0.17027860068E+02 -0.14439763188E+02  0.57522163708E+02  0.00000000000E+00 0. -1.
         -5    1    5    5    0  502  0.18928432825E+02  0.48823117832E+02 -0.75701492229E+01  0.53116659941E+02  0.47000000000E+01 0.  1.
         11    1    6    6    0    0  0.10935225898E+03 -0.57257015251E+02 -0.13788076962E+01  0.12344303727E+03  0.00000000000E+00 0. -1.
        -12    1    6    6    0    0 -0.37550293936E-01 -0.44434029585E+02 -0.81997143799E+01  0.45184286108E+02  0.00000000000E+00 0.  1.
</event>
<event>
12    1  0.9966151E-001  0.2426115E+03  0.7818608E-02  0.1118551E+00
         21   -1    0    0  503  502  0.00000000000E+00  0.00000000000E+00  0.13374832954E+04  0.13374832954E+04  0.00000000000E+00 0. -1.
         21   -1    0    0  501  503 -0.00000000000E+00 -0.00000000000E+00 -0.15645185254E+03  0.15645185254E+03  0.00000000000E+00 0. -1.
          6    2    1    2  501    0 -0.10824185115E+03 -0.12876188647E+03  0.12262631647E+04  0.12500326821E+04  0.17482687285E+03 0.  0.
         24    2    3    3    0    0 -0.14626936681E+03 -0.10105496756E+03  0.99154520298E+03  0.10105992324E+04  0.80883154923E+02 0.  0.
         -6    2    1    2    0  502  0.10824185115E+03  0.12876188647E+03 -0.45231721830E+02  0.24390246585E+03  0.17072370205E+03 0.  0.
        -24    2    5    5    0    0  0.23855060051E+02  0.12646615333E+03 -0.37866929249E+02  0.15903356063E+03  0.85410873131E+02 0.  0.
          5    1    3    3  501    0  0.38027515655E+02 -0.27706918915E+02  0.23471796171E+03  0.23943344973E+03  0.47000000000E+01 0. -1.
        -13    1    4    4    0    0 -0.12378311017E+03 -0.92466074756E+02  0.64613441197E+03  0.66435074447E+03  0.00000000000E+00 0.  1.
         14    1    4    4    0    0 -0.22486256631E+02 -0.85888927997E+01  0.34541079101E+03  0.34624848789E+03  0.00000000000E+00 0. -1.
         -5    1    5    5    0  502  0.84386791099E+02  0.22957331396E+01 -0.73647925811E+01  0.84868905215E+02  0.47000000000E+01 0.  1.
         13    1    6    6    0    0 -0.30395686067E+02  0.45929825755E+02 -0.76330883393E+00  0.55082023072E+02  0.00000000000E+00 0. -1.
        -14    1    6    6    0    0  0.54250746118E+02  0.80536327576E+02 -0.37103620415E+02  0.10395153756E+03  0.00000000000E+00 0.  1.
</event>
<event>
12    1  0.9966151E-001  0.2137048E+03  0.7818608E-02  0.1138891E+00
         21   -1    0    0  503  502  0.00000000000E+00  0.00000000000E+00  0.63734700000E+03  0.63734700000E+03  0.00000000000E+00 0. -1.
         21   -1    0    0  501  503 -0.00000000000E+00 -0.00000000000E+00 -0.71420337617E+02  0.71420337617E+02  0.00000000000E+00 0. -1.
          6    2    1    2  501    0  0.10278554572E+03  0.72142644258E+02  0.26726361880E+03  0.34219813297E+03  0.17291700537E+03 0.  0.
         24    2    3    3    0    0  0.25349240682E+02  0.10008953570E+03  0.17625993503E+03  0.21939271559E+03  0.80031867385E+02 0.  0.
         -6    2    1    2    0  502 -0.10278554572E+03 -0.72142644258E+02  0.29866304358E+03  0.36656920465E+03  0.17147576698E+03 0.  0.
        -24    2    5    5    0    0  0.35949540461E+01 -0.32636177890E+02  0.19164567832E+03  0.21051671962E+03  0.80691879508E+02 0.  0.
          5    1    3    3  501    0  0.77436305036E+02 -0.27946891443E+02  0.91003683769E+02  0.12280541738E+03  0.47000000000E+01 0. -1.
        -13    1    4    4    0    0  0.12536883303E+02  0.53643120097E+02  0.15890184854E+03  0.16818012739E+03  0.00000000000E+00 0.  1.
         14    1    4    4    0    0  0.12812357379E+02  0.46446415604E+02  0.17358086485E+02  0.51212588203E+02  0.00000000000E+00 0. -1.
         -5    1    5    5    0  502 -0.10638049976E+03 -0.39506466368E+02  0.10701736527E+03  0.15605248503E+03  0.47000000000E+01 0.  1.
         13    1    6    6    0    0  0.64548465186E+01 -0.13379227278E+02  0.19043227476E+03  0.19101078514E+03  0.00000000000E+00 0. -1.
        -14    1    6    6    0    0 -0.28598924725E+01 -0.19256950612E+02  0.12134035534E+01  0.19505934482E+02  0.00000000000E+00 0.  1.
</event>
<event>
12    1  0.9966151E-001  0.2645075E+03  0.7818608E-02  0.1104765E+00
         21   -1    0    0  503  502  0.00000000000E+00  0.00000000000E+00  0.48249053628E+03  0.48249053628E+03  0.00000000000E+00 0. -1.
         21   -1    0    0  501  503 -0.00000000000E+00 -0.00000000000E+00 -0.14449051606E+03  0.14449051606E+03  0.00000000000E+00 0. -1.
          6    2    1    2  501    0 -0.78493947323E+02  0.18389854839E+03  0.18978218291E+03  0.32554799543E+03  0.17315959262E+03 0.  0.
         24    2    3    3    0    0 -0.45061604667E+02  0.17823713618E+03  0.20633462551E+03  0.28752370741E+03  0.79352880926E+02 0.  0.
         -6    2    1    2    0  502  0.78493947323E+02 -0.18389854839E+03  0.14821783731E+03  0.30143305690E+03  0.17003936200E+03 0.  0.
        -24    2    5    5    0    0  0.19049488920E+02 -0.17835301956E+03  0.83675681179E+02  0.21338661209E+03  0.79746749072E+02 0.  0.
          5    1    3    3  501    0 -0.33432342657E+02  0.56614122071E+01 -0.16552442598E+02  0.38024288023E+02  0.47000000000E+01 0. -1.
        -13    1    4    4    0    0 -0.54440565882E+02  0.97889169216E+02  0.80520818880E+02  0.13794805884E+03  0.00000000000E+00 0.  1.
         14    1    4    4    0    0  0.93789612158E+01  0.80347966966E+02  0.12581380663E+03  0.14957564858E+03  0.00000000000E+00 0. -1.
         -5    1    5    5    0  502  0.59444458403E+02 -0.55455288338E+01  0.64542156134E+02  0.88046444808E+02  0.47000000000E+01 0.  1.
         13    1    6    6    0    0 -0.69223749287E+01 -0.54770203682E+02  0.65726253751E+02  0.85834928311E+02  0.00000000000E+00 0. -1.
        -14    1    6    6    0    0  0.25971863849E+02 -0.12358281587E+03  0.17949427428E+02  0.12755168378E+03  0.00000000000E+00 0.  1.
</event>
<event>
12    1  0.9966151E-001  0.2291403E+03  0.7818608E-02  0.1127318E+00
         21   -1    0    0  501  502  0.00000000000E+00  0.00000000000E+00  0.55703403219E+03  0.55703403219E+03  0.00000000000E+00 0. -1.
         21   -1    0    0  502  503 -0.00000000000E+00 -0.00000000000E+00 -0.97926997768E+02  0.97926997768E+02  0.00000000000E+00 0. -1.
         -6    2    1    2    0  503  0.15033993766E+03  0.12017720247E+02  0.16454336394E+03  0.28176797832E+03  0.17196555624E+03 0.  0.
        -24    2    3    3    0    0  0.12647179145E+02  0.25741063014E+02  0.90896721923E+02  0.12494468998E+03  0.80786187136E+02 0.  0.
          6    2    1    2  501    0 -0.15033993766E+03 -0.12017720247E+02  0.29456367048E+03  0.37319305164E+03  0.17250731976E+03 0.  0.
         24    2    5    5    0    0 -0.11572443935E+03 -0.65334174989E+02  0.25384359848E+03  0.29755515549E+03  0.80260811040E+02 0.  0.
          5    1    5    5  501    0 -0.34615498313E+02  0.53316454742E+02  0.40720072004E+02  0.75637896148E+02  0.47000000000E+01 0. -1.
        -11    1    6    6    0    0 -0.36578574307E+02  0.17614108050E+02  0.67005790419E+02  0.78345547738E+02  0.00000000000E+00 0.  1.
         12    1    6    6    0    0 -0.79145865042E+02 -0.82948283039E+02  0.18683780806E+03  0.21920960776E+03  0.00000000000E+00 0. -1.
         -5    1    3    3    0  503  0.13769275852E+03 -0.13723342767E+02  0.73646642020E+02  0.15682328834E+03  0.47000000000E+01 0.  1.
         11    1    4    4    0    0  0.11109773966E+02  0.43140782368E+02  0.14911702784E+02  0.46977793273E+02  0.00000000000E+00 0. -1.
        -12    1    4    4    0    0  0.15374051786E+01 -0.17399719354E+02  0.75985019139E+02  0.77966896705E+02  0.00000000000E+00 0.  1.
</event>
<event>
12    1  0.9966151E-001  0.2846487E+03  0.7818608E-02  0.1093554E+00
         21   -1    0    0  501  502  0.00000000000E+00  0.00000000000E+00  0.63400489477E+03  0.63400489477E+03  0.00000000000E+00 0.  1.
         21   -1    0    0  502  503 -0.00000000000E+00 -0.00000000000E+00 -0.16914899618E+03  0.16914899618E+03  0.00000000000E+00 0.  1.
         -6    2    1    2    0  503  0.82907796946E+02  0.21122809567E+03  0.43483159220E+03  0.51971472988E+03  0.17185422803E+03 0.  0.
        -24    2    3    3    0    0  0.44167912528E+02  0.65609975563E+02  0.28500524217E+03  0.30716958007E+03  0.82883589834E+02 0.  0.
          6    2    1    2  501    0 -0.82907796946E+02 -0.21122809567E+03  0.30024306402E+02  0.28343916107E+03  0.16716844157E+03 0.  0.
         24    2    5    5    0    0  0.45046211337E+00 -0.11610877719E+03 -0.30500832494E+02  0.14314779804E+03  0.77971406580E+02 0.  0.
          5    1    5    5  501    0 -0.83358259059E+02 -0.95119318485E+02  0.60525138896E+02  0.14029136303E+03  0.47000000000E+01 0. -1.
        -11    1    6    6    0    0  0.20254602224E+02 -0.97512951877E+02  0.34646543171E+01  0.99654545930E+02  0.00000000000E+00 0.  1.
         12    1    6    6    0    0 -0.19804140111E+02 -0.18595825310E+02 -0.33965486811E+02  0.43493252107E+02  0.00000000000E+00 0. -1.
         -5    1    3    3    0  503  0.38739884418E+02  0.14561812011E+03  0.14982635003E+03  0.21254514982E+03  0.47000000000E+01 0.  1.
         11    1    4    4    0    0  0.40260656188E+02  0.77142256159E+02  0.16491791496E+03  0.18646652997E+03  0.00000000000E+00 0. -1.
        -12    1    4    4    0    0  0.39072563401E+01 -0.11532280597E+02  0.12008732721E+03  0.12070305010E+03  0.00000000000E+00 0.  1.
</event>
<event>
12    1  0.9966151E-001  0.1996904E+03  0.7818608E-02  0.1150090E+00
         21   -1    0    0  503  502  0.00000000000E+00  0.00000000000E+00  0.58218078436E+02  0.58218078436E+02  0.00000000000E+00 0. -1.
         21   -1    0    0  501  503 -0.00000000000E+00 -0.00000000000E+00 -0.83478432784E+03  0.83478432784E+03  0.00000000000E+00 0. -1.
          6    2    1    2  501    0  0.72814659001E+02 -0.72946771854E+02 -0.19854172721E+03  0.28159382229E+03  0.17103525139E+03 0.  0.
         24    2    3    3    0    0  0.10493778130E+03 -0.86153465389E+02 -0.18885861537E+03  0.24523224373E+03  0.77697614001E+02 0.  0.
         -6    2    1    2    0  502 -0.72814659001E+02  0.72946771854E+02 -0.57802452219E+03  0.61140858399E+03  0.17054296300E+03 0.  0.
        -24    2    5    5    0    0 -0.89215669034E+02  0.60751827864E+02 -0.57467291885E+03  0.59017104567E+03  0.80016743809E+02 0.  0.
          5    1    3    3  501    0 -0.32123122299E+02  0.13206693534E+02 -0.96831118353E+01  0.36361578557E+02  0.47000000000E+01 0. -1.
        -11    1    4    4    0    0  0.41792466633E+02 -0.11188472883E+02 -0.11389695638E+03  0.12183722282E+03  0.00000000000E+00 0.  1.
         12    1    4    4    0    0  0.63145314666E+02 -0.74964992505E+02 -0.74961658997E+02  0.12339502091E+03  0.00000000000E+00 0. -1.
         -5    1    5    5    0  502  0.16401010033E+02  0.12194943990E+02 -0.33516033409E+01  0.21237538322E+02  0.47000000000E+01 0.  1.
         11    1    6    6    0    0 -0.37604204118E+02 -0.38671113137E+01 -0.32424254697E+03  0.32643875381E+03  0.00000000000E+00 0. -1.
        -12    1    6    6    0    0 -0.51611464915E+02  0.64618939178E+02 -0.25043037188E+03  0.26373229186E+03  0.00000000000E+00 0.  1.
</event>
<event>
12    1  0.9966151E-001  0.3720068E+03  0.7818608E-02  0.1053967E+00
         21   -1    0    0  501  502  0.00000000000E+00  0.00000000000E+00  0.46000555694E+03  0.46000555694E+03  0.00000000000E+00 0. -1.
         21   -1    0    0  502  503 -0.00000000000E+00 -0.00000000000E+00 -0.30088389109E+03  0.30088389109E+03  0.00000000000E+00 0. -1.
         -6    2    1    2    0  503 -0.32875030890E+03  0.10032172290E+02  0.92953047239E+02  0.38344399080E+03  0.17381488719E+03 0.  0.
        -24    2    3    3    0    0 -0.31257713913E+03 -0.18737978864E+01  0.38114341343E+02  0.32485476644E+03  0.79811886578E+02 0.  0.
          6    2    1    2  501    0  0.32875030890E+03 -0.10032172290E+02  0.66168618611E+02  0.37744545724E+03  0.17294327689E+03 0.  0.
         24    2    5    5    0    0  0.31846872142E+03 -0.18375230029E+02  0.20011162060E+02  0.32919695002E+03  0.78804883709E+02 0.  0.
          5    1    5    5  501    0  0.10281587479E+02  0.83430577387E+01  0.46157456551E+02  0.48248507218E+02  0.47000000000E+01 0. -1.
        -11    1    6    6    0    0  0.18206734669E+03 -0.38483157295E+02  0.38667693726E+02  0.19006489067E+03  0.00000000000E+00 0.  1.
         12    1    6    6    0    0  0.13640137473E+03  0.20107927266E+02 -0.18656531665E+02  0.13913205935E+03  0.00000000000E+00 0. -1.
         -5    1    3    3    0  503 -0.16173169766E+02  0.11905970177E+02  0.54838705897E+02  0.58589224355E+02  0.47000000000E+01 0.  1.
         11    1    4    4    0    0 -0.11765654390E+03 -0.22798361974E+02 -0.17409737647E+02  0.12110295866E+03  0.00000000000E+00 0. -1.
        -12    1    4    4    0    0 -0.19492059523E+03  0.20924564088E+02  0.55524078990E+02  0.20375180778E+03  0.00000000000E+00 0.  1.
</event>
<event>
12    1  0.9966151E-001  0.1846057E+03  0.7818608E-02  0.1163420E+00
         21   -1    0    0  501  502  0.00000000000E+00  0.00000000000E+00  0.15832854990E+03  0.15832854990E+03  0.00000000000E+00 0. -1.
         21   -1    0    0  502  503 -0.00000000000E+00 -0.00000000000E+00 -0.24010058169E+03  0.24010058169E+03  0.00000000000E+00 0. -1.
         -6    2    1    2    0  503 -0.62490541671E+02  0.22054147887E+02 -0.10499579305E+03  0.21237552343E+03  0.17230146012E+03 0.  0.
        -24    2    3    3    0    0 -0.38076255595E+02 -0.45059895617E+02 -0.98257041583E+02  0.14048774303E+03  0.81253703229E+02 0.  0.
          6    2    1    2  501    0  0.62490541671E+02 -0.22054147887E+02  0.23223761256E+02  0.18605360816E+03  0.17229378626E+03 0.  0.
         24    2    5    5    0    0  0.95461399084E+02 -0.38854365022E+02  0.50601233540E+02  0.13978330750E+03  0.79726707086E+02 0.  0.
          5    1    5    5  501    0 -0.32970857414E+02  0.16800217135E+02 -0.27377472284E+02  0.46270300659E+02  0.47000000000E+01 0. -1.
        -13    1    6    6    0    0  0.33391516594E+02 -0.44918555812E+02 -0.50504953353E+01  0.56197664896E+02  0.00000000000E+00 0.  1.
         14    1    6    6    0    0  0.62069882490E+02  0.60641907897E+01  0.55651728876E+02  0.83585642601E+02  0.00000000000E+00 0. -1.
         -5    1    3    3    0  503 -0.24414286076E+02  0.67114043503E+02 -0.67387514686E+01  0.71887780403E+02  0.47000000000E+01 0.  1.
         11    1    4    4    0    0 -0.63353784077E+02 -0.24889550533E+02 -0.65978595504E+02  0.94796449022E+02  0.00000000000E+00 0. -1.
        -12    1    4    4    0    0  0.25277528482E+02 -0.20170345084E+02 -0.32278446079E+02  0.45691294009E+02  0.00000000000E+00 0.  1.
</event>
<event>
12    1  0.9966151E-001  0.1867563E+03  0.7818608E-02  0.1161529E+00
         21   -1    0    0  503  502  0.00000000000E+00  0.00000000000E+00  0.10615234864E+03  0.10615234864E+03  0.00000000000E+00 0.  1.
         21   -1    0    0  501  503 -0.00000000000E+00 -0.00000000000E+00 -0.32807426022E+03  0.32807426022E+03  0.00000000000E+00 0.  1.
          6    2    1    2  501    0 -0.62387315906E+02 -0.32798212761E+02 -0.10381531913E+03  0.21325810491E+03  0.17243404210E+03 0.  0.
         24    2    3    3    0    0  0.53023582035E+01  0.53548452964E+01 -0.10909679694E+03  0.13523546827E+03  0.79559609134E+02 0.  0.
         -6    2    1    2    0  502  0.62387315906E+02  0.32798212761E+02 -0.11810659244E+03  0.22096850395E+03  0.17294511445E+03 0.  0.
        -24    2    5    5    0    0  0.93872628251E+02 -0.19298817614E+02 -0.74692691699E+02  0.14605333696E+03  0.81043595354E+02 0.  0.
          5    1    3    3  501    0 -0.67689674110E+02 -0.38153058057E+02  0.52814778044E+01  0.78022636638E+02  0.47000000000E+01 0. -1.
        -13    1    4    4    0    0 -0.34243152507E+02  0.17182243462E+02 -0.58641857345E+02  0.70047772391E+02  0.00000000000E+00 0.  1.
         14    1    4    4    0    0  0.39545510711E+02 -0.11827398166E+02 -0.50454939593E+02  0.65187695880E+02  0.00000000000E+00 0. -1.
         -5    1    5    5    0  502 -0.31485312345E+02  0.52097030374E+02 -0.43413900745E+02  0.74915166990E+02  0.47000000000E+01 0.  1.
         11    1    6    6    0    0  0.33000852188E+02 -0.17147836380E+02  0.12900661451E+02  0.39364090279E+02  0.00000000000E+00 0. -1.
        -12    1    6    6    0    0  0.60871776063E+02 -0.21509812344E+01 -0.87593353150E+02  0.10668924668E+03  0.00000000000E+00 0.  1.
</event>
<event>
12    1  0.9966151E-001  0.2471092E+03  0.7818608E-02  0.1115287E+00
         21   -1    0    0  501  502  0.00000000000E+00  0.00000000000E+00  0.58125376693E+03  0.58125376693E+03  0.00000000000E+00 0.  1.
         21   -1    0    0  502  503 -0.00000000000E+00 -0.00000000000E+00 -0.14669009335E+03  0.14669009335E+03  0.00000000000E+00 0.  1.
         -6    2    1    2    0  503 -0.17341672786E+03 -0.35496947809E+02  0.22222159376E+02  0.24722722458E+03  0.17115513840E+03 0.  0.
        -24    2    3    3    0    0 -0.89183460738E+02  0.47680382860E+02  0.15280493964E+02  0.12855124408E+03  0.77876956034E+02 0.  0.
          6    2    1    2  501    0  0.17341672786E+03  0.35496947809E+02  0.41234151421E+03  0.48071663570E+03  0.17242263394E+03 0.  0.
         24    2    5    5    0    0  0.11452997249E+03 -0.27013117401E+02  0.33687397668E+03  0.36629374712E+03  0.82705561506E+02 0.  0.
          5    1    5    5  501    0  0.58886755376E+02  0.62510065210E+02  0.75467537527E+02  0.11442288858E+03  0.47000000000E+01 0. -1.
        -11    1    6    6    0    0  0.70609023541E+02 -0.36900246860E+02  0.11501602413E+03  0.13991407445E+03  0.00000000000E+00 0.  1.
         12    1    6    6    0    0  0.43920948945E+02  0.98871294596E+01  0.22185795256E+03  0.22637967267E+03  0.00000000000E+00 0. -1.
         -5    1    3    3    0  503 -0.84233267124E+02 -0.83177330670E+02  0.69416654117E+01  0.11867598049E+03  0.47000000000E+01 0.  1.
         11    1    4    4    0    0 -0.96107749086E+02  0.34071626358E+02 -0.62456527752E+01  0.10215959737E+03  0.00000000000E+00 0. -1.
        -12    1    4    4    0    0  0.69242883480E+01  0.13608756503E+02  0.21526146739E+02  0.26391646711E+02  0.00000000000E+00 0.  1.
</event>
<event>
12    1  0.9966151E-001  0.2504007E+03  0.7818608E-02  0.1113216E+00
         21   -1    0    0  501  502  0.00000000000E+00  0.00000000000E+00  0.12036165022E+03  0.12036165022E+03  0.00000000000E+00 0. -1.
         21   -1    0    0  502  503 -0.00000000000E+00 -0.00000000000E+00 -0.52722148803E+03  0.52722148803E+03  0.00000000000E+00 0. -1.
         -6    2    1    2    0  503 -0.22845142857E+02 -0.17982803756E+03 -0.24400348291E+03  0.34888142213E+03  0.17123236666E+03 0.  0.
        -24    2    3    3    0    0  0.28567345905E+01 -0.19976755629E+03 -0.20222828236E+03  0.29572666418E+03  0.81503032088E+02 0.  0.
          6    2    1    2  501    0  0.22845142857E+02  0.17982803756E+03 -0.16285635490E+03  0.29870171612E+03  0.17274402809E+03 0.  0.
         24    2    5    5    0    0  0.51074701050E+02  0.17273799532E+03 -0.17829533659E+03  0.26542065829E+03  0.78815345491E+02 0.  0.
          5    1    5    5  501    0 -0.28229558193E+02  0.70900422361E+01  0.15438981691E+02  0.33281057831E+02  0.47000000000E+01 0. -1.
        -11    1    6    6    0    0  0.69919155304E+02  0.11667742107E+03 -0.10892893558E+03  0.17426365620E+03  0.00000000000E+00 0.  1.
         12    1    6    6    0    0 -0.18844454254E+02  0.56060574248E+02 -0.69366401012E+02  0.91157002092E+02  0.00000000000E+00 0. -1.
         -5    1    3    3    0  503 -0.25701877448E+02  0.19939518738E+02 -0.41775200543E+02  0.53154757945E+02  0.47000000000E+01 0.  1.
         13    1    4    4    0    0  0.34154942941E+02 -0.61128513370E+02 -0.93318982574E+02  0.11666913809E+03  0.00000000000E+00 0. -1.
        -14    1    4    4    0    0 -0.31298208351E+02 -0.13863904292E+03 -0.10890929979E+03  0.17905752609E+03  0.00000000000E+00 0.  1.
</event>
<event>
12    1  0.9966151E-001  0.2295373E+03  0.7818608E-02  0.1127320E+00
         21   -1    0    0  501  502  0.00000000000E+00  0.00000000000E+00  0.92221662322E+03  0.92221662322E+03  0.00000000000E+00 0. -1.
         21   -1    0    0  502  503 -0.00000000000E+00 -0.00000000000E+00 -0.10019497957E+03  0.10019497957E+03  0.00000000000E+00 0. -1.
         -6    2    1    2    0  503  0.71054387961E+02  0.13099260062E+03  0.72928215195E+02  0.23893964023E+03  0.17194720014E+03 0.  0.
        -24    2    3    3    0    0 -0.23406794623E+02  0.34595165862E+02  0.11675088112E+02  0.90651353366E+02  0.79603119594E+02 0.  0.
          6    2    1    2  501    0 -0.71054387961E+02 -0.13099260062E+03  0.74909342846E+03  0.78347196256E+03  0.17458397434E+03 0.  0.
         24    2    5    5    0    0 -0.76357952402E+02 -0.89088806934E+02  0.71542006429E+03  0.72924981602E+03  0.78816707357E+02 0.  0.
          5    1    5    5  501    0  0.53035644406E+01 -0.41903793690E+02  0.33673364168E+02  0.54222146543E+02  0.47000000000E+01 0. -1.
        -13    1    6    6    0    0 -0.41977776768E+02 -0.89737063244E+02  0.61908230104E+03  0.62695914518E+03  0.00000000000E+00 0.  1.
         14    1    6    6    0    0 -0.34380175634E+02  0.64825631027E+00  0.96337763246E+02  0.10229067084E+03  0.00000000000E+00 0. -1.
         -5    1    3    3    0  503  0.94461182584E+02  0.96397434762E+02  0.61253127084E+02  0.14828828687E+03  0.47000000000E+01 0.  1.
         11    1    4    4    0    0 -0.47271385594E+02  0.34886842084E+02  0.24386270630E+02  0.63611051255E+02  0.00000000000E+00 0. -1.
        -12    1    4    4    0    0  0.23864590971E+02 -0.29167622273E+00 -0.12711182518E+02  0.27040302110E+02  0.00000000000E+00 0.  1.
</event>
<event>
12    1  0.9966151E-001  0.8005667E+03  0.7818608E-02  0.9559239E-01
         21   -1    0    0  501  502  0.00000000000E+00  0.00000000000E+00  0.53073200250E+03  0.53073200250E+03  0.00000000000E+00 0.  1.
         21   -1    0    0  502  503 -0.00000000000E+00 -0.00000000000E+00 -0.21732459006E+04  0.21732459006E+04  0.00000000000E+00 0.  1.
         -6    2    1    2    0  503 -0.94858087999E+02 -0.77618063111E+03  0.80009074622E+02  0.80455483322E+03  0.17161759429E+03 0.  0.
        -24    2    3    3    0    0 -0.57092532539E+02 -0.40369942401E+03 -0.24468686565E+02  0.41583105031E+03  0.77999766398E+02 0.  0.
          6    2    1    2  501    0  0.94858087999E+02  0.77618063111E+03 -0.17225229728E+04  0.18994230699E+04  0.17107944887E+03 0.  0.
         24    2    5    5    0    0 -0.14414063195E+02  0.20802847858E+03 -0.47755684359E+03  0.52657929721E+03  0.75773374407E+02 0.  0.
          5    1    5    5  501    0  0.10927215119E+03  0.56815215253E+03 -0.12449661292E+04  0.13728437727E+04  0.47000000000E+01 0. -1.
        -11    1    6    6    0    0  0.59412747763E+01  0.41817437467E+02 -0.18243270244E+03  0.18725834492E+03  0.00000000000E+00 0.  1.
         12    1    6    6    0    0 -0.20355337972E+02  0.16621104111E+03 -0.29512414115E+03  0.33932095229E+03  0.00000000000E+00 0. -1.
         -5    1    3    3    0  503 -0.37765555460E+02 -0.37248120710E+03  0.10447776119E+03  0.38872378292E+03  0.47000000000E+01 0.  1.
         11    1    4    4    0    0 -0.66279465662E+02 -0.36967870262E+03 -0.39247019203E+02  0.37761837780E+03  0.00000000000E+00 0. -1.
        -12    1    4    4    0    0  0.91869331235E+01 -0.34020721395E+02  0.14778332639E+02  0.38212672506E+02  0.00000000000E+00 0.  1.
</event>
<event>
12    1  0.9966151E-001  0.2312374E+03  0.7818608E-02  0.1125919E+00
         21   -1    0    0  503  502  0.00000000000E+00  0.00000000000E+00  0.32115513488E+03  0.32115513488E+03  0.00000000000E+00 0.  1.
         21   -1    0    0  501  503 -0.00000000000E+00 -0.00000000000E+00 -0.17459675256E+03  0.17459675256E+03  0.00000000000E+00 0.  1.
          6    2    1    2  501    0 -0.12898734412E+03 -0.86248811655E+02  0.12875672377E+03  0.26466776151E+03  0.17144718608E+03 0.  0.
         24    2    3    3    0    0 -0.95650797061E+02 -0.77173677549E+02  0.16268260031E+03  0.21601862454E+03  0.71369224593E+02 0.  0.
         -6    2    1    2    0  502  0.12898734412E+03  0.86248811655E+02  0.17801658550E+02  0.23108412593E+03  0.17031260010E+03 0.  0.
        -24    2    5    5    0    0  0.24995439113E+02  0.38967742645E+02 -0.43698831622E+02  0.10126033733E+03  0.78745228985E+02 0.  0.
          5    1    3    3  501    0 -0.33336547059E+02 -0.90751341059E+01 -0.33925876545E+02  0.48649136973E+02  0.47000000000E+01 0. -1.
        -13    1    4    4    0    0 -0.82361574033E+02 -0.51798582511E+02  0.15998470099E+03  0.18724750086E+03  0.00000000000E+00 0.  1.
         14    1    4    4    0    0 -0.13289223029E+02 -0.25375095038E+02  0.26978993177E+01  0.28771123677E+02  0.00000000000E+00 0. -1.
         -5    1    5    5    0  502  0.10399190501E+03  0.47281069010E+02  0.61500490172E+02  0.12982378860E+03  0.47000000000E+01 0.  1.
         13    1    6    6    0    0  0.39479568744E+02  0.35850408909E+00  0.22195745660E+01  0.39543537836E+02  0.00000000000E+00 0. -1.
        -14    1    6    6    0    0 -0.14484129631E+02  0.38609238556E+02 -0.45918406188E+02  0.61716799494E+02  0.00000000000E+00 0.  1.
</event>
<event>
12    1  0.9966151E-001  0.1896895E+03  0.7818608E-02  0.1159188E+00
         21   -1    0    0  501  502  0.00000000000E+00  0.00000000000E+00  0.71658960787E+02  0.71658960787E+02  0.00000000000E+00 0. -1.
         21   -1    0    0  502  503 -0.00000000000E+00 -0.00000000000E+00 -0.50313720197E+03  0.50313720197E+03  0.00000000000E+00 0. -1.
         -6    2    1    2    0  503  0.75085456666E+02 -0.12642899303E+02 -0.18495620039E+03  0.26493569163E+03  0.17373674318E+03 0.  0.
        -24    2    3    3    0    0 -0.10789096995E+02 -0.15145743552E+02 -0.29853080885E+02  0.87566667065E+02  0.80192995834E+02 0.  0.
          6    2    1    2  501    0 -0.75085456666E+02  0.12642899303E+02 -0.24652204080E+03  0.30986047113E+03  0.17158882908E+03 0.  0.
         24    2    5    5    0    0 -0.36389189615E+02  0.75106278643E+02 -0.13926306211E+03  0.17976184181E+03  0.77168601709E+02 0.  0.
          5    1    5    5  501    0 -0.38696267051E+02 -0.62463379340E+02 -0.10725897869E+03  0.13009862932E+03  0.47000000000E+01 0. -1.
        -11    1    6    6    0    0 -0.22879577097E+02 -0.93958071315E+01 -0.51778591180E+02  0.57382739080E+02  0.00000000000E+00 0.  1.
         12    1    6    6    0    0 -0.13509612518E+02  0.84502085774E+02 -0.87484470929E+02  0.12237910273E+03  0.00000000000E+00 0. -1.
         -5    1    3    3    0  503  0.85874553660E+02  0.25028442492E+01 -0.15510311951E+03  0.17736902457E+03  0.47000000000E+01 0.  1.
         13    1    4    4    0    0 -0.21917511344E+02  0.27029928207E+02 -0.26647002998E+02  0.43829865288E+02  0.00000000000E+00 0. -1.
        -14    1    4    4    0    0  0.11128414349E+02 -0.42175671759E+02 -0.32060778869E+01  0.43736801777E+02  0.00000000000E+00 0.  1.
</event>
<event>
12    1  0.9966151E-001  0.1746068E+03  0.7818608E-02  0.1173451E+00
         21   -1    0    0  503  502  0.00000000000E+00  0.00000000000E+00  0.22511346897E+03  0.22511346897E+03  0.00000000000E+00 0. -1.
         21   -1    0    0  501  503 -0.00000000000E+00 -0.00000000000E+00 -0.17956501909E+03  0.17956501909E+03  0.00000000000E+00 0. -1.
          6    2    1    2  501    0  0.18265335240E+02 -0.21787315080E+02  0.12426821336E+03  0.21431310730E+03  0.17227654959E+03 0.  0.
         24    2    3    3    0    0  0.38314543297E+02 -0.46314326478E+02  0.15640465855E+02  0.10106284214E+03  0.79724856999E+02 0.  0.
         -6    2    1    2    0  502 -0.18265335240E+02  0.21787315080E+02 -0.78719763481E+02  0.19036538076E+03  0.17097914334E+03 0.  0.
        -24    2    5    5    0    0 -0.32820107140E+01 -0.48812784229E+02 -0.69828517532E+02  0.11749550844E+03  0.80843757615E+02 0.  0.
          5    1    3    3  501    0 -0.20049208058E+02  0.24527011399E+02  0.10862774751E+03  0.11325026517E+03  0.47000000000E+01 0. -1.
        -13    1    4    4    0    0  0.16080329001E+02 -0.20146589215E+02 -0.32780798131E+02  0.41701831661E+02  0.00000000000E+00 0.  1.
         14    1    4    4    0    0  0.22234214296E+02 -0.26167737263E+02  0.48421263985E+02  0.59361010477E+02  0.00000000000E+00 0. -1.
         -5    1    5    5    0  502 -0.14983324526E+02  0.70600099309E+02 -0.88912459497E+01  0.72869872312E+02  0.47000000000E+01 0.  1.
         11    1    6    6    0    0  0.78348632127E+01 -0.19393907508E+02  0.15839454593E+02  0.26237321735E+02  0.00000000000E+00 0. -1.
        -12    1    6    6    0    0 -0.11116873927E+02 -0.29418876721E+02 -0.85667972125E+02  0.91258186709E+02  0.00000000000E+00 0.  1.
</event>
<event>
12    1  0.9966151E-001  0.1758014E+03  0.7818608E-02  0.1172094E+00
         21   -1    0    0  503  502  0.00000000000E+00  0.00000000000E+00  0.28155230988E+03  0.28155230988E+03  0.00000000000E+00 0.  1.
         21   -1    0    0  501  503 -0.00000000000E+00 -0.00000000000E+00 -0.10959537946E+03  0.10959537946E+03  0.00000000000E+00 0.  1.
          6    2    1    2  501    0  0.25645382098E+02 -0.23482318963E+02  0.77073069842E+02  0.19195416010E+03  0.17232828137E+03 0.  0.
         24    2    3    3    0    0  0.84321773333E+02 -0.17035126492E+02  0.52612814313E+02  0.12788482828E+03  0.78651535794E+02 0.  0.
         -6    2    1    2    0  502 -0.25645382098E+02  0.23482318963E+02  0.94883860572E+02  0.19919352924E+03  0.17165666363E+03 0.  0.
        -24    2    5    5    0    0  0.40031391923E+02  0.42239929968E+02  0.25883618090E+02  0.10199059678E+03  0.79657994720E+02 0.  0.
          5    1    3    3  501    0 -0.58676391234E+02 -0.64471924705E+01  0.24460255529E+02  0.64069331818E+02  0.47000000000E+01 0. -1.
        -11    1    4    4    0    0  0.19251254211E+01 -0.30742480962E+02  0.35350824538E+01  0.31004887543E+02  0.00000000000E+00 0.  1.
         12    1    4    4    0    0  0.82396647912E+02  0.13707354470E+02  0.49077731859E+02  0.96879940741E+02  0.00000000000E+00 0. -1.
         -5    1    5    5    0  502 -0.65676774021E+02 -0.18757611005E+02  0.69000242482E+02  0.97202932461E+02  0.47000000000E+01 0.  1.
         11    1    6    6    0    0 -0.15088675424E+02 -0.79196823891E+01 -0.94790901474E+01  0.19499811415E+02  0.00000000000E+00 0. -1.
        -12    1    6    6    0    0  0.55120067346E+02  0.50159612357E+02  0.35362708238E+02  0.82490785364E+02  0.00000000000E+00 0.  1.
</event>
<event>
12    1  0.9966151E-001  0.1984230E+03  0.7818608E-02  0.1151613E+00
         21   -1    0    0  503  502  0.00000000000E+00  0.00000000000E+00  0.33592596530E+03  0.33592596530E+03  0.00000000000E+00 0.  1.
         21   -1    0    0  501  503 -0.00000000000E+00 -0.00000000000E+00 -0.11791293407E+03  0.11791293407E+03  0.00000000000E+00 0.  1.
          6    2    1    2  501    0 -0.74651989003E+02 -0.65445991501E+02  0.13919368685E+03  0.24033440546E+03  0.16890721336E+03 0.  0.
         24    2    3    3    0    0 -0.68278766707E+02 -0.50586439121E+02  0.18163825346E+02  0.11813889967E+03  0.80036849380E+02 0.  0.
         -6    2    1    2    0  502  0.74651989003E+02  0.65445991501E+02  0.78819344382E+02  0.21350449391E+03  0.17180099710E+03 0.  0.
        -24    2    5    5    0    0  0.16421604232E+02  0.25726932937E+02  0.10628987211E+03  0.13770804797E+03  0.82063544877E+02 0.  0.
          5    1    3    3  501    0 -0.63732222957E+01 -0.14859552380E+02  0.12102986151E+03  0.12219550579E+03  0.47000000000E+01 0. -1.
        -11    1    4    4    0    0  0.18201209296E+02 -0.13196211302E+02  0.23499556917E+01  0.22604121402E+02  0.00000000000E+00 0.  1.
         12    1    4    4    0    0 -0.86479976003E+02 -0.37390227819E+02  0.15813869655E+02  0.95534778271E+02  0.00000000000E+00 0. -1.
         -5    1    5    5    0  502  0.58230384771E+02  0.39719058564E+02 -0.27470527730E+02  0.75796445942E+02  0.47000000000E+01 0.  1.
         13    1    6    6    0    0 -0.54823805981E+01  0.50252380288E+02  0.83812654854E+02  0.97877062355E+02  0.00000000000E+00 0. -1.
        -14    1    6    6    0    0  0.21903984830E+02 -0.24525447351E+02  0.22477217259E+02  0.39830985613E+02  0.00000000000E+00 0.  1.
</event>
<event>
12    1  0.9966151E-001  0.2234039E+03  0.7818608E-02  0.1131514E+00
         21   -1    0    0  503  502  0.00000000000E+00  0.00000000000E+00  0.11514369971E+03  0.11514369971E+03  0.00000000000E+00 0.  1.
         21   -1    0    0  501  503 -0.00000000000E+00 -0.00000000000E+00 -0.54364601324E+03  0.54364601324E+03  0.00000000000E+00 0.  1.
          6    2    1    2  501    0  0.17656487803E+02  0.14068330467E+03 -0.65232398575E+02  0.23273278808E+03  0.17264339272E+03 0.  0.
         24    2    3    3    0    0  0.40569555401E+02  0.33819047114E+02 -0.76348458641E+02  0.12277536450E+03  0.80343551196E+02 0.  0.
         -6    2    1    2    0  502 -0.17656487803E+02 -0.14068330467E+03 -0.36326991495E+03  0.42605692486E+03  0.17162729487E+03 0.  0.
        -24    2    5    5    0    0 -0.55126174544E+01 -0.15739816619E+03 -0.22516626068E+03  0.28633731455E+03  0.80527269201E+02 0.  0.
          5    1    3    3  501    0 -0.22913067598E+02  0.10686425755E+03  0.11116060066E+02  0.10995742358E+03  0.47000000000E+01 0. -1.
        -13    1    4    4    0    0  0.74130146029E+00 -0.24982338833E+02 -0.17063666246E+02  0.30262773950E+02  0.00000000000E+00 0.  1.
         14    1    4    4    0    0  0.39828253941E+02  0.58801385947E+02 -0.59284792395E+02  0.92512590552E+02  0.00000000000E+00 0. -1.
         -5    1    5    5    0  502 -0.12143870349E+02  0.16714861525E+02 -0.13810365427E+03  0.13971961031E+03  0.47000000000E+01 0.  1.
         11    1    6    6    0    0 -0.17312342695E+02 -0.10066828258E+03 -0.19700661110E+03  0.22191310268E+03  0.00000000000E+00 0. -1.
        -12    1    6    6    0    0  0.11799725241E+02 -0.56729883611E+02 -0.28159649585E+02  0.64424211870E+02  0.00000000000E+00 0.  1.
</event>
<event>
12    1  0.9966151E-001  0.3099843E+03  0.7818608E-02  0.1080393E+00
         21   -1    0    0  501  502  0.00000000000E+00  0.00000000000E+00  0.10631572918E+04  0.10631572918E+04  0.00000000000E+00 0.  1.
         21   -1    0    0  502  503 -0.00000000000E+00 -0.00000000000E+00 -0.16490175483E+03  0.16490175483E+03  0.00000000000E+00 0. -1.
         -6    2    1    2    0  503 -0.22448168231E+03  0.12548731761E+03  0.86203694140E+03  0.91596606062E+03  0.17247331180E+03 0.  0.
        -24    2    3    3    0    0 -0.72338727438E+02 -0.24349662164E+01  0.38522152223E+03  0.39935535285E+03  0.76486966951E+02 0.  0.
          6    2    1    2  501    0  0.22448168231E+03 -0.12548731761E+03  0.36218595532E+02  0.31209298599E+03  0.17306401321E+03 0.  0.
         24    2    5    5    0    0  0.14336168932E+03 -0.42690044956E+01  0.15398917288E+02  0.16468239716E+03  0.79450405384E+02 0.  0.
          5    1    5    5  501    0  0.81119992989E+02 -0.12121831311E+03  0.20819678244E+02  0.14741058883E+03  0.47000000000E+01 0. -1.
        -11    1    6    6    0    0  0.84646891033E+02 -0.39737197040E+02  0.21062726650E+02  0.95852905246E+02  0.00000000000E+00 0.  1.
         12    1    6    6    0    0  0.58714798290E+02  0.35468192545E+02 -0.56638093626E+01  0.68829491914E+02  0.00000000000E+00 0. -1.
         -5    1    3    3    0  503 -0.15214295487E+03  0.12792228383E+03  0.47681541918E+03  0.51661070777E+03  0.47000000000E+01 0.  1.
         13    1    4    4    0    0 -0.88138293753E+02  0.22688731399E+01  0.30665636558E+03  0.31907935245E+03  0.00000000000E+00 0. -1.
        -14    1    4    4    0    0  0.15799566315E+02 -0.47038393564E+01  0.78565156647E+02  0.80276000395E+02  0.00000000000E+00 0.  1.
</event>
<event>
12    1  0.9966151E-001  0.1902914E+03  0.7818608E-02  0.1158234E+00
         21   -1    0    0  501  502  0.00000000000E+00  0.00000000000E+00  0.18965179213E+04  0.18965179213E+04  0.00000000000E+00 0.  1.
         21   -1    0    0  502  503 -0.00000000000E+00 -0.00000000000E+00 -0.19271169809E+02  0.19271169809E+02  0.00000000000E+00 0.  1.
         -6    2    1    2    0  503  0.34957790428E+01 -0.81300719853E+02  0.10350444176E+04  0.10523914586E+04  0.17201397631E+03 0.  0.
        -24    2    3    3    0    0  0.68915026557E+02 -0.43575692495E+02  0.61844870030E+03  0.62898038485E+03  0.80556860428E+02 0.  0.
          6    2    1    2  501    0 -0.34957790428E+01  0.81300719853E+02  0.84220233386E+03  0.86339763255E+03  0.17183909108E+03 0.  0.
         24    2    5    5    0    0  0.54315488465E+02  0.14770710922E+02  0.36031672680E+03  0.37349538411E+03  0.80636915569E+02 0.  0.
          5    1    5    5  501    0 -0.57811267508E+02  0.66530008931E+02  0.48188560706E+03  0.48990224844E+03  0.47000000000E+01 0. -1.
        -13    1    6    6    0    0  0.12223729720E+02 -0.75772744087E+01  0.53511975445E+01  0.15345030821E+02  0.00000000000E+00 0.  1.
         14    1    6    6    0    0  0.42091758745E+02  0.22347985330E+02  0.35496552925E+03  0.35815035329E+03  0.00000000000E+00 0. -1.
         -5    1    3    3    0  503 -0.65419247514E+02 -0.37725027358E+02  0.41659571733E+03  0.42341107370E+03  0.47000000000E+01 0.  1.
         11    1    4    4    0    0 -0.37382188237E+01 -0.35177149634E+02  0.11714806824E+03  0.12237269315E+03  0.00000000000E+00 0. -1.
        -12    1    4    4    0    0  0.72653245381E+02 -0.83985428608E+01  0.50130063206E+03  0.50660769170E+03  0.00000000000E+00 0.  1.
</event>
<event>
12    1  0.9966151E-001  0.6231201E+03  0.7818608E-02  0.9860481E-01
         21   -1    0    0  503  502  0.00000000000E+00  0.00000000000E+00  0.69635601253E+03  0.69635601253E+03  0.00000000000E+00 0.  1.
         21   -1    0    0  501  503 -0.00000000000E+00 -0.00000000000E+00 -0.56339453623E+03  0.56339453623E+03  0.00000000000E+00 0.  1.
          6    2    1    2  501    0 -0.42325041095E+03 -0.41841794708E+03  0.14700464107E+03  0.63647219982E+03  0.17109064214E+03 0.  0.
         24    2    3    3    0    0 -0.43174705862E+03 -0.41476832980E+03  0.13218150386E+03  0.61837998810E+03  0.80520616535E+02 0.  0.
         -6    2    1    2    0  502  0.42325041095E+03  0.41841794708E+03 -0.14043164778E+02  0.62327834894E+03  0.18456489635E+03 0.  0.
        -24    2    5    5    0    0  0.13268972103E+03  0.19064800887E+03  0.42701631471E+02  0.24971882064E+03  0.81134670134E+02 0.  0.
          5    1    3    3  501    0  0.84966476653E+01 -0.36496172797E+01  0.14823137217E+02  0.18092211716E+02  0.47000000000E+01 0. -1.
        -13    1    4    4    0    0 -0.12259945214E+03 -0.74485302009E+02  0.17238567077E+02  0.14448478838E+03  0.00000000000E+00 0.  1.
         14    1    4    4    0    0 -0.30914760648E+03 -0.34028302779E+03  0.11494293678E+03  0.47389519972E+03  0.00000000000E+00 0. -1.
         -5    1    5    5    0  502  0.29056068992E+03  0.22776993822E+03 -0.56744796249E+02  0.37355952830E+03  0.47000000000E+01 0.  1.
         13    1    6    6    0    0  0.12026142820E+03  0.15977139958E+03  0.58479435107E+01  0.20005976527E+03  0.00000000000E+00 0. -1.
        -14    1    6    6    0    0  0.12428292831E+02  0.30876609289E+02  0.36853687960E+02  0.49659055369E+02  0.00000000000E+00 0.  1.
</event>
<event>
12    1  0.9966151E-001  0.2254907E+03  0.7818608E-02  0.1130214E+00
         21   -1    0    0  501  502  0.00000000000E+00  0.00000000000E+00  0.22176185197E+04  0.22176185197E+04  0.00000000000E+00 0. -1.
         21   -1    0    0  502  503 -0.00000000000E+00 -0.00000000000E+00 -0.25331831673E+02  0.25331831673E+02  0.00000000000E+00 0. -1.
         -6    2    1    2    0  503  0.14308436818E+03  0.28066136256E+02  0.14601164969E+04  0.14774255428E+04  0.17200350438E+03 0.  0.
        -24    2    3    3    0    0  0.24767517574E+02  0.52773155234E+02  0.53303914191E+03  0.54249034393E+03  0.82259410422E+02 0.  0.
          6    2    1    2  501    0 -0.14308436818E+03 -0.28066136256E+02  0.73217019110E+03  0.76552480857E+03  0.16939362259E+03 0.  0.
         24    2    5    5    0    0 -0.95542996143E+01  0.89101876012E+01  0.35387815914E+03  0.36262968675E+03  0.78101614032E+02 0.  0.
          5    1    5    5  501    0 -0.13353006856E+03 -0.36976323858E+02  0.37829203196E+03  0.40289512181E+03  0.47000000000E+01 0. -1.
        -13    1    6    6    0    0 -0.19140656709E+02 -0.27755523798E+02  0.24575687969E+03  0.24805881914E+03  0.00000000000E+00 0.  1.
         14    1    6    6    0    0  0.95863570944E+01  0.36665711399E+02  0.10812127945E+03  0.11457086761E+03  0.00000000000E+00 0. -1.
         -5    1    3    3    0  503  0.11831685060E+03 -0.24707018978E+02  0.92707735496E+03  0.93493519883E+03  0.47000000000E+01 0.  1.
         13    1    4    4    0    0  0.36544159917E+02 -0.80446914561E+01  0.24715345250E+03  0.24997004174E+03  0.00000000000E+00 0. -1.
        -14    1    4    4    0    0 -0.11776642342E+02  0.60817846691E+02  0.28588568941E+03  0.29252030219E+03  0.00000000000E+00 0.  1.
</event>
<event>
12    1  0.9966151E-001  0.1865049E+03  0.7818608E-02  0.1161699E+00
         21   -1    0    0  501  502  0.00000000000E+00  0.00000000000E+00  0.26515771762E+03  0.26515771762E+03  0.00000000000E+00 0. -1.
         21   -1    0    0  502  503 -0.00000000000E+00 -0.00000000000E+00 -0.15601672795E+03  0.15601672795E+03  0.00000000000E+00 0. -1.
         -6    2    1    2    0  503 -0.71223674300E+02  0.24823659400E+01  0.13880378105E+03  0.23232537663E+03  0.17213255668E+03 0.  0.
        -24    2    3    3    0    0 -0.54636320570E+02 -0.22580354254E+01  0.31812645823E+01  0.95529292318E+02  0.78265567122E+02 0.  0.
          6    2    1    2  501    0  0.71223674300E+02 -0.24823659400E+01 -0.29662791383E+02  0.18884906895E+03  0.17235172099E+03 0.  0.
         24    2    5    5    0    0  0.48290454278E+02 -0.58067927154E+02 -0.52971573128E+02  0.12418782474E+03  0.83143106242E+02 0.  0.
          5    1    5    5  501    0  0.22933220022E+02  0.55585561214E+02  0.23308781746E+02  0.64661244208E+02  0.47000000000E+01 0. -1.
        -13    1    6    6    0    0  0.28247060852E+02  0.18069042105E+02 -0.17704597926E+02  0.37918854375E+02  0.00000000000E+00 0.  1.
         14    1    6    6    0    0  0.20043393426E+02 -0.76136969259E+02 -0.35266975202E+02  0.86268970365E+02  0.00000000000E+00 0. -1.
         -5    1    3    3    0  503 -0.16587353730E+02  0.47404013654E+01  0.13562251647E+03  0.13679608431E+03  0.47000000000E+01 0.  1.
         11    1    4    4    0    0 -0.27121530589E+02  0.37095757541E+02 -0.68880654844E+01  0.46466311400E+02  0.00000000000E+00 0. -1.
        -12    1    4    4    0    0 -0.27514789981E+02 -0.39353792966E+02  0.10069330067E+02  0.49062980918E+02  0.00000000000E+00 0.  1.
</event>
<event>
12    1  0.9966151E-001  0.1820778E+03  0.7818608E-02  0.1166377E+00
         21   -1    0    0  501  502  0.00000000000E+00  0.00000000000E+00  0.10054064326E+04  0.10054064326E+04  0.00000000000E+00 0.  1.
         21   -1    0    0  502  503 -0.00000000000E+00 -0.00000000000E+00 -0.33633348266E+02  0.33633348266E+02  0.00000000000E+00 0.  1.
         -6    2    1    2    0  503  0.46566210347E+02  0.42230708112E+01  0.38935638131E+03  0.42882542966E+03  0.17351256778E+03 0.  0.
        -24    2    3    3    0    0 -0.19546817238E+02  0.41503068327E+02  0.28806413152E+03  0.30216469975E+03  0.78854163900E+02 0.  0.
          6    2    1    2  501    0 -0.46566210347E+02 -0.42230708112E+01  0.58241670298E+03  0.61021435116E+03  0.17597185056E+03 0.  0.
         24    2    5    5    0    0 -0.53646805229E+02 -0.56487749522E+02  0.26539681508E+03  0.28880272912E+03  0.83082497158E+02 0.  0.
          5    1    5    5  501    0  0.70805948823E+01  0.52264678711E+02  0.31701988789E+03  0.32141162204E+03  0.47000000000E+01 0. -1.
        -13    1    6    6    0    0 -0.59161961164E+02 -0.19100959439E+02  0.90024423461E+02  0.10940466681E+03  0.00000000000E+00 0.  1.
         14    1    6    6    0    0  0.55151559349E+01 -0.37386790084E+02  0.17537239162E+03  0.17939806231E+03  0.00000000000E+00 0. -1.
         -5    1    3    3    0  503  0.66113027586E+02 -0.37279997516E+02  0.10129224980E+03  0.12666072990E+03  0.47000000000E+01 0.  1.
         13    1    4    4    0    0  0.74199092480E+01  0.54769141860E+02  0.12987570164E+03  0.14114677406E+03  0.00000000000E+00 0. -1.
        -14    1    4    4    0    0 -0.26966726486E+02 -0.13266073532E+02  0.15818842988E+03  0.16101792569E+03  0.00000000000E+00 0.  1.
</event>
<event>
12    1  0.9966151E-001  0.1723081E+03  0.7818608E-02  0.1176244E+00
         21   -1    0    0  501  502  0.00000000000E+00  0.00000000000E+00  0.83318419982E+01  0.83318419982E+01  0.00000000000E+00 0.  1.
         21   -1    0    0  502  503 -0.00000000000E+00 -0.00000000000E+00 -0.36863781222E+04  0.36863781222E+04  0.00000000000E+00 0.  1.
         -6    2    1    2    0  503  0.14951479706E+02 -0.55420755470E+01 -0.14404541694E+04  0.14507233733E+04  0.17156873311E+03 0.  0.
        -24    2    3    3    0    0 -0.52947376743E+02 -0.24255251360E+02 -0.93353104848E+03  0.93890936583E+03  0.81724150972E+02 0.  0.
          6    2    1    2  501    0 -0.14951479706E+02  0.55420755470E+01 -0.22375921108E+04  0.22439865909E+04  0.16853220678E+03 0.  0.
         24    2    5    5    0    0 -0.44716355286E+02  0.12427329910E+02 -0.21307806036E+04  0.21327924247E+04  0.80147083989E+02 0.  0.
          5    1    5    5  501    0  0.29764875581E+02 -0.68852543635E+01 -0.10681150714E+03  0.11119416623E+03  0.47000000000E+01 0. -1.
        -11    1    6    6    0    0  0.38919637358E+01  0.36149712846E+02 -0.64105476624E+03  0.64208501185E+03  0.00000000000E+00 0.  1.
         12    1    6    6    0    0 -0.48608319022E+02 -0.23722382936E+02 -0.14897258374E+04  0.14907074129E+04  0.00000000000E+00 0. -1.
         -5    1    3    3    0  503  0.67898856449E+02  0.18713175813E+02 -0.50692312096E+03  0.51181400745E+03  0.47000000000E+01 0.  1.
         11    1    4    4    0    0 -0.80568326297E+01  0.21027189911E+02 -0.52037955936E+03  0.52086652903E+03  0.00000000000E+00 0. -1.
        -12    1    4    4    0    0 -0.44890544113E+02 -0.45282441271E+02 -0.41315148912E+03  0.41804283680E+03  0.00000000000E+00 0.  1.
</event>
<event>
12    1  0.9966151E-001  0.2190468E+03  0.7818608E-02  0.1137503E+00
         21   -1    0    0  501  502  0.00000000000E+00  0.00000000000E+00  0.47195865728E+03  0.47195865728E+03  0.00000000000E+00 0.  1.
         21   -1    0    0  502  503 -0.00000000000E+00 -0.00000000000E+00 -0.97207678025E+02  0.97207678025E+02  0.00000000000E+00 0.  1.
         -6    2    1    2    0  503  0.55375298314E+02 -0.94453499668E+02  0.14953175922E+03  0.26521926066E+03  0.18971985121E+03 0.  0.
        -24    2    3    3    0    0  0.26569605834E+02 -0.14034975938E+03  0.12003680172E+03  0.20334618822E+03  0.80850724096E+02 0.  0.
          6    2    1    2  501    0 -0.55375298314E+02  0.94453499668E+02  0.22521922003E+03  0.30394707465E+03  0.17225632021E+03 0.  0.
         24    2    5    5    0    0  0.33319198823E+02  0.31809301517E+02  0.80830967072E+02  0.12322334356E+03  0.80798183691E+02 0.  0.
          5    1    5    5  501    0 -0.88694497137E+02  0.62644198151E+02  0.14438825296E+03  0.18072373109E+03  0.47000000000E+01 0. -1.
        -13    1    6    6    0    0 -0.18771068877E+02 -0.14128981998E+02  0.22380181047E+02  0.32447706587E+02  0.00000000000E+00 0.  1.
         14    1    6    6    0    0  0.52090267700E+02  0.45938283515E+02  0.58450786025E+02  0.90775636975E+02  0.00000000000E+00 0. -1.
         -5    1    3    3    0  503  0.28805692479E+02  0.45896259708E+02  0.29494957505E+02  0.61873072435E+02  0.47000000000E+01 0.  1.
         13    1    4    4    0    0 -0.21927652898E+02 -0.32042562159E+02  0.57015600937E+02  0.68980624102E+02  0.00000000000E+00 0. -1.
        -14    1    4    4    0    0  0.48497258732E+02 -0.10830719722E+03  0.63021200782E+02  0.13436556412E+03  0.00000000000E+00 0.  1.
</event>
<event>
12    1  0.9966151E-001  0.2475329E+03  0.7818608E-02  0.1115512E+00
         21   -1    0    0  501  502  0.00000000000E+00  0.00000000000E+00  0.13347314925E+03  0.13347314925E+03  0.00000000000E+00 0. -1.
         21   -1    0    0  502  503 -0.00000000000E+00 -0.00000000000E+00 -0.45474092443E+03  0.45474092443E+03  0.00000000000E+00 0. -1.
         -6    2    1    2    0  503  0.22202598767E+02 -0.17100636009E+03 -0.18315003555E+03  0.30475503018E+03  0.17203360810E+03 0.  0.
        -24    2    3    3    0    0  0.32309006673E+02 -0.23700334933E+02 -0.31207641127E+02  0.92835739530E+02  0.77710873636E+02 0.  0.
          6    2    1    2  501    0 -0.22202598767E+02  0.17100636009E+03 -0.13811773963E+03  0.28345904350E+03  0.17758487762E+03 0.  0.
         24    2    5    5    0    0 -0.58719104085E+01  0.35837117739E+01 -0.33334213431E+02  0.85220016283E+02  0.78127837986E+02 0.  0.
          5    1    5    5  501    0 -0.16330688358E+02  0.16742264831E+03 -0.10478352620E+03  0.19823902722E+03  0.47000000000E+01 0. -1.
        -13    1    6    6    0    0 -0.40336057524E+02  0.73871924824E+01 -0.29113256142E+02  0.50290653530E+02  0.00000000000E+00 0.  1.
         14    1    6    6    0    0  0.34464147115E+02 -0.38034807085E+01 -0.42209572897E+01  0.34929362753E+02  0.00000000000E+00 0. -1.
         -5    1    3    3    0  503 -0.10106407906E+02 -0.14730602515E+03 -0.15194239443E+03  0.21191929065E+03  0.47000000000E+01 0.  1.
         13    1    4    4    0    0  0.19789986380E+02 -0.35678593022E+02  0.15013166896E+02  0.43474138763E+02  0.00000000000E+00 0. -1.
        -14    1    4    4    0    0  0.12519020293E+02  0.11978258089E+02 -0.46220808023E+02  0.49361600767E+02  0.00000000000E+00 0.  1.
</event>
<event>
12    1  0.9966151E-001  0.2375842E+03  0.7818608E-02  0.1121778E+00
         21   -1    0    0  503  502  0.00000000000E+00  0.00000000000E+00  0.36165799210E+03  0.36165799210E+03  0.00000000000E+00 0. -1.
         21   -1    0    0  501  503 -0.00000000000E+00 -0.00000000000E+00 -0.17223523105E+03  0.17223523105E+03  0.00000000000E+00 0. -1.
          6    2    1    2  501    0  0.78422050652E+02  0.13984202642E+03  0.18035607467E+03  0.29828602485E+03  0.17532948573E+03 0.  0.
         24    2    3    3    0    0 -0.17416869757E+02  0.33019719788E+02  0.10661829830E+03  0.13686900739E+03  0.77278809551E+02 0.  0.
         -6    2    1    2    0  502 -0.78422050652E+02 -0.13984202642E+03  0.90666863790E+01  0.23560719830E+03  0.17240283266E+03 0.  0.
        -24    2    5    5    0    0  0.14433251859E+01 -0.11411071813E+02 -0.13516826709E+02  0.82619965430E+02  0.80691129227E+02 0.  0.
          5    1    3    3  501    0  0.95838920410E+02  0.10682230663E+03  0.73737776375E+02  0.16141701746E+03  0.47000000000E+01 0. -1.
        -11    1    4    4    0    0  0.48522340359E+01  0.43325281116E+02  0.22133542642E+02  0.48892922482E+02  0.00000000000E+00 0.  1.
         12    1    4    4    0    0 -0.22269103793E+02 -0.10305561328E+02  0.84484755654E+02  0.87976084909E+02  0.00000000000E+00 0. -1.
         -5    1    5    5    0  502 -0.79865375838E+02 -0.12843095461E+03  0.22583513088E+02  0.15298723287E+03  0.47000000000E+01 0.  1.
         11    1    6    6    0    0  0.41275066217E+01 -0.23807011862E+02 -0.43669561171E+02  0.49908322929E+02  0.00000000000E+00 0. -1.
        -12    1    6    6    0    0 -0.26841814357E+01  0.12395940049E+02  0.30152734461E+02  0.32711642502E+02  0.00000000000E+00 0.  1.
</event>
<event>
12    1  0.9966151E-001  0.2422229E+03  0.7818608E-02  0.1118516E+00
         21   -1    0    0  503  502  0.00000000000E+00  0.00000000000E+00  0.23209275604E+03  0.23209275604E+03  0.00000000000E+00 0.  1.
         21   -1    0    0  501  503 -0.00000000000E+00 -0.00000000000E+00 -0.48610217202E+03  0.48610217202E+03  0.00000000000E+00 0.  1.
          6    2    1    2  501    0 -0.81305934463E+02 -0.14972969821E+03  0.12259092000E+03  0.27042294784E+03  0.17050043855E+03 0.  0.
         24    2    3    3    0    0  0.21601135970E+02 -0.74432921509E+02  0.66587295315E+02  0.13107458687E+03  0.82096349166E+02 0.  0.
         -6    2    1    2    0  502  0.81305934463E+02  0.14972969821E+03 -0.37660033597E+03  0.44777198022E+03  0.17216938087E+03 0.  0.
        -24    2    5    5    0    0  0.85668314767E+02  0.12032585874E+03 -0.16782400608E+03  0.23683772018E+03  0.78165441504E+02 0.  0.
          5    1    3    3  501    0 -0.10290707043E+03 -0.75296776702E+02  0.56003624687E+02  0.13934836097E+03  0.47000000000E+01 0. -1.
        -13    1    4    4    0    0  0.29823965629E+02 -0.74667282516E+02  0.18783416569E+02  0.82568085494E+02  0.00000000000E+00 0.  1.
         14    1    4    4    0    0 -0.82228296588E+01  0.23436100678E+00  0.47803878746E+02  0.48506501377E+02  0.00000000000E+00 0. -1.
         -5    1    5    5    0  502 -0.43623803042E+01  0.29403839474E+02 -0.20877632989E+03  0.21093426004E+03  0.47000000000E+01 0.  1.
         11    1    6    6    0    0  0.47843990391E+02  0.13680467751E+02 -0.77286477690E+02  0.91920630155E+02  0.00000000000E+00 0. -1.
        -12    1    6    6    0    0  0.37824324376E+02  0.10664539099E+03 -0.90537528394E+02  0.14491709002E+03  0.00000000000E+00 0.  1.
</event>
<event>
12    1  0.9966151E-001  0.2626635E+03  0.7818608E-02  0.1105586E+00
         21   -1    0    0  503  502  0.00000000000E+00  0.00000000000E+00  0.15547873271E+04  0.15547873271E+04  0.00000000000E+00 0. -1.
         21   -1    0    0  501  503 -0.00000000000E+00 -0.00000000000E+00 -0.57893441236E+02  0.57893441236E+02  0.00000000000E+00 0.  1.
          6    2    1    2  501    0 -0.12982688334E+01 -0.19750420351E+03  0.35800825402E+03  0.44389824495E+03  0.17281824563E+03 0.  0.
         24    2    3    3    0    0  0.27402868515E+02 -0.67085260877E+02  0.75976533939E+02  0.13181358174E+03  0.79693394909E+02 0.  0.
         -6    2    1    2    0  502  0.12982688334E+01  0.19750420351E+03  0.11388856319E+04  0.11687825234E+04  0.17315458019E+03 0.  0.
        -24    2    5    5    0    0  0.65370367114E+02  0.11127075497E+03  0.56511151245E+03  0.58501864002E+03  0.79002037101E+02 0.  0.
          5    1    3    3  501    0 -0.28701137348E+02 -0.13041894263E+03  0.28203172008E+03  0.31208466321E+03  0.47000000000E+01 0. -1.
        -13    1    4    4    0    0  0.15551762509E+02 -0.55202584581E+02  0.92128555356E+02  0.10852121163E+03  0.00000000000E+00 0.  1.
         14    1    4    4    0    0  0.11851106006E+02 -0.11882676297E+02 -0.16152021417E+02  0.23292370111E+02  0.00000000000E+00 0. -1.
         -5    1    5    5    0  502 -0.64072098281E+02  0.86233448534E+02  0.57377411943E+03  0.58376388339E+03  0.47000000000E+01 0.  1.
         13    1    6    6    0    0  0.78561677249E+01  0.41918893397E+02  0.71513883280E+02  0.83265530063E+02  0.00000000000E+00 0. -1.
        -14    1    6    6    0    0  0.57514199389E+02  0.69351861575E+02  0.49359762917E+03  0.50175310996E+03  0.00000000000E+00 0.  1.
</event>
<event>
12    1  0.9966151E-001  0.2404077E+03  0.7818608E-02  0.1119896E+00
         21   -1    0    0  501  502  0.00000000000E+00  0.00000000000E+00  0.11653355929E+04  0.11653355929E+04  0.00000000000E+00 0.  1.
         21   -1    0    0  502  503 -0.00000000000E+00 -0.00000000000E+00 -0.32709622357E+03  0.32709622357E+03  0.00000000000E+00 0. -1.
         -6    2    1    2    0  503  0.33708524775E+02  0.16252759679E+03 -0.26847501948E+03  0.36038133614E+03  0.17390913431E+03 0.  0.
        -24    2    3    3    0    0  0.52043633050E+02  0.38206650163E+02 -0.66727378727E+02  0.12265023907E+03  0.80138943185E+02 0.  0.
          6    2    1    2  501    0 -0.33708524775E+02 -0.16252759679E+03  0.11067143889E+04  0.11320504804E+04  0.17079246842E+03 0.  0.
         24    2    5    5    0    0 -0.29958575618E+02 -0.18858881329E+03  0.89432265956E+03  0.91798136584E+03  0.80084404794E+02 0.  0.
          5    1    5    5  501    0 -0.37499491569E+01  0.26061216494E+02  0.21239172930E+03  0.21406911454E+03  0.47000000000E+01 0. -1.
        -11    1    6    6    0    0 -0.40229132656E+02 -0.64953488589E+02  0.45942642107E+03  0.46573595005E+03  0.00000000000E+00 0.  1.
         12    1    6    6    0    0  0.10270557038E+02 -0.12363532470E+03  0.43489623849E+03  0.45224541579E+03  0.00000000000E+00 0. -1.
         -5    1    3    3    0  503 -0.18335108275E+02  0.12432094663E+03 -0.20174764075E+03  0.23773109707E+03  0.47000000000E+01 0.  1.
         13    1    4    4    0    0  0.23970333045E+02  0.43161535330E+02 -0.77737896405E+02  0.92090583318E+02  0.00000000000E+00 0. -1.
        -14    1    4    4    0    0  0.28073300005E+02 -0.49548851671E+01  0.11010517679E+02  0.30559655753E+02  0.00000000000E+00 0.  1.
</event>
<event>
12    1  0.9966151E-001  0.3853973E+03  0.7818608E-02  0.1048998E+00
         21   -1    0    0  503  502  0.00000000000E+00  0.00000000000E+00  0.32486664495E+03  0.32486664495E+03  0.00000000000E+00 0. -1.
         21   -1    0    0  501  503 -0.00000000000E+00 -0.00000000000E+00 -0.49332896537E+03  0.49332896537E+03  0.00000000000E+00 0.  1.
          6    2    1    2  501    0  0.23592823293E+03 -0.25142126753E+03  0.27246161180E+02  0.38635915984E+03  0.17220993653E+03 0.  0.
         24    2    3    3    0    0  0.14694016620E+03 -0.24170339594E+03  0.57876781430E+01  0.29418611854E+03  0.80622770187E+02 0.  0.
         -6    2    1    2    0  502 -0.23592823293E+03  0.25142126753E+03 -0.19570848160E+03  0.43183645048E+03  0.17119031906E+03 0.  0.
        -24    2    5    5    0    0 -0.13347631309E+03  0.11985338327E+03 -0.33613920022E+02  0.19923541666E+03  0.79900538124E+02 0.  0.
          5    1    3    3  501    0  0.88988066729E+02 -0.97178715828E+01  0.21458483037E+02  0.92173041300E+02  0.47000000000E+01 0. -1.
        -13    1    4    4    0    0  0.59634706293E+02 -0.10675928604E+03  0.42248640294E+02  0.12937847949E+03  0.00000000000E+00 0.  1.
         14    1    4    4    0    0  0.87305459905E+02 -0.13494410991E+03 -0.36460962151E+02  0.16480763905E+03  0.00000000000E+00 0. -1.
         -5    1    5    5    0  502 -0.10245191984E+03  0.13156788425E+03 -0.16209456158E+03  0.23260103383E+03  0.47000000000E+01 0.  1.
         13    1    6    6    0    0 -0.65585278604E+02  0.23879030171E+02  0.16045210206E+02  0.71617634854E+02  0.00000000000E+00 0. -1.
        -14    1    6    6    0    0 -0.67891034485E+02  0.95974353103E+02 -0.49659130228E+02  0.12761778180E+03  0.00000000000E+00 0.  1.
</event>
<event>
12    1  0.9966151E-001  0.2092269E+03  0.7818608E-02  0.1142607E+00
         21   -1    0    0  501  502  0.00000000000E+00  0.00000000000E+00  0.59138704896E+03  0.59138704896E+03  0.00000000000E+00 0. -1.
         21   -1    0    0  502  503 -0.00000000000E+00 -0.00000000000E+00 -0.73698603869E+02  0.73698603869E+02  0.00000000000E+00 0. -1.
         -6    2    1    2    0  503  0.81188267379E+02 -0.85993298647E+02  0.23477018601E+03  0.31447245135E+03  0.17259635062E+03 0.  0.
        -24    2    3    3    0    0  0.19975657217E+02  0.19344221941E+02  0.11864364533E+03  0.14609656134E+03  0.80589483521E+02 0.  0.
          6    2    1    2  501    0 -0.81188267379E+02  0.85993298647E+02  0.28291825908E+03  0.35061320148E+03  0.17000145164E+03 0.  0.
         24    2    5    5    0    0 -0.95803431714E+02  0.86770228257E+01  0.17041901625E+03  0.21324661467E+03  0.84722425092E+02 0.  0.
          5    1    5    5  501    0  0.14615164335E+02  0.77316275821E+02  0.11249924282E+03  0.13736658681E+03  0.47000000000E+01 0. -1.
        -13    1    6    6    0    0 -0.64321991804E+02  0.46015698955E+02  0.98690510287E+02  0.12646968016E+03  0.00000000000E+00 0.  1.
         14    1    6    6    0    0 -0.31481439909E+02 -0.37338676129E+02  0.71728505967E+02  0.86776934506E+02  0.00000000000E+00 0. -1.
         -5    1    3    3    0  503  0.61212610162E+02 -0.10533752059E+03  0.11612654068E+03  0.16837589001E+03  0.47000000000E+01 0.  1.
         13    1    4    4    0    0 -0.24806601466E+01  0.21290402409E+02 -0.36500083093E+01  0.21742986689E+02  0.00000000000E+00 0. -1.
        -14    1    4    4    0    0  0.22456317363E+02 -0.19461804680E+01  0.12229365364E+03  0.12435357465E+03  0.00000000000E+00 0.  1.
</event>
<event>
12    1  0.9966151E-001  0.2266045E+03  0.7818608E-02  0.1131077E+00
         21   -1    0    0  501  502  0.00000000000E+00  0.00000000000E+00  0.61167762864E+03  0.61167762864E+03  0.00000000000E+00 0.  1.
         21   -1    0    0  502  503 -0.00000000000E+00 -0.00000000000E+00 -0.92557850257E+02  0.92557850257E+02  0.00000000000E+00 0.  1.
         -6    2    1    2    0  503 -0.66488243997E+02 -0.10802686631E+03  0.38403392783E+03  0.44042154797E+03  0.17435191930E+03 0.  0.
        -24    2    3    3    0    0 -0.78135385948E+02 -0.10405130380E+03  0.39456151880E+03  0.42355794265E+03  0.82405863281E+02 0.  0.
          6    2    1    2  501    0  0.66488243997E+02  0.10802686631E+03  0.13508585055E+03  0.26381393092E+03  0.18777410017E+03 0.  0.
         24    2    5    5    0    0  0.61521977684E+02 -0.15311005844E+02  0.44360047241E+02  0.11054894505E+03  0.78954891062E+02 0.  0.
          5    1    5    5  501    0  0.49662663129E+01  0.12333787215E+03  0.90725803312E+02  0.15326498587E+03  0.47000000000E+01 0. -1.
        -11    1    6    6    0    0 -0.13097042648E+02 -0.19798358721E+02  0.22394749284E+02  0.32634833072E+02  0.00000000000E+00 0.  1.
         12    1    6    6    0    0  0.74619020331E+02  0.44873528766E+01  0.21965297957E+02  0.77914111979E+02  0.00000000000E+00 0. -1.
         -5    1    3    3    0  503  0.11647141951E+02 -0.39755625031E+01 -0.10527590972E+02  0.16863605324E+02  0.47000000000E+01 0.  1.
         13    1    4    4    0    0 -0.72310799762E+02 -0.27688758251E+02  0.20025434144E+03  0.21470286528E+03  0.00000000000E+00 0. -1.
        -14    1    4    4    0    0 -0.58245861853E+01 -0.76362545551E+02  0.19430717736E+03  0.20885507737E+03  0.00000000000E+00 0.  1.
</event>
<event>
12    1  0.9966151E-001  0.2008580E+03  0.7818608E-02  0.1149032E+00
         21   -1    0    0  503  502  0.00000000000E+00  0.00000000000E+00  0.23972954309E+03  0.23972954309E+03  0.00000000000E+00 0.  1.
         21   -1    0    0  501  503 -0.00000000000E+00 -0.00000000000E+00 -0.16868910959E+03  0.16868910959E+03  0.00000000000E+00 0.  1.
          6    2    1    2  501    0  0.10021893532E+03 -0.25018326071E+02  0.46183426986E+02  0.20602840396E+03  0.17217735819E+03 0.  0.
         24    2    3    3    0    0  0.49398134571E+02 -0.63135035110E+02 -0.19200084064E+02  0.11474461123E+03  0.79821514778E+02 0.  0.
         -6    2    1    2    0  502 -0.10021893532E+03  0.25018326071E+02  0.24857006517E+02  0.20239024873E+03  0.17226198179E+03 0.  0.
        -24    2    5    5    0    0  0.17733261144E+02  0.12941038389E+02  0.80463514280E+01  0.82543389559E+02  0.79162670264E+02 0.  0.
          5    1    3    3  501    0  0.50820800749E+02  0.38116709039E+02  0.65383511050E+02  0.91283792724E+02  0.47000000000E+01 0. -1.
        -11    1    4    4    0    0  0.49976292156E+01 -0.57800414459E+02  0.13227683854E+02  0.59504922734E+02  0.00000000000E+00 0.  1.
         12    1    4    4    0    0  0.44400505355E+02 -0.53346206512E+01 -0.32427767918E+02  0.55239688499E+02  0.00000000000E+00 0. -1.
         -5    1    5    5    0  502 -0.11795219646E+03  0.12077287683E+02  0.16810655089E+02  0.11984685917E+03  0.47000000000E+01 0.  1.
         11    1    6    6    0    0 -0.19899674697E+02 -0.13121471059E+02 -0.18005743595E+02  0.29872677453E+02  0.00000000000E+00 0. -1.
        -12    1    6    6    0    0  0.37632935841E+02  0.26062509448E+02  0.26052095023E+02  0.52670712106E+02  0.00000000000E+00 0.  1.
</event>
<event>
12    1  0.9966151E-001  0.1999578E+03  0.7818608E-02  0.1149775E+00
         21   -1    0    0  503  502  0.00000000000E+00  0.00000000000E+00  0.78082565747E+02  0.78082565747E+02  0.00000000000E+00 0.  1.
         21   -1    0    0  501  503 -0.00000000000E+00 -0.00000000000E+00 -0.51310243212E+03  0.51310243212E+03  0.00000000000E+00 0.  1.
          6    2    1    2  501    0  0.92109076998E+02  0.36488131350E+02 -0.23088258577E+03  0.30543390664E+03  0.17368833328E+03 0.  0.
         24    2    3    3    0    0  0.39545063869E+02  0.74988900185E+02 -0.80425509083E+02  0.14140736427E+03  0.79628091339E+02 0.  0.
         -6    2    1    2    0  502 -0.92109076998E+02 -0.36488131350E+02 -0.20413728060E+03  0.28575109123E+03  0.17368417030E+03 0.  0.
        -24    2    5    5    0    0 -0.11797150426E+03  0.56392559608E+01 -0.18304415857E+03  0.23180119130E+03  0.79230999453E+02 0.  0.
          5    1    3    3  501    0  0.52564013129E+02 -0.38500768835E+02 -0.15045707669E+03  0.16402654238E+03  0.47000000000E+01 0. -1.
        -13    1    4    4    0    0 -0.10273101463E+01  0.37541455769E+02 -0.77496773245E+02  0.86117165134E+02  0.00000000000E+00 0.  1.
         14    1    4    4    0    0  0.40572374015E+02  0.37447444416E+02 -0.29287358383E+01  0.55290199133E+02  0.00000000000E+00 0. -1.
         -5    1    5    5    0  502  0.25862427262E+02 -0.42127387311E+02 -0.21093122030E+02  0.53949899930E+02  0.47000000000E+01 0.  1.
         11    1    6    6    0    0 -0.53536883131E+02 -0.11806289496E+02 -0.14488346318E+03  0.15490901921E+03  0.00000000000E+00 0. -1.
        -12    1    6    6    0    0 -0.64434621130E+02  0.17445545457E+02 -0.38160695386E+02  0.76892172091E+02  0.00000000000E+00 0.  1.
</event>
<event>
12    1  0.9966151E-001  0.2223916E+03  0.7818608E-02  0.1132214E+00
         21   -1    0    0  501  502  0.00000000000E+00  0.00000000000E+00  0.17324013723E+03  0.17324013723E+03  0.00000000000E+00 0.  1.
         21   -1    0    0  502  503 -0.00000000000E+00 -0.00000000000E+00 -0.31148871625E+03  0.31148871625E+03  0.00000000000E+00 0.  1.
         -6    2    1    2    0  503  0.14050745483E+03  0.37011992870E+01  0.17673936079E+01  0.22239862955E+03  0.17234263259E+03 0.  0.
        -24    2    3    3    0    0  0.16372548851E+03  0.30336884716E+02 -0.11288260251E+02  0.18443711055E+03  0.78506437739E+02 0.  0.
          6    2    1    2  501    0 -0.14050745483E+03 -0.37011992870E+01 -0.14001597263E+03  0.26233022393E+03  0.17162933915E+03 0.  0.
         24    2    5    5    0    0 -0.12886796946E+02  0.34857829272E+02 -0.32616901239E+02  0.91068781865E+02  0.76475636558E+02 0.  0.
          5    1    5    5  501    0 -0.12762065788E+03 -0.38559028559E+02 -0.10739907139E+03  0.17126144206E+03  0.47000000000E+01 0. -1.
        -13    1    6    6    0    0 -0.27917388512E+02  0.46085361173E+02 -0.51208045258E+00  0.53884165783E+02  0.00000000000E+00 0.  1.
         14    1    6    6    0    0  0.15030591566E+02 -0.11227531902E+02 -0.32104820786E+02  0.37184616082E+02  0.00000000000E+00 0. -1.
         -5    1    3    3    0  503 -0.23218033689E+02 -0.26635685429E+02  0.13055653859E+02  0.37961518994E+02  0.47000000000E+01 0.  1.
         11    1    4    4    0    0 -0.51884840893E+00 -0.63241577495E+01  0.12943593788E+02  0.14415297259E+02  0.00000000000E+00 0. -1.
        -12    1    4    4    0    0  0.16424433692E+03  0.36661042466E+02 -0.24231854039E+02  0.17002181330E+03  0.00000000000E+00 0.  1.
</event>
<event>
12    1  0.9966151E-001  0.1746874E+03  0.7818608E-02  0.1173212E+00
         21   -1    0    0  501  502  0.00000000000E+00  0.00000000000E+00  0.29592795629E+03  0.29592795629E+03  0.00000000000E+00 0. -1.
         21   -1    0    0  502  503 -0.00000000000E+00 -0.00000000000E+00 -0.11102833910E+03  0.11102833910E+03  0.00000000000E+00 0. -1.
         -6    2    1    2    0  503  0.22911576672E+02 -0.18611676367E+02  0.14791283051E+03  0.22839620602E+03  0.17150885299E+03 0.  0.
        -24    2    3    3    0    0  0.60596074487E+02 -0.20503260483E+02  0.32127612370E+02  0.10652739867E+03  0.78890020009E+02 0.  0.
          6    2    1    2  501    0 -0.22911576672E+02  0.18611676367E+02  0.36986786682E+02  0.17856008937E+03  0.17217534169E+03 0.  0.
         24    2    5    5    0    0  0.18402276950E+02 -0.32858938978E+02 -0.21216052066E+02  0.90436771328E+02  0.79437617507E+02 0.  0.
          5    1    5    5  501    0 -0.41313853622E+02  0.51470615346E+02  0.58202838748E+02  0.88123318046E+02  0.47000000000E+01 0. -1.
        -11    1    6    6    0    0  0.28258973915E+02 -0.76769077041E+00 -0.42239357244E+02  0.50826393304E+02  0.00000000000E+00 0.  1.
         12    1    6    6    0    0 -0.98566969655E+01 -0.32091248208E+02  0.21023305178E+02  0.39610378024E+02  0.00000000000E+00 0. -1.
         -5    1    3    3    0  503 -0.37684497815E+02  0.18915841154E+01  0.11578521814E+03  0.12186880735E+03  0.47000000000E+01 0.  1.
         11    1    4    4    0    0 -0.11694475594E+02 -0.20954197810E+02 -0.60867858109E+01  0.24756577445E+02  0.00000000000E+00 0. -1.
        -12    1    4    4    0    0  0.72290550080E+02  0.45093732767E+00  0.38214398181E+02  0.81770821225E+02  0.00000000000E+00 0.  1.
</event>
<event>
12    1  0.9966151E-001  0.1818081E+03  0.7818608E-02  0.1167820E+00
         21   -1    0    0  503  502  0.00000000000E+00  0.00000000000E+00  0.51517240905E+03  0.51517240905E+03  0.00000000000E+00 0. -1.
         21   -1    0    0  501  503 -0.00000000000E+00 -0.00000000000E+00 -0.61657345468E+02  0.61657345468E+02  0.00000000000E+00 0. -1.
          6    2    1    2  501    0 -0.26359702574E+02 -0.52432794729E+02  0.22779924207E+03  0.29145616210E+03  0.17207605254E+03 0.  0.
         24    2    3    3    0    0 -0.52520983586E+02  0.11529106158E-01  0.57308355389E+02  0.11111190196E+03  0.79392400827E+02 0.  0.
         -6    2    1    2    0  502  0.26359702574E+02  0.52432794729E+02  0.22571582151E+03  0.28537359242E+03  0.16445796814E+03 0.  0.
        -24    2    5    5    0    0  0.53100180155E+02 -0.15876900214E+02  0.16305005509E+03  0.18877982530E+03  0.77335611995E+02 0.  0.
          5    1    3    3  501    0  0.26161281012E+02 -0.52444323836E+02  0.17049088668E+03  0.18034426015E+03  0.47000000000E+01 0. -1.
        -11    1    4    4    0    0 -0.23780917879E+02  0.85755022357E+01  0.73008856443E+02  0.77261661986E+02  0.00000000000E+00 0.  1.
         12    1    4    4    0    0 -0.28740065707E+02 -0.85639731295E+01 -0.15700501054E+02  0.33850239969E+02  0.00000000000E+00 0. -1.
         -5    1    5    5    0  502 -0.26740477582E+02  0.68309694944E+02  0.62665766428E+02  0.96593767121E+02  0.47000000000E+01 0.  1.
         13    1    6    6    0    0  0.15932125301E+02 -0.36664319158E+02  0.12647749253E+03  0.13264486809E+03  0.00000000000E+00 0. -1.
        -14    1    6    6    0    0  0.37168054855E+02  0.20787418944E+02  0.36572562561E+02  0.56134957204E+02  0.00000000000E+00 0.  1.
</event>
<event>
12    1  0.9966151E-001  0.1820960E+03  0.7818608E-02  0.1170201E+00
         21   -1    0    0  501  502  0.00000000000E+00  0.00000000000E+00  0.11057041683E+03  0.11057041683E+03  0.00000000000E+00 0. -1.
         21   -1    0    0  502  503 -0.00000000000E+00 -0.00000000000E+00 -0.28597984190E+03  0.28597984190E+03  0.00000000000E+00 0. -1.
         -6    2    1    2    0  503  0.25818711453E+02 -0.53666473574E+02 -0.13615788541E+03  0.22737177712E+03  0.17208212872E+03 0.  0.
        -24    2    3    3    0    0  0.23555183793E+02  0.14046897811E+02 -0.13531300700E+03  0.15945250120E+03  0.79770472322E+02 0.  0.
          6    2    1    2  501    0 -0.25818711453E+02  0.53666473574E+02 -0.39251539663E+02  0.16917848161E+03  0.15340788450E+03 0.  0.
         24    2    5    5    0    0 -0.32257683918E+02  0.90727580942E+02 -0.30715389359E+02  0.13032051064E+03  0.82267540594E+02 0.  0.
          5    1    5    5  501    0  0.64389724652E+01 -0.37061107367E+02 -0.85361503043E+01  0.38857970968E+02  0.47000000000E+01 0. -1.
        -13    1    6    6    0    0 -0.32960297278E+02  0.36022225614E+02 -0.52261374890E+02  0.71520858777E+02  0.00000000000E+00 0.  1.
         14    1    6    6    0    0  0.70261335930E+00  0.54705355327E+02  0.21545985531E+02  0.58799651866E+02  0.00000000000E+00 0. -1.
         -5    1    3    3    0  503  0.22635276601E+01 -0.67713371385E+02 -0.84487840691E+00  0.67919275919E+02  0.47000000000E+01 0.  1.
         13    1    4    4    0    0 -0.17249547563E+02  0.21365758893E+02 -0.13148049014E+02  0.30445258039E+02  0.00000000000E+00 0. -1.
        -14    1    4    4    0    0  0.40804731356E+02 -0.73188610819E+01 -0.12216495799E+03  0.12900724316E+03  0.00000000000E+00 0.  1.
</event>
<event>
12    1  0.9966151E-001  0.1809370E+03  0.7818608E-02  0.1167169E+00
         21   -1    0    0  501  502  0.00000000000E+00  0.00000000000E+00  0.39500483945E+03  0.39500483945E+03  0.00000000000E+00 0. -1.
         21   -1    0    0  502  503 -0.00000000000E+00 -0.00000000000E+00 -0.84693968006E+02  0.84693968006E+02  0.00000000000E+00 0. -1.
         -6    2    1    2    0  503 -0.29948793674E+02  0.41977501682E+02  0.19536757283E+03  0.26628306475E+03  0.17343339117E+03 0.  0.
        -24    2    3    3    0    0 -0.51694886102E+02  0.84962593910E+02  0.16915696532E+03  0.21124038462E+03  0.78213921822E+02 0.  0.
          6    2    1    2  501    0  0.29948793674E+02 -0.41977501682E+02  0.11494329862E+03  0.21341574271E+03  0.17226513416E+03 0.  0.
         24    2    5    5    0    0  0.70158308702E+02  0.17709906948E+02  0.61072475100E+02  0.12339603667E+03  0.79125884309E+02 0.  0.
          5    1    5    5  501    0 -0.40209515029E+02 -0.59687408630E+02  0.53870823519E+02  0.90019706034E+02  0.47000000000E+01 0. -1.
        -13    1    6    6    0    0 -0.40491100278E+01  0.23921551924E+02  0.38636731741E+02  0.45622724361E+02  0.00000000000E+00 0.  1.
         14    1    6    6    0    0  0.74207418730E+02 -0.62116449762E+01  0.22435743359E+02  0.77773312312E+02  0.00000000000E+00 0. -1.
         -5    1    3    3    0  503  0.21746092429E+02 -0.42985092229E+02  0.26210607509E+02  0.55042680129E+02  0.47000000000E+01 0.  1.
         11    1    4    4    0    0 -0.57399146576E+02  0.26913365710E+02  0.11663020272E+03  0.13274635764E+03  0.00000000000E+00 0. -1.
        -12    1    4    4    0    0  0.57042604737E+01  0.58049228201E+02  0.52526762602E+02  0.78494026981E+02  0.00000000000E+00 0.  1.
</event>
<event>
12    1  0.9966151E-001  0.2080824E+03  0.7818608E-02  0.1144278E+00
         21   -1    0    0  503  502  0.00000000000E+00  0.00000000000E+00  0.25925140884E+03  0.25925140884E+03  0.00000000000E+00 0.  1.
         21   -1    0    0  501  503 -0.00000000000E+00 -0.00000000000E+00 -0.25809726059E+03  0.25809726059E+03  0.00000000000E+00 0.  1.
          6    2    1    2  501    0  0.42690354494E+02  0.97350768161E+02  0.15809650999E+03  0.25671640845E+03  0.17207315151E+03 0.  0.
         24    2    3    3    0    0 -0.25254874269E+02  0.33490948121E+02  0.22782272567E+02  0.92318526545E+02  0.79020415842E+02 0.  0.
         -6    2    1    2    0  502 -0.42690354494E+02 -0.97350768161E+02 -0.15694236174E+03  0.26063226098E+03  0.17888161484E+03 0.  0.
        -24    2    5    5    0    0 -0.39137741415E+02 -0.13134764232E+03 -0.84176524678E+02  0.18010049361E+03  0.81034156671E+02 0.  0.
          5    1    3    3  501    0  0.67945228763E+02  0.63859820041E+02  0.13531423742E+03  0.16439788191E+03  0.47000000000E+01 0. -1.
        -13    1    4    4    0    0  0.18072888982E+01 -0.80174962059E+01  0.39251094141E+02  0.40102305792E+02  0.00000000000E+00 0.  1.
         14    1    4    4    0    0 -0.27062163167E+02  0.41508444327E+02 -0.16468821574E+02  0.52216220753E+02  0.00000000000E+00 0. -1.
         -5    1    5    5    0  502 -0.35526130792E+01  0.33996874157E+02 -0.72765837062E+02  0.80531767369E+02  0.47000000000E+01 0.  1.
         13    1    6    6    0    0 -0.54648041696E+02 -0.11443709220E+03 -0.44744641077E+02  0.13447802585E+03  0.00000000000E+00 0. -1.
        -14    1    6    6    0    0  0.15510300282E+02 -0.16910550118E+02 -0.39431883601E+02  0.45622467759E+02  0.00000000000E+00 0.  1.
</event>
<event>
12    1  0.9966151E-001  0.2424652E+03  0.7818608E-02  0.1118215E+00
         21   -1    0    0  503  502  0.00000000000E+00  0.00000000000E+00  0.98404722905E+02  0.98404722905E+02  0.00000000000E+00 0.  1.
         21   -1    0    0  501  503 -0.00000000000E+00 -0.00000000000E+00 -0.72944448618E+03  0.72944448618E+03  0.00000000000E+00 0.  1.
          6    2    1    2  501    0  0.15904701593E+03 -0.63475734842E+02 -0.49232820074E+03  0.54879545360E+03  0.17165159617E+03 0.  0.
         24    2    3    3    0    0  0.12350728959E+03  0.59708684880E+01 -0.26291968028E+03  0.30643980147E+03  0.97410942896E+02 0.  0.
         -6    2    1    2    0  502 -0.15904701593E+03  0.63475734842E+02 -0.13871156254E+03  0.27905375548E+03  0.17118696994E+03 0.  0.
        -24    2    5    5    0    0 -0.15096129466E+03 -0.70949712596E+01 -0.10638837695E+03  0.20087139318E+03  0.78684043785E+02 0.  0.
          5    1    3    3  501    0  0.35539726337E+02 -0.69446603330E+02 -0.22940852045E+03  0.24235565213E+03  0.47000000000E+01 0. -1.
        -11    1    4    4    0    0  0.56788061530E+02 -0.37266314154E+01 -0.30765205133E+02  0.64693659356E+02  0.00000000000E+00 0.  1.
         12    1    4    4    0    0  0.66719228060E+02  0.96974999034E+01 -0.23215447515E+03  0.24174614212E+03  0.00000000000E+00 0. -1.
         -5    1    5    5    0  502 -0.80857212680E+01  0.70570706102E+02 -0.32323185584E+02  0.78182362297E+02  0.47000000000E+01 0.  1.
         11    1    6    6    0    0 -0.12005291931E+03 -0.38243775128E+01 -0.11734076373E+03  0.16791719427E+03  0.00000000000E+00 0. -1.
        -12    1    6    6    0    0 -0.30908375347E+02 -0.32705937468E+01  0.10952386775E+02  0.32954198915E+02  0.00000000000E+00 0.  1.
</event>
<event>
12    1  0.9966151E-001  0.3003496E+03  0.7818608E-02  0.1085202E+00
         21   -1    0    0  503  502  0.00000000000E+00  0.00000000000E+00  0.20629981898E+04  0.20629981898E+04  0.00000000000E+00 0.  1.
         21   -1    0    0  501  503 -0.00000000000E+00 -0.00000000000E+00 -0.49551131122E+02  0.49551131122E+02  0.00000000000E+00 0.  1.
          6    2    1    2  501    0  0.18854171210E+03  0.15603684011E+03  0.13721128754E+04  0.14043689766E+04  0.17222951778E+03 0.  0.
         24    2    3    3    0    0  0.13737507153E+03  0.17289015203E+03  0.95349400789E+03  0.98227194332E+03  0.83333262292E+02 0.  0.
         -6    2    1    2    0  502 -0.18854171210E+03 -0.15603684011E+03  0.64133418323E+03  0.70818034432E+03  0.17411028927E+03 0.  0.
        -24    2    5    5    0    0 -0.18895081835E+02 -0.77246711510E+02  0.26273175017E+03  0.28586558511E+03  0.79793995070E+02 0.  0.
          5    1    3    3  501    0  0.51166640565E+02 -0.16853311917E+02  0.41861886754E+03  0.42209703326E+03  0.47000000000E+01 0. -1.
        -11    1    4    4    0    0  0.37988053827E+02  0.10546664385E+03  0.37283130917E+03  0.38931926525E+03  0.00000000000E+00 0.  1.
         12    1    4    4    0    0  0.99387017706E+02  0.67423508178E+02  0.58066269873E+03  0.59295267807E+03  0.00000000000E+00 0. -1.
         -5    1    5    5    0  502 -0.16964663026E+03 -0.78790128600E+02  0.37860243306E+03  0.42231475921E+03  0.47000000000E+01 0.  1.
         13    1    6    6    0    0 -0.46104106697E+02 -0.71034658223E+02  0.20160161658E+03  0.21866577952E+03  0.00000000000E+00 0. -1.
        -14    1    6    6    0    0  0.27209024862E+02 -0.62120532874E+01  0.61130133586E+02  0.67199805596E+02  0.00000000000E+00 0.  1.
</event>
<event>
12    1  0.9966151E-001  0.2148607E+03  0.7818608E-02  0.1138220E+00
         21   -1    0    0  503  502  0.00000000000E+00  0.00000000000E+00  0.74221107787E+03  0.74221107787E+03  0.00000000000E+00 0.  1.
         21   -1    0    0  501  503 -0.00000000000E+00 -0.00000000000E+00 -0.94796517897E+02  0.94796517897E+02  0.00000000000E+00 0.  1.
          6    2    1    2  501    0 -0.94067920531E+02  0.87330127456E+02  0.76938524434E+02  0.22822064054E+03  0.17230728189E+03 0.  0.
         24    2    3    3    0    0 -0.73042165521E+02  0.96202238283E+01 -0.14567248454E+02  0.10625216934E+03  0.75163901652E+02 0.  0.
         -6    2    1    2    0  502  0.94067920531E+02 -0.87330127456E+02  0.57047603554E+03  0.60878695522E+03  0.16942055629E+03 0.  0.
        -24    2    5    5    0    0  0.54425835072E+02 -0.66230479205E+02  0.54359972706E+03  0.55624063230E+03  0.80958815802E+02 0.  0.
          5    1    3    3  501    0 -0.21025755010E+02  0.77709903627E+02  0.91505772887E+02  0.12196847120E+03  0.47000000000E+01 0. -1.
        -13    1    4    4    0    0 -0.63312504562E+02  0.38768217052E+02 -0.13817322751E+02  0.75514013900E+02  0.00000000000E+00 0.  1.
         14    1    4    4    0    0 -0.97296609589E+01 -0.29147993223E+02 -0.74992570243E+00  0.30738155440E+02  0.00000000000E+00 0. -1.
         -5    1    5    5    0  502  0.39642085459E+02 -0.21099648251E+02  0.26876308471E+02  0.52546322924E+02  0.47000000000E+01 0.  1.
         13    1    6    6    0    0  0.67654936187E+02 -0.38840955743E+02  0.47266454868E+03  0.47905906297E+03  0.00000000000E+00 0. -1.
        -14    1    6    6    0    0 -0.13229101115E+02 -0.27389523462E+02  0.70935178388E+02  0.77181569333E+02  0.00000000000E+00 0.  1.
</event>
<event>
12    1  0.9966151E-001  0.1791456E+03  0.7818608E-02  0.1169031E+00
         21   -1    0    0  503  502  0.00000000000E+00  0.00000000000E+00  0.52681499375E+02  0.52681499375E+02  0.00000000000E+00 0.  1.
         21   -1    0    0  501  503 -0.00000000000E+00 -0.00000000000E+00 -0.73994607103E+03  0.73994607103E+03  0.00000000000E+00 0.  1.
          6    2    1    2  501    0 -0.68222414649E+01 -0.48215763163E+02 -0.51243036208E+03  0.54230750431E+03  0.17070808549E+03 0.  0.
         24    2    3    3    0    0  0.11174343780E+01  0.14688020418E+02 -0.12555184297E+03  0.15023990429E+03  0.81189758975E+02 0.  0.
         -6    2    1    2    0  502  0.68222414649E+01  0.48215763163E+02 -0.17483420958E+03  0.25032006610E+03  0.17240020840E+03 0.  0.
        -24    2    5    5    0    0 -0.17020599209E+02 -0.38224022652E+02 -0.11007756926E+03  0.13961401347E+03  0.74994831812E+02 0.  0.
          5    1    3    3  501    0 -0.79396758430E+01 -0.62903783581E+02 -0.38687851911E+03  0.39206760002E+03  0.47000000000E+01 0. -1.
        -13    1    4    4    0    0 -0.33430949857E+02 -0.14383106883E+02 -0.44775351046E+02  0.57700383302E+02  0.00000000000E+00 0.  1.
         14    1    4    4    0    0  0.34548384235E+02  0.29071127301E+02 -0.80776491928E+02  0.92539520984E+02  0.00000000000E+00 0. -1.
         -5    1    5    5    0  502  0.23842840674E+02  0.86439785815E+02 -0.64756640319E+02  0.11070605263E+03  0.47000000000E+01 0.  1.
         13    1    6    6    0    0 -0.45948862662E+02 -0.14333983275E+02 -0.56786402252E+02  0.74440960077E+02  0.00000000000E+00 0. -1.
        -14    1    6    6    0    0  0.28928263453E+02 -0.23890039378E+02 -0.53291167007E+02  0.65173053395E+02  0.00000000000E+00 0.  1.
</event>
<event>
12    1  0.9966151E-001  0.1962186E+03  0.7818608E-02  0.1153558E+00
         21   -1    0    0  503  502  0.00000000000E+00  0.00000000000E+00  0.16789611316E+04  0.16789611316E+04  0.00000000000E+00 0.  1.
         21   -1    0    0  501  503 -0.00000000000E+00 -0.00000000000E+00 -0.23499472875E+02  0.23499472875E+02  0.00000000000E+00 0.  1.
          6    2    1    2  501    0  0.73483465707E+02  0.60502911065E+02  0.65723220146E+03  0.68512891047E+03  0.16848452557E+03 0.  0.
         24    2    3    3    0    0  0.46270247013E+02  0.31244299050E+02  0.62760974391E+03  0.63516686848E+03  0.80161201269E+02 0.  0.
         -6    2    1    2    0  502 -0.73483465707E+02 -0.60502911065E+02  0.99822945732E+03  0.10173316941E+04  0.17158468545E+03 0.  0.
        -24    2    5    5    0    0 -0.47334451786E+02  0.32694102880E+02  0.41905816205E+03  0.43010862434E+03  0.77937352159E+02 0.  0.
          5    1    3    3  501    0  0.27213218695E+02  0.29258612015E+02  0.29622457551E+02  0.49962041993E+02  0.47000000000E+01 0. -1.
        -13    1    4    4    0    0 -0.78388250010E+01  0.10371475603E+02  0.15133157102E+02  0.19950617220E+02  0.00000000000E+00 0.  1.
         14    1    4    4    0    0  0.54109072014E+02  0.20872823446E+02  0.61247658680E+03  0.61521625126E+03  0.00000000000E+00 0. -1.
         -5    1    5    5    0  502 -0.26149013921E+02 -0.93197013945E+02  0.57917129526E+03  0.58722306971E+03  0.47000000000E+01 0.  1.
         13    1    6    6    0    0 -0.35734296901E+02 -0.18870234667E+02  0.24126420677E+03  0.24462510746E+03  0.00000000000E+00 0. -1.
        -14    1    6    6    0    0 -0.11600154886E+02  0.51564337547E+02  0.17779395528E+03  0.18548351688E+03  0.00000000000E+00 0.  1.
</event>
<event>
12    1  0.9966151E-001  0.2125323E+03  0.7818608E-02  0.1140283E+00
         21   -1    0    0  501  502  0.00000000000E+00  0.00000000000E+00  0.27445344797E+02  0.27445344797E+02  0.00000000000E+00 0.  1.
         21   -1    0    0  502  503 -0.00000000000E+00 -0.00000000000E+00 -0.16313005078E+04  0.16313005078E+04  0.00000000000E+00 0.  1.
         -6    2    1    2    0  503 -0.67077001444E+02  0.10516982408E+03 -0.88323017262E+03  0.90844125973E+03  0.17207547336E+03 0.  0.
        -24    2    3    3    0    0 -0.11149386394E+03  0.65957180161E+02 -0.66157645188E+03  0.67895716217E+03  0.80735339627E+02 0.  0.
          6    2    1    2  501    0  0.67077001444E+02 -0.10516982408E+03 -0.72062499039E+03  0.75030459288E+03  0.16762037255E+03 0.  0.
         24    2    5    5    0    0  0.50365088886E+02  0.28747082195E+01 -0.24905228427E+03  0.26620148801E+03  0.79317625996E+02 0.  0.
          5    1    5    5  501    0  0.16711912558E+02 -0.10804453229E+03 -0.47157270612E+03  0.48410310487E+03  0.47000000000E+01 0. -1.
        -11    1    6    6    0    0 -0.12490775441E+02  0.22766391321E+02 -0.98126988350E+02  0.10150484662E+03  0.00000000000E+00 0.  1.
         12    1    6    6    0    0  0.62855864327E+02 -0.19891683101E+02 -0.15092529592E+03  0.16469664139E+03  0.00000000000E+00 0. -1.
         -5    1    3    3    0  503  0.44416862492E+02  0.39212643914E+02 -0.22165372074E+03  0.22948409756E+03  0.47000000000E+01 0.  1.
         13    1    4    4    0    0 -0.22998533418E+02  0.26680871858E+01 -0.29077948584E+02  0.37169588677E+02  0.00000000000E+00 0. -1.
        -14    1    4    4    0    0 -0.88495330519E+02  0.63289092976E+02 -0.63249850330E+03  0.64178757349E+03  0.00000000000E+00 0.  1.
</event>
<event>
12    1  0.9966151E-001  0.2313563E+03  0.7818608E-02  0.1125818E+00
         21   -1    0    0  501  502  0.00000000000E+00  0.00000000000E+00  0.98605281466E+03  0.98605281466E+03  0.00000000000E+00 0.  1.
         21   -1    0    0  502  503 -0.00000000000E+00 -0.00000000000E+00 -0.57418736665E+02  0.57418736665E+02  0.00000000000E+00 0.  1.
         -6    2    1    2    0  503  0.15147574257E+03 -0.22342531613E+02  0.33838129448E+03  0.40949673498E+03  0.17245749100E+03 0.  0.
        -24    2    3    3    0    0  0.81951006900E+02  0.41446344343E+02  0.25741066564E+03  0.28507389825E+03  0.81074716695E+02 0.  0.
          6    2    1    2  501    0 -0.15147574257E+03  0.22342531613E+02  0.59025278352E+03  0.63397481635E+03  0.17344056620E+03 0.  0.
         24    2    5    5    0    0 -0.11130344610E+03  0.23331384612E+02  0.57359469014E+03  0.59022126439E+03  0.80109061631E+02 0.  0.
          5    1    5    5  501    0 -0.40172296471E+02 -0.98885299932E+00  0.16658093377E+02  0.43753551958E+02  0.47000000000E+01 0. -1.
        -13    1    6    6    0    0  0.24744273470E+01  0.21107481700E+02  0.48749628329E+02  0.53180587028E+02  0.00000000000E+00 0.  1.
         14    1    6    6    0    0 -0.11377787345E+03  0.22239029121E+01  0.52484506181E+03  0.53704067736E+03  0.00000000000E+00 0. -1.
         -5    1    3    3    0  503  0.69524735670E+02 -0.63788875956E+02  0.80970628841E+02  0.12442283673E+03  0.47000000000E+01 0.  1.
         13    1    4    4    0    0  0.86165579346E+02  0.55069394788E+02  0.18603757191E+03  0.21229018693E+03  0.00000000000E+00 0. -1.
        -14    1    4    4    0    0 -0.42145724461E+01 -0.13623050445E+02  0.71373093734E+02  0.72783711320E+02  0.00000000000E+00 0.  1.
</event>
<event>
12    1  0.9966151E-001  0.2620496E+03  0.7818608E-02  0.1106021E+00
         21   -1    0    0  501  502  0.00000000000E+00  0.00000000000E+00  0.57928367306E+03  0.57928367306E+03  0.00000000000E+00 0. -1.
         21   -1    0    0  502  503 -0.00000000000E+00 -0.00000000000E+00 -0.15467565198E+03  0.15467565198E+03  0.00000000000E+00 0. -1.
         -6    2    1    2    0  503 -0.22907106527E+02 -0.19620926666E+03  0.33956876745E+02  0.26355702921E+03  0.17113277393E+03 0.  0.
        -24    2    3    3    0    0 -0.52087809459E-01 -0.18519023515E+03  0.75883796035E+02  0.21432566220E+03  0.76692327325E+02 0.  0.
          6    2    1    2  501    0  0.22907106527E+02  0.19620926666E+03  0.39065114434E+03  0.47040229583E+03  0.17218359821E+03 0.  0.
         24    2    5    5    0    0 -0.44225550067E+02  0.17084689146E+03  0.29080212418E+03  0.34734962221E+03  0.70294558977E+02 0.  0.
          5    1    5    5  501    0  0.67132656594E+02  0.25362375202E+02  0.99849020157E+02  0.12305267361E+03  0.47000000000E+01 0. -1.
        -11    1    6    6    0    0 -0.63535162252E+02  0.12984445358E+03  0.21687740319E+03  0.26063788478E+03  0.00000000000E+00 0.  1.
         12    1    6    6    0    0  0.19309612185E+02  0.41002437885E+02  0.73924720988E+02  0.86711737432E+02  0.00000000000E+00 0. -1.
         -5    1    3    3    0  503 -0.22855018717E+02 -0.11019031514E+02 -0.41926919290E+02  0.49231367006E+02  0.47000000000E+01 0.  1.
         11    1    4    4    0    0  0.12899393089E+02 -0.47298213675E+02 -0.11771367013E+02  0.50419048387E+02  0.00000000000E+00 0. -1.
        -12    1    4    4    0    0 -0.12951480899E+02 -0.13789202148E+03  0.87655163048E+02  0.16390661382E+03  0.00000000000E+00 0.  1.
</event>
<event>
12    1  0.9966151E-001  0.1857571E+03  0.7818608E-02  0.1162379E+00
         21   -1    0    0  503  502  0.00000000000E+00  0.00000000000E+00  0.96577169959E+02  0.96577169959E+02  0.00000000000E+00 0.  1.
         21   -1    0    0  501  503 -0.00000000000E+00 -0.00000000000E+00 -0.52041148542E+03  0.52041148542E+03  0.00000000000E+00 0.  1.
          6    2    1    2  501    0 -0.21321972213E+02 -0.66872851785E+02 -0.39107644120E+02  0.18982910613E+03  0.17198568806E+03 0.  0.
         24    2    3    3    0    0  0.53730174335E+02 -0.45877987832E+02 -0.39787422155E+01  0.10421521261E+03  0.76506592841E+02 0.  0.
         -6    2    1    2    0  502  0.21321972213E+02  0.66872851785E+02 -0.38472667134E+03  0.42715954926E+03  0.17182567932E+03 0.  0.
        -24    2    5    5    0    0 -0.44711934632E+01 -0.28560434518E+02 -0.14340812476E+03  0.16633483713E+03  0.79156160882E+02 0.  0.
          5    1    3    3  501    0 -0.75052146548E+02 -0.20994863952E+02 -0.35128901904E+02  0.85613893515E+02  0.47000000000E+01 0. -1.
        -11    1    4    4    0    0 -0.34720117934E+01 -0.46276534950E+02  0.34333319173E+01  0.46533432292E+02  0.00000000000E+00 0.  1.
         12    1    4    4    0    0  0.57202186128E+02  0.39854711753E+00 -0.74120741327E+01  0.57681780318E+02  0.00000000000E+00 0. -1.
         -5    1    5    5    0  502  0.25793165676E+02  0.95433286303E+02 -0.24131854658E+03  0.26082471212E+03  0.47000000000E+01 0.  1.
         13    1    6    6    0    0  0.28764937822E+02 -0.21359860598E+02 -0.11952388833E+03  0.12477830411E+03  0.00000000000E+00 0. -1.
        -14    1    6    6    0    0 -0.33236131285E+02 -0.72005739200E+01 -0.23884236426E+02  0.41556533027E+02  0.00000000000E+00 0.  1.
</event>
<event>
12    1  0.9966151E-001  0.1866222E+03  0.7818608E-02  0.1161748E+00
         21   -1    0    0  501  502  0.00000000000E+00  0.00000000000E+00  0.26977459763E+04  0.26977459763E+04  0.00000000000E+00 0. -1.
         21   -1    0    0  502  503 -0.00000000000E+00 -0.00000000000E+00 -0.16727626131E+02  0.16727626131E+02  0.00000000000E+00 0. -1.
         -6    2    1    2    0  503 -0.25460393150E+02  0.64494043135E+02  0.68451532618E+03  0.70926733830E+03  0.17231138148E+03 0.  0.
        -24    2    3    3    0    0 -0.19126510065E+02 -0.30636734479E+02  0.40181613255E+03  0.41088686474E+03  0.77893378096E+02 0.  0.
          6    2    1    2  501    0  0.25460393150E+02 -0.64494043135E+02  0.19965030240E+04  0.20052062641E+04  0.17326316309E+03 0.  0.
         24    2    5    5    0    0  0.43432314445E+02  0.26278495194E+02  0.95675546597E+03  0.96133859144E+03  0.78828551223E+02 0.  0.
          5    1    5    5  501    0 -0.17971921295E+02 -0.90772538329E+02  0.10397475580E+04  0.10438676727E+04  0.47000000000E+01 0. -1.
        -13    1    6    6    0    0  0.16644919991E+02  0.53147222794E+02  0.59331289798E+03  0.59592103131E+03  0.00000000000E+00 0.  1.
         14    1    6    6    0    0  0.26787394454E+02 -0.26868727600E+02  0.36344256799E+03  0.36541756013E+03  0.00000000000E+00 0. -1.
         -5    1    3    3    0  503 -0.63338830853E+01  0.95130777614E+02  0.28269919363E+03  0.29838047356E+03  0.47000000000E+01 0.  1.
         13    1    4    4    0    0 -0.43096285495E+01 -0.26624927328E+02  0.39141812007E+03  0.39234628120E+03  0.00000000000E+00 0. -1.
        -14    1    4    4    0    0 -0.14816881515E+02 -0.40118071514E+01  0.10398012484E+02  0.18540583542E+02  0.00000000000E+00 0.  1.
</event>
<event>
12    1  0.9966151E-001  0.1952403E+03  0.7818608E-02  0.1153987E+00
         21   -1    0    0  501  502  0.00000000000E+00  0.00000000000E+00  0.34969213134E+03  0.34969213134E+03  0.00000000000E+00 0.  1.
         21   -1    0    0  502  503 -0.00000000000E+00 -0.00000000000E+00 -0.13080057263E+03  0.13080057263E+03  0.00000000000E+00 0.  1.
         -6    2    1    2    0  503  0.86864255316E+02  0.26593607673E+02  0.20865694297E+03  0.28575603534E+03  0.17281832386E+03 0.  0.
        -24    2    3    3    0    0  0.25208927461E+02 -0.25171474179E+02  0.40069181160E+02  0.98873915849E+02  0.83074778486E+02 0.  0.
          6    2    1    2  501    0 -0.86864255316E+02 -0.26593607673E+02  0.10234615739E+02  0.19473666863E+03  0.17194476999E+03 0.  0.
         24    2    5    5    0    0 -0.20662246619E+01  0.29105646240E+02 -0.22040241357E+02  0.88168055565E+02  0.80227338580E+02 0.  0.
          5    1    5    5  501    0 -0.84798030654E+02 -0.55699253914E+02  0.32274857095E+02  0.10656861306E+03  0.47000000000E+01 0. -1.
        -11    1    6    6    0    0  0.32153983174E+02  0.11854461900E+02  0.12597313431E+02  0.36511631113E+02  0.00000000000E+00 0.  1.
         12    1    6    6    0    0 -0.34220207836E+02  0.17251184340E+02 -0.34637554788E+02  0.51656424451E+02  0.00000000000E+00 0. -1.
         -5    1    3    3    0  503  0.61655327855E+02  0.51765081852E+02  0.16858776181E+03  0.18688211949E+03  0.47000000000E+01 0.  1.
         11    1    4    4    0    0  0.34645930426E+02 -0.34266734324E+02  0.58576616915E+02  0.76195601090E+02  0.00000000000E+00 0. -1.
        -12    1    4    4    0    0 -0.94370029650E+01  0.90952601454E+01 -0.18507435755E+02  0.22678314759E+02  0.00000000000E+00 0.  1.
</event>
<event>
12    1  0.9966151E-001  0.3643452E+03  0.7818608E-02  0.1056889E+00
         21   -1    0    0  503  502  0.00000000000E+00  0.00000000000E+00  0.47610024877E+03  0.47610024877E+03  0.00000000000E+00 0. -1.
         21   -1    0    0  501  503 -0.00000000000E+00 -0.00000000000E+00 -0.27945493221E+03  0.27945493221E+03  0.00000000000E+00 0.  1.
          6    2    1    2  501    0 -0.20291489666E+03  0.24813904146E+03  0.11761603388E+03  0.38285892900E+03  0.17320504874E+03 0.  0.
         24    2    3    3    0    0 -0.13895906623E+03  0.24418894231E+03  0.62447335855E+02  0.29817347116E+03  0.77909482818E+02 0.  0.
         -6    2    1    2    0  502  0.20291489666E+03 -0.24813904146E+03  0.79029282679E+02  0.37269625198E+03  0.17294342871E+03 0.  0.
        -24    2    5    5    0    0  0.18864559021E+03 -0.26898541883E+03  0.78070241913E+02  0.34698255300E+03  0.79759733992E+02 0.  0.
          5    1    3    3  501    0 -0.63955830422E+02  0.39500991546E+01  0.55168698025E+02  0.84685457843E+02  0.47000000000E+01 0. -1.
        -11    1    4    4    0    0 -0.13089265540E+03  0.22655382236E+03  0.78314824512E+02  0.27311670290E+03  0.00000000000E+00 0.  1.
         12    1    4    4    0    0 -0.80664108288E+01  0.17635119945E+02 -0.15867488656E+02  0.25056768256E+02  0.00000000000E+00 0. -1.
         -5    1    5    5    0  502  0.14269306444E+02  0.20846377367E+02  0.95904076607E+00  0.25713698974E+02  0.47000000000E+01 0.  1.
         13    1    6    6    0    0  0.13855389385E+03 -0.24217965584E+03  0.79611673286E+02  0.29014855803E+03  0.00000000000E+00 0. -1.
        -14    1    6    6    0    0  0.50091696358E+02 -0.26805762988E+02 -0.15414313736E+01  0.56833994969E+02  0.00000000000E+00 0.  1.
</event>
<event>
12    1  0.9966151E-001  0.2337667E+03  0.7818608E-02  0.1125805E+00
         21   -1    0    0  501  502  0.00000000000E+00  0.00000000000E+00  0.16122286097E+04  0.16122286097E+04  0.00000000000E+00 0.  1.
         21   -1    0    0  502  503 -0.00000000000E+00 -0.00000000000E+00 -0.37294462032E+02  0.37294462032E+02  0.00000000000E+00 0.  1.
         -6    2    1    2    0  503  0.54678253672E+02 -0.13027444918E+03  0.50518671056E+03  0.55665113191E+03  0.18624104436E+03 0.  0.
        -24    2    3    3    0    0 -0.75125961599E+01  0.12721570596E+01  0.12312330975E+03  0.14779083346E+03  0.81392404843E+02 0.  0.
          6    2    1    2  501    0 -0.54678253672E+02  0.13027444918E+03  0.10697474371E+04  0.10928719398E+04  0.17334461084E+03 0.  0.
         24    2    5    5    0    0 -0.75962767553E+02  0.29080143530E+02  0.43926496598E+03  0.45394819286E+03  0.80617954957E+02 0.  0.
          5    1    5    5  501    0  0.21284513882E+02  0.10119430565E+03  0.63048247108E+03  0.63892374691E+03  0.47000000000E+01 0. -1.
        -11    1    6    6    0    0 -0.42227244177E+02  0.26748086555E+02  0.89176855041E+02  0.10223067915E+03  0.00000000000E+00 0.  1.
         12    1    6    6    0    0 -0.33735523376E+02  0.23320569751E+01  0.35008811094E+03  0.35171751371E+03  0.00000000000E+00 0. -1.
         -5    1    3    3    0  503  0.62190849832E+02 -0.13154660624E+03  0.38206340081E+03  0.40886029846E+03  0.47000000000E+01 0.  1.
         13    1    4    4    0    0 -0.16167200533E+02 -0.22911684685E+02  0.70563161088E+01  0.28915657786E+02  0.00000000000E+00 0. -1.
        -14    1    4    4    0    0  0.86546043733E+01  0.24183841744E+02  0.11606699364E+03  0.11887517567E+03  0.00000000000E+00 0.  1.
</event>
<event>
12    1  0.9966151E-001  0.4921917E+03  0.7818608E-02  0.1016248E+00
         21   -1    0    0  503  502  0.00000000000E+00  0.00000000000E+00  0.18419841490E+03  0.18419841490E+03  0.00000000000E+00 0.  1.
         21   -1    0    0  501  503 -0.00000000000E+00 -0.00000000000E+00 -0.12999099369E+04  0.12999099369E+04  0.00000000000E+00 0.  1.
          6    2    1    2  501    0  0.17044906128E+03  0.42106340358E+03 -0.53323845431E+03  0.72152880829E+03  0.17295461749E+03 0.  0.
         24    2    3    3    0    0  0.10160402411E+03  0.16502018000E+03 -0.16356699835E+03  0.26658172693E+03  0.82198641483E+02 0.  0.
         -6    2    1    2    0  502 -0.17044906128E+03 -0.42106340358E+03 -0.58247306765E+03  0.76257954348E+03  0.18948723774E+03 0.  0.
        -24    2    5    5    0    0 -0.10192970154E+03 -0.23687771905E+03 -0.45210595245E+03  0.52670469579E+03  0.80729960283E+02 0.  0.
          5    1    3    3  501    0  0.68845037161E+02  0.25604322359E+03 -0.36967145596E+03  0.45494708136E+03  0.47000000000E+01 0. -1.
        -13    1    4    4    0    0  0.32018149994E+02  0.56659114424E+01 -0.47333418469E+02  0.57425751936E+02  0.00000000000E+00 0.  1.
         14    1    4    4    0    0  0.69585874120E+02  0.15935426856E+03 -0.11623357988E+03  0.20915597500E+03  0.00000000000E+00 0. -1.
         -5    1    5    5    0  502 -0.68519359739E+02 -0.18418568453E+03 -0.13036711519E+03  0.23587484768E+03  0.47000000000E+01 0.  1.
         13    1    6    6    0    0 -0.10254922168E+03 -0.15009159646E+03 -0.27782474505E+03  0.33200966726E+03  0.00000000000E+00 0. -1.
        -14    1    6    6    0    0  0.61952014048E+00 -0.86786122591E+02 -0.17428120741E+03  0.19469502853E+03  0.00000000000E+00 0.  1.
</event>
<event>
12    1  0.9966151E-001  0.1747117E+03  0.7818608E-02  0.1173454E+00
         21   -1    0    0  503  502  0.00000000000E+00  0.00000000000E+00  0.28990827401E+02  0.28990827401E+02  0.00000000000E+00 0.  1.
         21   -1    0    0  501  503 -0.00000000000E+00 -0.00000000000E+00 -0.10675606071E+04  0.10675606071E+04  0.00000000000E+00 0.  1.
          6    2    1    2  501    0 -0.23373605124E+01  0.24104325107E+02 -0.60060711826E+03  0.62502681933E+03  0.17129837314E+03 0.  0.
         24    2    3    3    0    0  0.38772828608E+02  0.45250238890E+01 -0.54785674070E+03  0.55518350170E+03  0.80980887557E+02 0.  0.
         -6    2    1    2    0  502  0.23373605124E+01 -0.24104325107E+02 -0.43796266139E+03  0.47152461512E+03  0.17302510843E+03 0.  0.
        -24    2    5    5    0    0  0.37352896164E+02 -0.71220816196E+02 -0.33123735554E+03  0.34962944549E+03  0.77813366058E+02 0.  0.
          5    1    3    3  501    0 -0.41110189121E+02  0.19579301217E+02 -0.52750377560E+02  0.69843317636E+02  0.47000000000E+01 0. -1.
        -13    1    4    4    0    0  0.53443878549E+02 -0.20596739628E+02 -0.28328198269E+03  0.28901410961E+03  0.00000000000E+00 0.  1.
         14    1    4    4    0    0 -0.14671049941E+02  0.25121763517E+02 -0.26457475801E+03  0.26616939208E+03  0.00000000000E+00 0. -1.
         -5    1    5    5    0  502 -0.35015535651E+02  0.47116491090E+02 -0.10672530585E+03  0.12189516963E+03  0.47000000000E+01 0.  1.
         13    1    6    6    0    0  0.61120025027E+01 -0.14781927294E+02 -0.22338789330E+03  0.22395984646E+03  0.00000000000E+00 0. -1.
        -14    1    6    6    0    0  0.31240893661E+02 -0.56438888902E+02 -0.10784946224E+03  0.12566959904E+03  0.00000000000E+00 0.  1.
</event>
<event>
12    1  0.9966151E-001  0.2736165E+03  0.7818608E-02  0.1099335E+00
         21   -1    0    0  501  502  0.00000000000E+00  0.00000000000E+00  0.52691805737E+02  0.52691805737E+02  0.00000000000E+00 0.  1.
         21   -1    0    0  502  503 -0.00000000000E+00 -0.00000000000E+00 -0.28334623898E+04  0.28334623898E+04  0.00000000000E+00 0.  1.
         -6    2    1    2    0  503 -0.97426957082E+02 -0.18848466555E+03 -0.37099826012E+03  0.46098341951E+03  0.17276435667E+03 0.  0.
        -24    2    3    3    0    0 -0.67504395496E+02 -0.32224963174E+02 -0.12056001591E+03  0.16424471552E+03  0.82742476874E+02 0.  0.
          6    2    1    2  501    0  0.97426957082E+02  0.18848466555E+03 -0.24097723239E+04  0.24251707760E+04  0.17155803257E+03 0.  0.
         24    2    5    5    0    0  0.11578969915E+01  0.71462555189E+02 -0.13954888204E+04  0.13996196941E+04  0.80237164140E+02 0.  0.
          5    1    5    5  501    0  0.96269060090E+02  0.11702211036E+03 -0.10142835035E+04  0.10255510819E+04  0.47000000000E+01 0. -1.
        -13    1    6    6    0    0 -0.15038129205E+02  0.83451163682E+02 -0.12277805379E+04  0.12307052009E+04  0.00000000000E+00 0.  1.
         14    1    6    6    0    0  0.16196026196E+02 -0.11988608493E+02 -0.16770828249E+03  0.16891449320E+03  0.00000000000E+00 0. -1.
         -5    1    3    3    0  503 -0.29922561586E+02 -0.15625970237E+03 -0.25043824421E+03  0.29673870398E+03  0.47000000000E+01 0.  1.
         11    1    4    4    0    0 -0.70255619810E+02 -0.23209065245E+02 -0.13083094370E+03  0.15030385442E+03  0.00000000000E+00 0. -1.
        -12    1    4    4    0    0  0.27512243141E+01 -0.90158979292E+01  0.10270927790E+02  0.13940861106E+02  0.00000000000E+00 0.  1.
</event>
<event>
12    1  0.9966151E-001  0.3543609E+03  0.7818608E-02  0.1060916E+00
         21   -1    0    0  503  502  0.00000000000E+00  0.00000000000E+00  0.41435681993E+03  0.41435681993E+03  0.00000000000E+00 0.  1.
         21   -1    0    0  501  503 -0.00000000000E+00 -0.00000000000E+00 -0.32224100840E+03  0.32224100840E+03  0.00000000000E+00 0.  1.
          6    2    1    2  501    0  0.30841765077E+03  0.22535239316E+02  0.13748494839E+03  0.38009700026E+03  0.17303853403E+03 0.  0.
         24    2    3    3    0    0  0.87584872683E+02  0.28594190182E+02  0.95942078207E+02  0.15525988850E+03  0.80075045874E+02 0.  0.
         -6    2    1    2    0  502 -0.30841765077E+03 -0.22535239316E+02 -0.45369136856E+02  0.35650082807E+03  0.17147943759E+03 0.  0.
        -24    2    5    5    0    0 -0.14523249191E+03  0.88822725233E+01 -0.83227507072E+02  0.18599627588E+03  0.80600404678E+02 0.  0.
          5    1    3    3  501    0  0.22083277809E+03 -0.60589508667E+01  0.41542870180E+02  0.22483711176E+03  0.47000000000E+01 0. -1.
        -11    1    4    4    0    0  0.95275603836E+02  0.22639763604E+02  0.10383823863E+03  0.14273184432E+03  0.00000000000E+00 0.  1.
         12    1    4    4    0    0 -0.76907311530E+01  0.59544265788E+01 -0.78961604214E+01  0.12528044179E+02  0.00000000000E+00 0. -1.
         -5    1    5    5    0  502 -0.16318515886E+03 -0.31417511839E+02  0.37858370217E+02  0.17050455219E+03  0.47000000000E+01 0.  1.
         13    1    6    6    0    0 -0.84596264731E+02  0.44417528587E+02 -0.55084448546E+02  0.11028935272E+03  0.00000000000E+00 0. -1.
        -14    1    6    6    0    0 -0.60636227179E+02 -0.35535256064E+02 -0.28143058526E+02  0.75706923153E+02  0.00000000000E+00 0.  1.
</event>
<event>
12    1  0.9966151E-001  0.3579273E+03  0.7818608E-02  0.1059424E+00
         21   -1    0    0  503  502  0.00000000000E+00  0.00000000000E+00  0.31428479010E+03  0.31428479010E+03  0.00000000000E+00 0. -1.
         21   -1    0    0  501  503 -0.00000000000E+00 -0.00000000000E+00 -0.66143976265E+03  0.66143976265E+03  0.00000000000E+00 0. -1.
          6    2    1    2  501    0  0.13639174975E+03  0.28247582170E+03 -0.47587235676E+03  0.59535615799E+03  0.17204405156E+03 0.  0.
         24    2    3    3    0    0  0.48380770166E+02  0.23653182031E+03 -0.37987602401E+03  0.45717450329E+03  0.80092021477E+02 0.  0.
         -6    2    1    2    0  502 -0.13639174975E+03 -0.28247582170E+03  0.12871738421E+03  0.38036839476E+03  0.17238518348E+03 0.  0.
        -24    2    5    5    0    0 -0.22027996100E+02 -0.20216663074E+03  0.76016054645E+02  0.23094231122E+03  0.78735832703E+02 0.  0.
          5    1    3    3  501    0  0.88010979587E+02  0.45944001394E+02 -0.95996332753E+02  0.13818165469E+03  0.47000000000E+01 0. -1.
        -11    1    4    4    0    0  0.39205686209E+02  0.79162592251E+02 -0.83872346538E+02  0.12181285793E+03  0.00000000000E+00 0.  1.
         12    1    4    4    0    0  0.91750839568E+01  0.15736922806E+03 -0.29600367747E+03  0.33536164536E+03  0.00000000000E+00 0. -1.
         -5    1    5    5    0  502 -0.11436375365E+03 -0.80309190965E+02  0.52701329569E+02  0.14942608354E+03  0.47000000000E+01 0.  1.
         11    1    6    6    0    0  0.35421811674E+01 -0.10603244112E+02  0.30370457109E+02  0.32362640469E+02  0.00000000000E+00 0. -1.
        -12    1    6    6    0    0 -0.25570177268E+02 -0.19156338662E+03  0.45645597537E+02  0.19857967075E+03  0.00000000000E+00 0.  1.
</event>
<event>
12    1  0.9966151E-001  0.1883750E+03  0.7818608E-02  0.1160186E+00
         21   -1    0    0  503  502  0.00000000000E+00  0.00000000000E+00  0.87427148872E+02  0.87427148872E+02  0.00000000000E+00 0.  1.
         21   -1    0    0  501  503 -0.00000000000E+00 -0.00000000000E+00 -0.48606653983E+03  0.48606653983E+03  0.00000000000E+00 0.  1.
          6    2    1    2  501    0 -0.51583622190E+02 -0.53664394949E+02 -0.31700358160E+03  0.36819012093E+03  0.17184864573E+03 0.  0.
         24    2    3    3    0    0 -0.77677000284E+02 -0.46435540938E+02 -0.31867324115E+03  0.34065834885E+03  0.79407179671E+02 0.  0.
         -6    2    1    2    0  502  0.51583622190E+02  0.53664394949E+02 -0.81635809356E+02  0.20530356777E+03  0.17304453822E+03 0.  0.
        -24    2    5    5    0    0  0.74777785911E+01  0.12400422430E+02 -0.11092120714E+03  0.13801489569E+03  0.80838787650E+02 0.  0.
          5    1    3    3  501    0  0.26093378094E+02 -0.72288540103E+01  0.16696595467E+01  0.27531772077E+02  0.47000000000E+01 0. -1.
        -13    1    4    4    0    0 -0.34455777001E+02  0.20179732464E+02 -0.12884229411E+03  0.13488794951E+03  0.00000000000E+00 0.  1.
         14    1    4    4    0    0 -0.43221223283E+02 -0.66615273403E+02 -0.18983094704E+03  0.20577039935E+03  0.00000000000E+00 0. -1.
         -5    1    5    5    0  502  0.44105843598E+02  0.41263972519E+02  0.29285397786E+02  0.67288672086E+02  0.47000000000E+01 0.  1.
         13    1    6    6    0    0 -0.47492957505E+01  0.42581564869E+02 -0.88952713808E+02  0.98733635457E+02  0.00000000000E+00 0. -1.
        -14    1    6    6    0    0  0.12227074342E+02 -0.30181142440E+02 -0.21968493334E+02  0.39281260230E+02  0.00000000000E+00 0.  1.
</event>
<event>
12    1  0.9966151E-001  0.4950426E+03  0.7818608E-02  0.1015105E+00
         21   -1    0    0  503  502  0.00000000000E+00  0.00000000000E+00  0.34996260498E+03  0.34996260498E+03  0.00000000000E+00 0. -1.
         21   -1    0    0  501  503 -0.00000000000E+00 -0.00000000000E+00 -0.88370904783E+03  0.88370904783E+03  0.00000000000E+00 0.  1.
          6    2    1    2  501    0  0.32991782164E+03 -0.32632320247E+03  0.14629705493E+02  0.49489995899E+03  0.17140402450E+03 0.  0.
         24    2    3    3    0    0  0.87958955103E+02 -0.13816337596E+03  0.40122940685E+02  0.18729597908E+03  0.81510963518E+02 0.  0.
         -6    2    1    2    0  502 -0.32991782164E+03  0.32632320247E+03 -0.54837614834E+03  0.73877169382E+03  0.17243727560E+03 0.  0.
        -24    2    5    5    0    0 -0.25587078691E+03  0.32011864086E+03 -0.45382552274E+03  0.61842481709E+03  0.92443742259E+02 0.  0.
          5    1    3    3  501    0  0.24195886654E+03 -0.18815982652E+03 -0.25493235192E+02  0.30760397990E+03  0.47000000000E+01 0. -1.
        -11    1    4    4    0    0 -0.40274590779E+01 -0.65612202289E+02  0.12167436055E+02  0.66852285047E+02  0.00000000000E+00 0.  1.
         12    1    4    4    0    0  0.91986414181E+02 -0.72551173668E+02  0.27955504630E+02  0.12044369404E+03  0.00000000000E+00 0. -1.
         -5    1    5    5    0  502 -0.74047034733E+02  0.62045616087E+01 -0.94550625597E+02  0.12034687673E+03  0.47000000000E+01 0.  1.
         11    1    6    6    0    0 -0.12097462840E+03  0.13845585110E+03 -0.13790266686E+03  0.22983043521E+03  0.00000000000E+00 0. -1.
        -12    1    6    6    0    0 -0.13489615851E+03  0.18166278976E+03 -0.31592285588E+03  0.38859438188E+03  0.00000000000E+00 0.  1.
</event>
<event>
12    1  0.9966151E-001  0.2225879E+03  0.7818608E-02  0.1132035E+00
         21   -1    0    0  501  502  0.00000000000E+00  0.00000000000E+00  0.31316424642E+03  0.31316424642E+03  0.00000000000E+00 0.  1.
         21   -1    0    0  502  503 -0.00000000000E+00 -0.00000000000E+00 -0.27127203505E+03  0.27127203505E+03  0.00000000000E+00 0.  1.
         -6    2    1    2    0  503 -0.12667585787E+03  0.61719908043E+02  0.20980418969E+03  0.30561765590E+03  0.17183781182E+03 0.  0.
        -24    2    3    3    0    0 -0.22618045338E+02  0.62757979511E+02  0.51611178094E+02  0.11620745328E+03  0.79939467882E+02 0.  0.
          6    2    1    2  501    0  0.12667585787E+03 -0.61719908043E+02 -0.16791197832E+03  0.27881862556E+03  0.17230575579E+03 0.  0.
         24    2    5    5    0    0 -0.30327113577E+01 -0.35962070175E+01 -0.52031697070E+02  0.95371065929E+02  0.79788549763E+02 0.  0.
          5    1    5    5  501    0  0.12970856923E+03 -0.58123701026E+02 -0.11588028125E+03  0.18344755963E+03  0.47000000000E+01 0. -1.
        -13    1    6    6    0    0  0.20286317460E+02 -0.31892541088E+02 -0.43683123703E+02  0.57765769705E+02  0.00000000000E+00 0.  1.
         14    1    6    6    0    0 -0.23319028818E+02  0.28296334070E+02 -0.83485733667E+01  0.37605296224E+02  0.00000000000E+00 0. -1.
         -5    1    3    3    0  503 -0.10405781253E+03 -0.10380714683E+01  0.15819301160E+03  0.18941020263E+03  0.47000000000E+01 0.  1.
         13    1    4    4    0    0 -0.47560351835E+02  0.14793502924E+02  0.28753912763E+02  0.57511931759E+02  0.00000000000E+00 0. -1.
        -14    1    4    4    0    0  0.24942306497E+02  0.47964476588E+02  0.22857265331E+02  0.58695521516E+02  0.00000000000E+00 0.  1.
</event>
<event>
12    1  0.9966151E-001  0.1849876E+03  0.7818608E-02  0.1163144E+00
         21   -1    0    0  501  502  0.00000000000E+00  0.00000000000E+00  0.84653129270E+03  0.84653129270E+03  0.00000000000E+00 0.  1.
         21   -1    0    0  502  503 -0.00000000000E+00 -0.00000000000E+00 -0.42213602721E+02  0.42213602721E+02  0.00000000000E+00 0.  1.
         -6    2    1    2    0  503 -0.34445132830E+02  0.57792314740E+02  0.30909252875E+03  0.36022023149E+03  0.17231948532E+03 0.  0.
        -24    2    3    3    0    0 -0.54588555512E+01  0.58740609286E+02  0.74750543659E+02  0.12404368839E+03  0.79491726411E+02 0.  0.
          6    2    1    2  501    0  0.34445132830E+02 -0.57792314740E+02  0.49522516122E+03  0.52852466393E+03  0.17194167981E+03 0.  0.
         24    2    5    5    0    0  0.46787676239E+02  0.23718004191E+02  0.19638483344E+03  0.21848611475E+03  0.80109607178E+02 0.  0.
          5    1    5    5  501    0 -0.12342543409E+02 -0.81510318931E+02  0.29884032778E+03  0.31003854918E+03  0.47000000000E+01 0. -1.
        -13    1    6    6    0    0  0.60896325286E+01 -0.17565655941E+02  0.60998262688E+01  0.19566393982E+02  0.00000000000E+00 0.  1.
         14    1    6    6    0    0  0.40698043710E+02  0.41283660132E+02  0.19028500717E+03  0.19891972077E+03  0.00000000000E+00 0. -1.
         -5    1    3    3    0  503 -0.28986277279E+02 -0.94829454585E+00  0.23434198509E+03  0.23617654310E+03  0.47000000000E+01 0.  1.
         11    1    4    4    0    0  0.84320819031E+01 -0.12135170568E+02 -0.57826313059E+01  0.15868244854E+02  0.00000000000E+00 0. -1.
        -12    1    4    4    0    0 -0.13890937454E+02  0.70875779854E+02  0.80533174965E+02  0.10817544353E+03  0.00000000000E+00 0.  1.
</event>
<event>
12    1  0.9966151E-001  0.3027738E+03  0.7818608E-02  0.1083941E+00
         21   -1    0    0  501  502  0.00000000000E+00  0.00000000000E+00  0.12308992514E+03  0.12308992514E+03  0.00000000000E+00 0. -1.
         21   -1    0    0  502  503 -0.00000000000E+00 -0.00000000000E+00 -0.11600188588E+04  0.11600188588E+04  0.00000000000E+00 0.  1.
         -6    2    1    2    0  503  0.15236023127E+03  0.19650683650E+03 -0.13423918967E+03  0.33119803555E+03  0.17275242934E+03 0.  0.
        -24    2    3    3    0    0  0.20044898155E+02  0.51347021404E+02 -0.86954849119E+01  0.98041369117E+02  0.80611314661E+02 0.  0.
          6    2    1    2  501    0 -0.15236023127E+03 -0.19650683650E+03 -0.90268974397E+03  0.95191074838E+03  0.17162960747E+03 0.  0.
         24    2    5    5    0    0 -0.99710031235E+02 -0.36088150643E+02 -0.42104087921E+03  0.44150510847E+03  0.80043075223E+02 0.  0.
          5    1    5    5  501    0 -0.52650200031E+02 -0.16041868586E+03 -0.48164886475E+03  0.51040563991E+03  0.47000000000E+01 0. -1.
        -11    1    6    6    0    0 -0.42353371934E+02 -0.55681196424E+02 -0.26577633000E+03  0.27482951323E+03  0.00000000000E+00 0.  1.
         12    1    6    6    0    0 -0.57356659301E+02  0.19593045781E+02 -0.15526454921E+03  0.16667559525E+03  0.00000000000E+00 0. -1.
         -5    1    3    3    0  503  0.13231533311E+03  0.14515981509E+03 -0.12554370476E+03  0.23315666643E+03  0.47000000000E+01 0.  1.
         11    1    4    4    0    0  0.19432442590E+02  0.59705048049E+02  0.21761808731E+02  0.66452155020E+02  0.00000000000E+00 0. -1.
        -12    1    4    4    0    0  0.61245556561E+00 -0.83580266450E+01 -0.30457293643E+02  0.31589214097E+02  0.00000000000E+00 0.  1.
</event>
<event>
12    1  0.9966151E-001  0.1991089E+03  0.7818608E-02  0.1150752E+00
         21   -1    0    0  501  502  0.00000000000E+00  0.00000000000E+00  0.65457968340E+02  0.65457968340E+02  0.00000000000E+00 0.  1.
         21   -1    0    0  502  503 -0.00000000000E+00 -0.00000000000E+00 -0.60208163965E+03  0.60208163965E+03  0.00000000000E+00 0.  1.
         -6    2    1    2    0  503 -0.34520740065E+02 -0.92986086179E+02 -0.26421478164E+03  0.33083804259E+03  0.17264491267E+03 0.  0.
        -24    2    3    3    0    0 -0.37558807180E+02 -0.12823497505E+03 -0.17324402561E+03  0.23311658911E+03  0.80467253494E+02 0.  0.
          6    2    1    2  501    0  0.34520740065E+02  0.92986086179E+02 -0.27240888967E+03  0.33670156540E+03  0.17124032017E+03 0.  0.
         24    2    5    5    0    0 -0.38421332029E+01 -0.12232302974E+02 -0.13133653631E+03  0.15651799694E+03  0.84167727613E+02 0.  0.
          5    1    5    5  501    0  0.38362873267E+02  0.10521838915E+03 -0.14107235336E+03  0.18018356846E+03  0.47000000000E+01 0. -1.
        -11    1    6    6    0    0 -0.24486816213E+02  0.27549362781E+02 -0.37789704285E+02  0.52788571754E+02  0.00000000000E+00 0.  1.
         12    1    6    6    0    0  0.20644683010E+02 -0.39781665755E+02 -0.93546832023E+02  0.10372942518E+03  0.00000000000E+00 0. -1.
         -5    1    3    3    0  503  0.30380671159E+01  0.35248888871E+02 -0.90970756026E+02  0.97721453481E+02  0.47000000000E+01 0.  1.
         11    1    4    4    0    0 -0.93450260582E+01 -0.11237378494E+03 -0.16476739165E+03  0.19965843434E+03  0.00000000000E+00 0. -1.
        -12    1    4    4    0    0 -0.28213781122E+02 -0.15861190113E+02 -0.84766339608E+01  0.33458154766E+02  0.00000000000E+00 0.  1.
</event>
<event>
12    1  0.9966151E-001  0.2856119E+03  0.7818608E-02  0.1092720E+00
         21   -1    0    0  501  502  0.00000000000E+00  0.00000000000E+00  0.17570390046E+03  0.17570390046E+03  0.00000000000E+00 0.  1.
         21   -1    0    0  502  503 -0.00000000000E+00 -0.00000000000E+00 -0.98121806444E+03  0.98121806444E+03  0.00000000000E+00 0. -1.
         -6    2    1    2    0  503  0.15177047783E+03 -0.16989486182E+03 -0.82276713066E+03  0.87078940459E+03  0.17155143205E+03 0.  0.
        -24    2    3    3    0    0  0.98018533124E+02 -0.89284311423E+02 -0.68224698609E+03  0.70004007538E+03  0.83760587454E+02 0.  0.
          6    2    1    2  501    0 -0.15177047783E+03  0.16989486182E+03  0.17252966677E+02  0.28613256031E+03  0.17226617542E+03 0.  0.
         24    2    5    5    0    0 -0.97138589387E+02  0.16486018824E+03 -0.34691092922E+02  0.21043403654E+03  0.80400401689E+02 0.  0.
          5    1    5    5  501    0 -0.54631888445E+02  0.50346735809E+01  0.51944059599E+02  0.75698523769E+02  0.47000000000E+01 0. -1.
        -11    1    6    6    0    0 -0.66833197854E+00  0.16667010196E+02  0.19337069394E+02  0.25537387283E+02  0.00000000000E+00 0.  1.
         12    1    6    6    0    0 -0.96470257408E+02  0.14819317804E+03 -0.54028162316E+02  0.18489664925E+03  0.00000000000E+00 0. -1.
         -5    1    3    3    0  503  0.53751944708E+02 -0.80610550394E+02 -0.14052014457E+03  0.17074932921E+03  0.47000000000E+01 0.  1.
         13    1    4    4    0    0  0.86063925727E+01 -0.61169574648E+02 -0.31670719808E+03  0.32267512481E+03  0.00000000000E+00 0. -1.
        -14    1    4    4    0    0  0.89412140551E+02 -0.28114736774E+02 -0.36553978801E+03  0.37736495057E+03  0.00000000000E+00 0.  1.
</event>
<event>
12    1  0.9966151E-001  0.2056584E+03  0.7818608E-02  0.1145111E+00
         21   -1    0    0  501  502  0.00000000000E+00  0.00000000000E+00  0.15684727808E+03  0.15684727808E+03  0.00000000000E+00 0.  1.
         21   -1    0    0  502  503 -0.00000000000E+00 -0.00000000000E+00 -0.27634337326E+03  0.27634337326E+03  0.00000000000E+00 0.  1.
         -6    2    1    2    0  503 -0.82814965943E+02  0.75540886076E+02 -0.25056223640E+02  0.20688492679E+03  0.17207212016E+03 0.  0.
        -24    2    3    3    0    0  0.18578149120E+02  0.28226748590E+02  0.80927101405E+01  0.90093945980E+02  0.83123583802E+02 0.  0.
          6    2    1    2  501    0  0.82814965943E+02 -0.75540886076E+02 -0.94439871545E+02  0.22630572455E+03  0.17242577410E+03 0.  0.
         24    2    5    5    0    0 -0.18387273580E+02 -0.35402956372E+02 -0.75453019544E+02  0.11569136186E+03  0.78101676680E+02 0.  0.
          5    1    5    5  501    0  0.10120223952E+03 -0.40137929703E+02 -0.18986852001E+02  0.11061436269E+03  0.47000000000E+01 0. -1.
        -11    1    6    6    0    0 -0.12398104806E+02  0.23412601441E+02 -0.35671529282E+02  0.44433331074E+02  0.00000000000E+00 0.  1.
         12    1    6    6    0    0 -0.59891687743E+01 -0.58815557813E+02 -0.39781490262E+02  0.71258030782E+02  0.00000000000E+00 0. -1.
         -5    1    3    3    0  503 -0.10139311506E+03  0.47314137485E+02 -0.33148933780E+02  0.11679098081E+03  0.47000000000E+01 0.  1.
         13    1    4    4    0    0  0.36882021350E+02  0.24085430017E+02 -0.26019325495E+02  0.51160499775E+02  0.00000000000E+00 0. -1.
        -14    1    4    4    0    0 -0.18303872230E+02  0.41413185731E+01  0.34112035636E+02  0.38933446205E+02  0.00000000000E+00 0.  1.
</event>
<event>
12    1  0.9966151E-001  0.2928847E+03  0.7818608E-02  0.1088874E+00
         21   -1    0    0  503  502  0.00000000000E+00  0.00000000000E+00  0.19269087183E+03  0.19269087183E+03  0.00000000000E+00 0.  1.
         21   -1    0    0  501  503 -0.00000000000E+00 -0.00000000000E+00 -0.46288204515E+03  0.46288204515E+03  0.00000000000E+00 0.  1.
          6    2    1    2  501    0  0.22497116640E+03  0.72340183403E+02 -0.70572746686E+02  0.30126727466E+03  0.17302118471E+03 0.  0.
         24    2    3    3    0    0  0.19493600420E+03  0.11218976020E+03 -0.78076995130E+02  0.25058686933E+03  0.78173997500E+02 0.  0.
         -6    2    1    2    0  502 -0.22497116640E+03 -0.72340183403E+02 -0.19961842663E+03  0.35430564232E+03  0.17274213176E+03 0.  0.
        -24    2    5    5    0    0 -0.16164068520E+03 -0.57537558866E+02 -0.21586709340E+03  0.28710462511E+03  0.79951122290E+02 0.  0.
          5    1    3    3  501    0  0.30035162198E+02 -0.39849576797E+02  0.75042484440E+01  0.50680405324E+02  0.47000000000E+01 0. -1.
        -13    1    4    4    0    0  0.36557068941E+02  0.60760721241E+02 -0.14724842303E+02  0.72423100707E+02  0.00000000000E+00 0.  1.
         14    1    4    4    0    0  0.15837893526E+03  0.51429038960E+02 -0.63352152828E+02  0.17816376863E+03  0.00000000000E+00 0. -1.
         -5    1    5    5    0  502 -0.63330481200E+02 -0.14802624537E+02  0.16248666768E+02  0.67201017210E+02  0.47000000000E+01 0.  1.
         13    1    6    6    0    0 -0.73726652151E+02  0.13233555460E+02 -0.10427708826E+03  0.12839181190E+03  0.00000000000E+00 0. -1.
        -14    1    6    6    0    0 -0.87914033050E+02 -0.70771114326E+02 -0.11159000514E+03  0.15871281321E+03  0.00000000000E+00 0.  1.
</event>
<event>
12    1  0.9966151E-001  0.2193437E+03  0.7818608E-02  0.1134402E+00
         21   -1    0    0  503  502  0.00000000000E+00  0.00000000000E+00  0.96855616273E+02  0.96855616273E+02  0.00000000000E+00 0. -1.
         21   -1    0    0  501  503 -0.00000000000E+00 -0.00000000000E+00 -0.49964154591E+03  0.49964154591E+03  0.00000000000E+00 0. -1.
          6    2    1    2  501    0 -0.52240879102E+02  0.12616240432E+03 -0.22553566268E+03  0.31460765740E+03  0.17165541426E+03 0.  0.
         24    2    3    3    0    0  0.45038718764E+02  0.86526386653E+02 -0.98545808505E+02  0.14973544289E+03  0.56516587896E+02 0.  0.
         -6    2    1    2    0  502  0.52240879102E+02 -0.12616240432E+03 -0.17725026696E+03  0.28188950478E+03  0.17145837412E+03 0.  0.
        -24    2    5    5    0    0  0.98780859342E+01 -0.14093750699E+01 -0.35292103769E+02  0.88157383933E+02  0.80166257450E+02 0.  0.
          5    1    3    3  501    0 -0.97279597866E+02  0.39636017663E+02 -0.12698985417E+03  0.16487221452E+03  0.47000000000E+01 0. -1.
        -13    1    4    4    0    0  0.43189765288E+02  0.73943649488E+02 -0.49164951379E+02  0.98743159607E+02  0.00000000000E+00 0.  1.
         14    1    4    4    0    0  0.18489534758E+01  0.12582737166E+02 -0.49380857126E+02  0.50992283279E+02  0.00000000000E+00 0. -1.
         -5    1    5    5    0  502  0.42362793168E+02 -0.12475302925E+03 -0.14195816319E+03  0.19373212085E+03  0.47000000000E+01 0.  1.
         11    1    6    6    0    0 -0.28320949704E+02  0.35793125409E+01 -0.40219274421E+02  0.49320155164E+02  0.00000000000E+00 0. -1.
        -12    1    6    6    0    0  0.38199035638E+02 -0.49886876108E+01  0.49271706523E+01  0.38837228769E+02  0.00000000000E+00 0.  1.
</event>
<event>
12    1  0.9966151E-001  0.2290457E+03  0.7818608E-02  0.1127436E+00
         21   -1    0    0  503  502  0.00000000000E+00  0.00000000000E+00  0.11671642006E+04  0.11671642006E+04  0.00000000000E+00 0. -1.
         21   -1    0    0  501  503 -0.00000000000E+00 -0.00000000000E+00 -0.51440159222E+02  0.51440159222E+02  0.00000000000E+00 0. -1.
          6    2    1    2  501    0  0.10926926469E+03 -0.10384311447E+03  0.77730238178E+03  0.81034617458E+03  0.17244931227E+03 0.  0.
         24    2    3    3    0    0 -0.64615110150E+01 -0.67908094611E+02  0.29450022209E+03  0.31254606058E+03  0.79381350032E+02 0.  0.
         -6    2    1    2    0  502 -0.10926926469E+03  0.10384311447E+03  0.33842165960E+03  0.40825818524E+03  0.17152947707E+03 0.  0.
        -24    2    5    5    0    0 -0.40239592882E+02  0.83259485529E+02  0.30546123178E+03  0.32890290078E+03  0.79493315775E+02 0.  0.
          5    1    3    3  501    0  0.11573077571E+03 -0.35935019857E+02  0.48280215969E+03  0.49780011400E+03  0.47000000000E+01 0. -1.
        -13    1    4    4    0    0  0.11045676080E+02 -0.26709893009E+02  0.21817786095E+02  0.36213825188E+02  0.00000000000E+00 0.  1.
         14    1    4    4    0    0 -0.17507187095E+02 -0.41198201602E+02  0.27268243599E+03  0.27633223539E+03  0.00000000000E+00 0. -1.
         -5    1    5    5    0  502 -0.69029671812E+02  0.20583628939E+02  0.32960427816E+02  0.79355284466E+02  0.47000000000E+01 0.  1.
         13    1    6    6    0    0 -0.48048407771E+01  0.51251036319E+02  0.60978525412E+02  0.79800600124E+02  0.00000000000E+00 0. -1.
        -14    1    6    6    0    0 -0.35434752105E+02  0.32008449210E+02  0.24448270637E+03  0.24910230065E+03  0.00000000000E+00 0.  1.
</event>
<event>
12    1  0.9966151E-001  0.3712005E+03  0.7818608E-02  0.1054343E+00
         21   -1    0    0  503  502  0.00000000000E+00  0.00000000000E+00  0.16327734200E+03  0.16327734200E+03  0.00000000000E+00 0. -1.
         21   -1    0    0  501  503 -0.00000000000E+00 -0.00000000000E+00 -0.13402079103E+04  0.13402079103E+04  0.00000000000E+00 0. -1.
          6    2    1    2  501    0 -0.31528674793E+03  0.93972227750E+02 -0.10465514677E+04  0.11100535534E+04  0.16944734798E+03 0.  0.
         24    2    3    3    0    0 -0.23908702849E+03  0.91770914798E+02 -0.95311400974E+03  0.98937260385E+03  0.69622738386E+02 0.  0.
         -6    2    1    2    0  502  0.31528674793E+03 -0.93972227750E+02 -0.13037910061E+03  0.39343169896E+03  0.17191067118E+03 0.  0.
        -24    2    5    5    0    0  0.18020080271E+03 -0.34379505118E+02 -0.14265884697E+03  0.24520084065E+03  0.78215254041E+02 0.  0.
          5    1    3    3  501    0 -0.76199719438E+02  0.22013129519E+01 -0.93437458000E+02  0.12068094953E+03  0.47000000000E+01 0. -1.
        -11    1    4    4    0    0 -0.19723902897E+03  0.77193395964E+02 -0.66628976776E+03  0.69914527071E+03  0.00000000000E+00 0.  1.
         12    1    4    4    0    0 -0.41847999523E+02  0.14577518834E+02 -0.28682424198E+03  0.29022733314E+03  0.00000000000E+00 0. -1.
         -5    1    5    5    0  502  0.13508594522E+03 -0.59592722632E+02  0.12279746365E+02  0.14823085832E+03  0.47000000000E+01 0.  1.
         13    1    6    6    0    0  0.31830609263E+02 -0.36615824116E+02 -0.19228590981E+02  0.52188552125E+02  0.00000000000E+00 0. -1.
        -14    1    6    6    0    0  0.14837019345E+03  0.22363189986E+01 -0.12343025599E+03  0.19301228852E+03  0.00000000000E+00 0.  1.
</event>
<event>
12    1  0.9966151E-001  0.1896120E+03  0.7818608E-02  0.1158885E+00
         21   -1    0    0  503  502  0.00000000000E+00  0.00000000000E+00  0.14018285455E+03  0.14018285455E+03  0.00000000000E+00 0.  1.
         21   -1    0    0  501  503 -0.00000000000E+00 -0.00000000000E+00 -0.31871882937E+03  0.31871882937E+03  0.00000000000E+00 0.  1.
          6    2    1    2  501    0 -0.76076694788E+02 -0.72729291263E+01  0.12429207471E+02  0.19001892402E+03  0.17352852013E+03 0.  0.
         24    2    3    3    0    0 -0.10216883222E+03  0.14649996184E+02 -0.31645655888E+02  0.13410740579E+03  0.79562906475E+02 0.  0.
         -6    2    1    2    0  502  0.76076694788E+02  0.72729291263E+01 -0.19096518230E+03  0.26888275991E+03  0.17317528327E+03 0.  0.
        -24    2    5    5    0    0  0.28606489300E+02  0.69415281676E+01 -0.14970439174E+02  0.86537565721E+02  0.79988250315E+02 0.  0.
          5    1    3    3  501    0  0.26092137432E+02 -0.21922925310E+02  0.44074863359E+02  0.55911518223E+02  0.47000000000E+01 0. -1.
        -11    1    4    4    0    0 -0.10340131013E+02  0.34790894274E+02 -0.79445372352E+01  0.37154277084E+02  0.00000000000E+00 0.  1.
         12    1    4    4    0    0 -0.91828701207E+02 -0.20140898090E+02 -0.23701118653E+02  0.96953128710E+02  0.00000000000E+00 0. -1.
         -5    1    5    5    0  502  0.47470205489E+02  0.33140095868E+00 -0.17599474312E+03  0.18234519419E+03  0.47000000000E+01 0.  1.
         11    1    6    6    0    0  0.39357339604E+02 -0.13879690629E+00 -0.41410605895E+02  0.57130182266E+02  0.00000000000E+00 0. -1.
        -12    1    6    6    0    0 -0.10750850304E+02  0.70803250739E+01  0.26440166721E+02  0.29407383454E+02  0.00000000000E+00 0.  1.
</event>
<event>
12    1  0.9966151E-001  0.4179009E+03  0.7818608E-02  0.1037786E+00
         21   -1    0    0  501  502  0.00000000000E+00  0.00000000000E+00  0.29259894255E+03  0.29259894255E+03  0.00000000000E+00 0. -1.
         21   -1    0    0  502  503 -0.00000000000E+00 -0.00000000000E+00 -0.59696020492E+03  0.59696020492E+03  0.00000000000E+00 0. -1.
         -6    2    1    2    0  503 -0.37999433680E+03  0.13013294183E+02 -0.13696669352E+03  0.43937904697E+03  0.17242108328E+03 0.  0.
        -24    2    3    3    0    0 -0.23923476099E+03 -0.56312893397E+02 -0.65284801769E+02  0.26681090950E+03  0.80756072569E+02 0.  0.
          6    2    1    2  501    0  0.37999433680E+03 -0.13013294183E+02 -0.16739456885E+03  0.45018010050E+03  0.17342473693E+03 0.  0.
         24    2    5    5    0    0  0.33215260250E+03 -0.57256276532E+02 -0.11095675237E+03  0.36384592328E+03  0.80428990045E+02 0.  0.
          5    1    5    5  501    0  0.47841734302E+02  0.44242982350E+02 -0.56437816476E+02  0.86334177223E+02  0.47000000000E+01 0. -1.
        -13    1    6    6    0    0  0.12567330031E+03  0.82256611086E+01 -0.67592042011E+02  0.14293398495E+03  0.00000000000E+00 0.  1.
         14    1    6    6    0    0  0.20647930219E+03 -0.65481937641E+02 -0.43364710363E+02  0.22091193832E+03  0.00000000000E+00 0. -1.
         -5    1    3    3    0  503 -0.14075957581E+03  0.69326187580E+02 -0.71681891750E+02  0.17256813748E+03  0.47000000000E+01 0.  1.
         13    1    4    4    0    0 -0.12679353507E+03 -0.44966988232E+02 -0.73861680605E+02  0.15347370598E+03  0.00000000000E+00 0. -1.
        -14    1    4    4    0    0 -0.11244122591E+03 -0.11345905166E+02  0.85768788364E+01  0.11333720351E+03  0.00000000000E+00 0.  1.
</event>
<event>
12    1  0.9966151E-001  0.2673001E+03  0.7818608E-02  0.1104603E+00
         21   -1    0    0  503  502  0.00000000000E+00  0.00000000000E+00  0.39599145600E+03  0.39599145600E+03  0.00000000000E+00 0. -1.
         21   -1    0    0  501  503 -0.00000000000E+00 -0.00000000000E+00 -0.18586694538E+03  0.18586694538E+03  0.00000000000E+00 0. -1.
          6    2    1    2  501    0  0.12014370158E+03  0.14530392533E+03  0.18088930575E+03  0.31296431264E+03  0.17227298194E+03 0.  0.
         24    2    3    3    0    0  0.11401406442E+03  0.11068212640E+03  0.20385411904E+03  0.27070660255E+03  0.80472497321E+02 0.  0.
         -6    2    1    2    0  502 -0.12014370158E+03 -0.14530392533E+03  0.29235204876E+02  0.26889408874E+03  0.18947715959E+03 0.  0.
        -24    2    5    5    0    0 -0.11431223413E+03 -0.34613236388E+02  0.56440542072E+02  0.15466337919E+03  0.80435459025E+02 0.  0.
          5    1    3    3  501    0  0.61296371611E+01  0.34621798925E+02 -0.22964813288E+02  0.42257710088E+02  0.47000000000E+01 0. -1.
        -11    1    4    4    0    0  0.94507605971E+02  0.40042161013E+02  0.97637119240E+02  0.14166181313E+03  0.00000000000E+00 0.  1.
         12    1    4    4    0    0  0.19506458452E+02  0.70639965391E+02  0.10621699980E+03  0.12904478942E+03  0.00000000000E+00 0. -1.
         -5    1    5    5    0  502 -0.58314674508E+01 -0.11069068894E+03 -0.27205337196E+02  0.11423070954E+03  0.47000000000E+01 0.  1.
         13    1    6    6    0    0 -0.51639495726E+01  0.14109470294E+00 -0.17551608688E+02  0.18296044667E+02  0.00000000000E+00 0. -1.
        -14    1    6    6    0    0 -0.10914828456E+03 -0.34754331091E+02  0.73992150760E+02  0.13636733453E+03  0.00000000000E+00 0.  1.
</event>
<event>
12    1  0.9966151E-001  0.1841263E+03  0.7818608E-02  0.1164385E+00
         21   -1    0    0  503  502  0.00000000000E+00  0.00000000000E+00  0.23230508314E+03  0.23230508314E+03  0.00000000000E+00 0.  1.
         21   -1    0    0  501  503 -0.00000000000E+00 -0.00000000000E+00 -0.16694372218E+03  0.16694372218E+03  0.00000000000E+00 0.  1.
          6    2    1    2  501    0  0.56943949980E+02 -0.20736426082E+02 -0.41145845813E+02  0.18653707302E+03  0.17155315846E+03 0.  0.
         24    2    3    3    0    0  0.63578494205E+02 -0.65618098379E+02  0.29138418688E+01  0.12311997940E+03  0.82474717898E+02 0.  0.
         -6    2    1    2    0  502 -0.56943949980E+02  0.20736426082E+02  0.10650720677E+03  0.21271173230E+03  0.17386742983E+03 0.  0.
        -24    2    5    5    0    0  0.15616994164E+02  0.48704997197E+02  0.95870516124E+02  0.13408247074E+03  0.78554986086E+02 0.  0.
          5    1    3    3  501    0 -0.66345442251E+01  0.44881672296E+02 -0.44059687682E+02  0.63417093625E+02  0.47000000000E+01 0. -1.
        -13    1    4    4    0    0  0.23317820810E+02 -0.29849744875E+02 -0.39382526426E+02  0.54641663812E+02  0.00000000000E+00 0.  1.
         14    1    4    4    0    0  0.40260673395E+02 -0.35768353503E+02  0.42296368295E+02  0.68478315586E+02  0.00000000000E+00 0. -1.
         -5    1    5    5    0  502 -0.72560944144E+02 -0.27968571115E+02  0.10636690649E+02  0.78629261559E+02  0.47000000000E+01 0.  1.
         11    1    6    6    0    0 -0.19345951419E+02 -0.74816015484E+01  0.44338324334E+01  0.21210824314E+02  0.00000000000E+00 0. -1.
        -12    1    6    6    0    0  0.34962945583E+02  0.56186598746E+02  0.91436683691E+02  0.11287164643E+03  0.00000000000E+00 0.  1.
</event>
<event>
12    1  0.9966151E-001  0.1902142E+03  0.7818608E-02  0.1158430E+00
         21   -1    0    0  501  502  0.00000000000E+00  0.00000000000E+00  0.49495164986E+03  0.49495164986E+03  0.00000000000E+00 0. -1.
         21   -1    0    0  502  503 -0.00000000000E+00 -0.00000000000E+00 -0.73706762741E+02  0.73706762741E+02  0.00000000000E+00 0. -1.
         -6    2    1    2    0  503  0.59850957352E+02 -0.54951383431E+02  0.24132801019E+03  0.30683492626E+03  0.17119191521E+03 0.  0.
        -24    2    3    3    0    0  0.98616879669E+02 -0.65211467441E+01  0.15580928229E+03  0.20108130986E+03  0.79933387384E+02 0.  0.
          6    2    1    2  501    0 -0.59850957352E+02  0.54951383431E+02  0.17991687693E+03  0.26182348635E+03  0.17198739419E+03 0.  0.
         24    2    5    5    0    0  0.12849355468E+02  0.68637320876E+02  0.58323743940E+02  0.11941695434E+03  0.77347024009E+02 0.  0.
          5    1    5    5  501    0 -0.72700312820E+02 -0.13685937444E+02  0.12159313299E+03  0.14240653201E+03  0.47000000000E+01 0. -1.
        -11    1    6    6    0    0  0.31780503383E+02  0.36382670451E+02  0.65446763564E+02  0.81344809087E+02  0.00000000000E+00 0.  1.
         12    1    6    6    0    0 -0.18931147915E+02  0.32254650425E+02 -0.71230196239E+01  0.38072145250E+02  0.00000000000E+00 0. -1.
         -5    1    3    3    0  503 -0.38765922317E+02 -0.48430236687E+02  0.85518727904E+02  0.10575361640E+03  0.47000000000E+01 0.  1.
         13    1    4    4    0    0  0.39541015942E+02  0.12490789327E+02  0.12519028239E+03  0.13187918169E+03  0.00000000000E+00 0. -1.
        -14    1    4    4    0    0  0.59075863727E+02 -0.19011936071E+02  0.30618999898E+02  0.69202128168E+02  0.00000000000E+00 0.  1.
</event>
<event>
12    1  0.9966151E-001  0.2610077E+03  0.7818608E-02  0.1106612E+00
         21   -1    0    0  503  502  0.00000000000E+00  0.00000000000E+00  0.32874945341E+03  0.32874945341E+03  0.00000000000E+00 0. -1.
         21   -1    0    0  501  503 -0.00000000000E+00 -0.00000000000E+00 -0.48983215545E+03  0.48983215545E+03  0.00000000000E+00 0. -1.
          6    2    1    2  501    0 -0.10612391746E+02 -0.19692582690E+03 -0.39167012486E+03  0.47067027579E+03  0.17097548842E+03 0.  0.
         24    2    3    3    0    0 -0.32605072159E+01 -0.17120612738E+03 -0.18868346134E+03  0.26587469791E+03  0.75932453183E+02 0.  0.
         -6    2    1    2    0  502  0.10612391746E+02  0.19692582690E+03  0.23058742281E+03  0.34791133307E+03  0.17023316939E+03 0.  0.
        -24    2    5    5    0    0 -0.31934271487E+02  0.13333508138E+03  0.76845622919E+02  0.17611892200E+03  0.79464352395E+02 0.  0.
          5    1    3    3  501    0 -0.73518845302E+01 -0.25719699522E+02 -0.20298666352E+03  0.20479557788E+03  0.47000000000E+01 0. -1.
        -11    1    4    4    0    0  0.33197782405E+02 -0.88877591796E+02 -0.75530187828E+02  0.12126882680E+03  0.00000000000E+00 0.  1.
         12    1    4    4    0    0 -0.36458289621E+02 -0.82328535584E+02 -0.11315327351E+03  0.14460587111E+03  0.00000000000E+00 0. -1.
         -5    1    5    5    0  502  0.42546663233E+02  0.63590745519E+02  0.15374179989E+03  0.17179241107E+03  0.47000000000E+01 0.  1.
         11    1    6    6    0    0 -0.10748655726E+02 -0.35824293545E+01  0.26305459971E+02  0.28641658896E+02  0.00000000000E+00 0. -1.
        -12    1    6    6    0    0 -0.21185615762E+02  0.13691751074E+03  0.50540162948E+02  0.14747726310E+03  0.00000000000E+00 0.  1.
</event>
<event>
12    1  0.9966151E-001  0.2066795E+03  0.7818608E-02  0.1144753E+00
         21   -1    0    0  501  502  0.00000000000E+00  0.00000000000E+00  0.59635887743E+02  0.59635887743E+02  0.00000000000E+00 0. -1.
         21   -1    0    0  502  503 -0.00000000000E+00 -0.00000000000E+00 -0.79378570077E+03  0.79378570077E+03  0.00000000000E+00 0. -1.
         -6    2    1    2    0  503 -0.46995919814E+02 -0.10412609335E+03 -0.22828907594E+03  0.30794853062E+03  0.17223685878E+03 0.  0.
        -24    2    3    3    0    0  0.71258302804E+01 -0.11801632265E+03 -0.12146239796E+03  0.18729973688E+03  0.79683420148E+02 0.  0.
          6    2    1    2  501    0  0.46995919814E+02  0.10412609335E+03 -0.50586073709E+03  0.54547305789E+03  0.16910030089E+03 0.  0.
         24    2    5    5    0    0  0.95845281678E+02  0.86653155644E+02 -0.36949706186E+03  0.39949804076E+03  0.79846843645E+02 0.  0.
          5    1    5    5  501    0 -0.48849361864E+02  0.17472937703E+02 -0.13636367522E+03  0.14597501713E+03  0.47000000000E+01 0. -1.
        -11    1    6    6    0    0  0.79777395141E+02  0.24065267228E+02 -0.16203357045E+03  0.18220441218E+03  0.00000000000E+00 0.  1.
         12    1    6    6    0    0  0.16067886537E+02  0.62587888416E+02 -0.20746349141E+03  0.21729362858E+03  0.00000000000E+00 0. -1.
         -5    1    3    3    0  503 -0.54121750095E+02  0.13890229306E+02 -0.10682667798E+03  0.12064879374E+03  0.47000000000E+01 0.  1.
         13    1    4    4    0    0  0.34966659950E+02 -0.48948229257E+02 -0.85660225503E+02  0.10467220590E+03  0.00000000000E+00 0. -1.
        -14    1    4    4    0    0 -0.27840829670E+02 -0.69068093397E+02 -0.35802172453E+02  0.82627530972E+02  0.00000000000E+00 0.  1.
</event>
<event>
12    1  0.1073897E+000  0.2973927E+03  0.7818608E-02  0.1086669E+00
         21   -1    0    0  501  502  0.00000000000E+00  0.00000000000E+00  0.25619307904E+03  0.25619307904E+03  0.00000000000E+00 0. -1.
         21   -1    0    0  502  503 -0.00000000000E+00 -0.00000000000E+00 -0.49448999705E+03  0.49448999705E+03  0.00000000000E+00 0. -1.
         -6    2    1    2    0  503 -0.24163122906E+03 -0.34888826086E+01  0.87690018236E+02  0.31005149881E+03  0.17333369395E+03 0.  0.
        -24    2    3    3    0    0 -0.11714199343E+03  0.59091080449E+02  0.72523501821E+02  0.16981621515E+03  0.79773969420E+02 0.  0.
          6    2    1    2  501    0  0.24163122906E+03  0.34888826086E+01 -0.32598693625E+03  0.44063157728E+03  0.17172909227E+03 0.  0.
         24    2    5    5    0    0  0.22109910531E+03 -0.23177882557E+02 -0.33065442429E+03  0.40633055813E+03  0.79687800559E+02 0.  0.
          5    1    5    5  501    0  0.20532123746E+02  0.26666765166E+02  0.46674880440E+01  0.34301019147E+02  0.47000000000E+01 0. -1.
        -11    1    6    6    0    0  0.94400774639E+02 -0.80900521751E+01 -0.75861163127E+02  0.12137492026E+03  0.00000000000E+00 0.  1.
         12    1    6    6    0    0  0.12669833067E+03 -0.15087830382E+02 -0.25479326116E+03  0.28495563787E+03  0.00000000000E+00 0. -1.
         -5    1    3    3    0  503 -0.12448923563E+03 -0.62579963058E+02  0.15166516416E+02  0.14023528366E+03  0.47000000000E+01 0.  1.
         11    1    4    4    0    0  0.59758667588E+01 -0.96505486588E+01  0.11535471569E+02  0.16183670080E+02  0.00000000000E+00 0. -1.
        -12    1    4    4    0    0 -0.12311786019E+03  0.68741629108E+02  0.60988030252E+02  0.15363254507E+03  0.00000000000E+00 0.  1.
</event>
<event>
12    1  0.9966151E-001  0.1724997E+03  0.7818608E-02  0.1175277E+00
         21   -1    0    0  503  502  0.00000000000E+00  0.00000000000E+00  0.89911117543E+02  0.89911117543E+02  0.00000000000E+00 0.  1.
         21   -1    0    0  501  503 -0.00000000000E+00 -0.00000000000E+00 -0.50187387299E+03  0.50187387299E+03  0.00000000000E+00 0.  1.
          6    2    1    2  501    0 -0.95084830233E+01  0.48796723113E+01 -0.33278817560E+02  0.17568044882E+03  0.17216828381E+03 0.  0.
         24    2    3    3    0    0 -0.13402058817E+02  0.10183854897E+02  0.47834929293E+02  0.94164657629E+02  0.79344036983E+02 0.  0.
         -6    2    1    2    0  502  0.95084830233E+01 -0.48796723113E+01 -0.37868393789E+03  0.41610454171E+03  0.17212565866E+03 0.  0.
        -24    2    5    5    0    0 -0.16127530358E+02 -0.54568815603E+02 -0.13743143855E+03  0.16841305098E+03  0.78979127418E+02 0.  0.
          5    1    3    3  501    0  0.38935757939E+01 -0.53041825854E+01 -0.81113746853E+02  0.81515791194E+02  0.47000000000E+01 0. -1.
        -11    1    4    4    0    0  0.20747773559E+02  0.13224269162E+02  0.53989770348E+02  0.59331666964E+02  0.00000000000E+00 0.  1.
         12    1    4    4    0    0 -0.34149832376E+02 -0.30404142652E+01 -0.61548410546E+01  0.34832990665E+02  0.00000000000E+00 0. -1.
         -5    1    5    5    0  502  0.25636013381E+02  0.49689143292E+02 -0.24125249934E+03  0.24769149073E+03  0.47000000000E+01 0.  1.
         13    1    6    6    0    0  0.27537384947E+02 -0.11284035399E+02 -0.75461882449E+02  0.81118017279E+02  0.00000000000E+00 0. -1.
        -14    1    6    6    0    0 -0.43664915305E+02 -0.43284780204E+02 -0.61969556101E+02  0.87295033703E+02  0.00000000000E+00 0.  1.
</event>
<event>
12    1  0.9966151E-001  0.1821982E+03  0.7818608E-02  0.1166134E+00
         21   -1    0    0  501  502  0.00000000000E+00  0.00000000000E+00  0.81583318197E+03  0.81583318197E+03  0.00000000000E+00 0. -1.
         21   -1    0    0  502  503 -0.00000000000E+00 -0.00000000000E+00 -0.43605883393E+02  0.43605883393E+02  0.00000000000E+00 0. -1.
         -6    2    1    2    0  503  0.39077299896E+02  0.39131047589E+02  0.26923825724E+03  0.32509295450E+03  0.17360275243E+03 0.  0.
        -24    2    3    3    0    0 -0.31922986842E+00  0.93122501774E+01  0.26289836050E+03  0.27505765169E+03  0.80338931344E+02 0.  0.
          6    2    1    2  501    0 -0.39077299896E+02 -0.39131047589E+02  0.50298904134E+03  0.53434611086E+03  0.17166687576E+03 0.  0.
         24    2    5    5    0    0 -0.61545900184E+02  0.30240126377E+02  0.26206274056E+03  0.28258278910E+03  0.80459863504E+02 0.  0.
          5    1    5    5  501    0  0.22468600288E+02 -0.69371173966E+02  0.24092630078E+03  0.25176332176E+03  0.47000000000E+01 0. -1.
        -13    1    6    6    0    0 -0.23297045406E+02 -0.23485846888E+02  0.45868475418E+02  0.56553111018E+02  0.00000000000E+00 0.  1.
         14    1    6    6    0    0 -0.38248854778E+02  0.53725973264E+02  0.21619426514E+03  0.22602967809E+03  0.00000000000E+00 0. -1.
         -5    1    3    3    0  503  0.39396529764E+02  0.29818797412E+02  0.63398967381E+01  0.50035302809E+02  0.47000000000E+01 0.  1.
         13    1    4    4    0    0 -0.15822883725E+02  0.39475111679E+02  0.10001990948E+03  0.10868592542E+03  0.00000000000E+00 0. -1.
        -14    1    4    4    0    0  0.15503653857E+02 -0.30162861502E+02  0.16287845102E+03  0.16637172627E+03  0.00000000000E+00 0.  1.
</event>
<event>
12    1  0.9966151E-001  0.2422050E+03  0.7818608E-02  0.1120221E+00
         21   -1    0    0  503  502  0.00000000000E+00  0.00000000000E+00  0.11525527648E+04  0.11525527648E+04  0.00000000000E+00 0.  1.
         21   -1    0    0  501  503 -0.00000000000E+00 -0.00000000000E+00 -0.48809631485E+02  0.48809631485E+02  0.00000000000E+00 0.  1.
          6    2    1    2  501    0  0.13646729335E+03 -0.71449252161E+02  0.60651652782E+03  0.65308922651E+03  0.18690885874E+03 0.  0.
         24    2    3    3    0    0  0.17444484178E+03 -0.61864577741E+02  0.52468009342E+03  0.56224071433E+03  0.81038210881E+02 0.  0.
         -6    2    1    2    0  502 -0.13646729335E+03  0.71449252161E+02  0.49722660549E+03  0.54827316977E+03  0.17216519304E+03 0.  0.
        -24    2    5    5    0    0 -0.48319630175E+02  0.81213591411E+02  0.39215398133E+03  0.41069519482E+03  0.77171004169E+02 0.  0.
          5    1    3    3  501    0 -0.37977548434E+02 -0.95846744195E+01  0.81836434400E+02  0.90848512173E+02  0.47000000000E+01 0. -1.
        -13    1    4    4    0    0  0.21723948725E+02  0.12202774729E+02  0.13377870839E+03  0.13607931687E+03  0.00000000000E+00 0.  1.
         14    1    4    4    0    0  0.15272089306E+03 -0.74067352470E+02  0.39090138502E+03  0.42616139747E+03  0.00000000000E+00 0. -1.
         -5    1    5    5    0  502 -0.88147663173E+02 -0.97643392503E+01  0.10507262417E+03  0.13757797496E+03  0.47000000000E+01 0.  1.
         11    1    6    6    0    0  0.94456932450E+01  0.10459430184E+02  0.16878569742E+03  0.16937305705E+03  0.00000000000E+00 0. -1.
        -12    1    6    6    0    0 -0.57765323420E+02  0.70754161227E+02  0.22336828390E+03  0.24132213776E+03  0.00000000000E+00 0.  1.
</event>
<event>
12    1  0.9966151E-001  0.2187826E+03  0.7818608E-02  0.1134974E+00
         21   -1    0    0  501  502  0.00000000000E+00  0.00000000000E+00  0.10444762805E+04  0.10444762805E+04  0.00000000000E+00 0. -1.
         21   -1    0    0  502  503 -0.00000000000E+00 -0.00000000000E+00 -0.45682617023E+02  0.45682617023E+02  0.00000000000E+00 0. -1.
         -6    2    1    2    0  503 -0.96182092191E+02 -0.92981770722E+02  0.47929953026E+03  0.52647461716E+03  0.17190368890E+03 0.  0.
        -24    2    3    3    0    0 -0.12584439997E+02 -0.70908481604E+02  0.37858403292E+03  0.39365331258E+03  0.80316123103E+02 0.  0.
          6    2    1    2  501    0  0.96182092191E+02  0.92981770722E+02  0.51949413324E+03  0.56368428039E+03  0.17311617181E+03 0.  0.
         24    2    5    5    0    0  0.12391411507E+03  0.51235247670E+02  0.29581375073E+03  0.33440968346E+03  0.79651131503E+02 0.  0.
          5    1    5    5  501    0 -0.27732022882E+02  0.41746523052E+02  0.22368038250E+03  0.22927459693E+03  0.47000000000E+01 0. -1.
        -11    1    6    6    0    0  0.91175038863E+02  0.72800961761E+02  0.21657821357E+03  0.24600607785E+03  0.00000000000E+00 0.  1.
         12    1    6    6    0    0  0.32739076210E+02 -0.21565714091E+02  0.79235537168E+02  0.88403605615E+02  0.00000000000E+00 0. -1.
         -5    1    3    3    0  503 -0.83597652194E+02 -0.22073289118E+02  0.10071549734E+03  0.13282130458E+03  0.47000000000E+01 0.  1.
         13    1    4    4    0    0  0.22787933528E+02 -0.25563392539E+02  0.53502505687E+02  0.63523972384E+02  0.00000000000E+00 0. -1.
        -14    1    4    4    0    0 -0.35372373525E+02 -0.45345089065E+02  0.32508152723E+03  0.33012934019E+03  0.00000000000E+00 0.  1.
</event>
<event>
12    1  0.9966151E-001  0.2830651E+03  0.7818608E-02  0.1095524E+00
         21   -1    0    0  503  502  0.00000000000E+00  0.00000000000E+00  0.20131069559E+03  0.20131069559E+03  0.00000000000E+00 0. -1.
         21   -1    0    0  501  503 -0.00000000000E+00 -0.00000000000E+00 -0.46201508197E+03  0.46201508197E+03  0.00000000000E+00 0. -1.
          6    2    1    2  501    0  0.20869141899E+03 -0.87262651287E+02 -0.26973617511E+03  0.39100310940E+03  0.17017329029E+03 0.  0.
         24    2    3    3    0    0  0.16382635238E+03 -0.76255233708E+02 -0.11370462416E+03  0.22820884557E+03  0.80601496508E+02 0.  0.
         -6    2    1    2    0  502 -0.20869141899E+03  0.87262651287E+02  0.90317887244E+01  0.27232266817E+03  0.15136440705E+03 0.  0.
        -24    2    5    5    0    0 -0.89268865076E+02  0.73291065083E+02  0.41195309043E+02  0.14776933163E+03  0.82451266758E+02 0.  0.
          5    1    3    3  501    0  0.44865066605E+02 -0.11007417578E+02 -0.15603155095E+03  0.16279426383E+03  0.47000000000E+01 0. -1.
        -11    1    4    4    0    0  0.82553819406E+02 -0.67096809536E+02 -0.98580535882E+02  0.14503529572E+03  0.00000000000E+00 0.  1.
         12    1    4    4    0    0  0.81272532974E+02 -0.91584241726E+01 -0.15124088277E+02  0.83173549856E+02  0.00000000000E+00 0. -1.
         -5    1    5    5    0  502 -0.11942255391E+03  0.13971586203E+02 -0.32163520319E+02  0.12455333654E+03  0.47000000000E+01 0.  1.
         11    1    6    6    0    0 -0.97162679224E+02  0.38040655458E+02  0.39615908693E+02  0.11161137004E+03  0.00000000000E+00 0. -1.
        -12    1    6    6    0    0  0.78938141472E+01  0.35250409625E+02  0.15794003497E+01  0.36157961585E+02  0.00000000000E+00 0.  1.
</event>
<event>
12    1  0.9966151E-001  0.2982827E+03  0.7818608E-02  0.1086173E+00
         21   -1    0    0  501  502  0.00000000000E+00  0.00000000000E+00  0.89966423463E+02  0.89966423463E+02  0.00000000000E+00 0. -1.
         21   -1    0    0  502  503 -0.00000000000E+00 -0.00000000000E+00 -0.10422853942E+04  0.10422853942E+04  0.00000000000E+00 0. -1.
         -6    2    1    2    0  503 -0.14091931406E+03 -0.19830195073E+03 -0.34547648877E+03  0.45606369598E+03  0.17163383630E+03 0.  0.
        -24    2    3    3    0    0 -0.10406914721E+03 -0.44112922893E+02 -0.20349869898E+03  0.24319760217E+03  0.70406078192E+02 0.  0.
          6    2    1    2  501    0  0.14091931406E+03  0.19830195073E+03 -0.60684248192E+03  0.67618812164E+03  0.17259971390E+03 0.  0.
         24    2    5    5    0    0  0.13402854280E+03  0.11819098186E+03 -0.29384114393E+03  0.35298976513E+03  0.79538656924E+02 0.  0.
          5    1    5    5  501    0  0.68907712654E+01  0.80110968866E+02 -0.31300133800E+03  0.32319835651E+03  0.47000000000E+01 0. -1.
        -11    1    6    6    0    0  0.11321142768E+03  0.52555498519E+02 -0.16486155528E+03  0.20678065720E+03  0.00000000000E+00 0.  1.
         12    1    6    6    0    0  0.20817115120E+02  0.65635483344E+02 -0.12897958865E+03  0.14620910793E+03  0.00000000000E+00 0. -1.
         -5    1    3    3    0  503 -0.36850166849E+02 -0.15418902784E+03 -0.14197778979E+03  0.21286609382E+03  0.47000000000E+01 0.  1.
         11    1    4    4    0    0 -0.46340877003E+02 -0.29453506217E+02 -0.36598052741E+02  0.65987903242E+02  0.00000000000E+00 0. -1.
        -12    1    4    4    0    0 -0.57728270209E+02 -0.14659416676E+02 -0.16690064624E+03  0.17720969892E+03  0.00000000000E+00 0.  1.
</event>
<event>
12    1  0.9966151E-001  0.2155733E+03  0.7818608E-02  0.1137857E+00
         21   -1    0    0  501  502  0.00000000000E+00  0.00000000000E+00  0.26656978562E+03  0.26656978562E+03  0.00000000000E+00 0.  1.
         21   -1    0    0  502  503 -0.00000000000E+00 -0.00000000000E+00 -0.57865659337E+03  0.57865659337E+03  0.00000000000E+00 0.  1.
         -6    2    1    2    0  503 -0.12339700815E+03 -0.17749038689E+02  0.19800975701E+03  0.29271099978E+03  0.17586931377E+03 0.  0.
        -24    2    3    3    0    0 -0.51109458768E+02  0.19900533750E+02  0.18735853234E+03  0.21037923989E+03  0.78409163466E+02 0.  0.
          6    2    1    2  501    0  0.12339700815E+03  0.17749038689E+02 -0.51009656475E+03  0.55251537921E+03  0.17185135698E+03 0.  0.
         24    2    5    5    0    0  0.70168665284E+01 -0.18304126608E+02 -0.28150846169E+03  0.29344245713E+03  0.80480955374E+02 0.  0.
          5    1    5    5  501    0  0.11638014162E+03  0.36053165296E+02 -0.22858810307E+03  0.25907292208E+03  0.47000000000E+01 0. -1.
        -13    1    6    6    0    0 -0.11409339154E+02 -0.30968341167E+02 -0.44609395632E+02  0.55490624012E+02  0.00000000000E+00 0.  1.
         14    1    6    6    0    0  0.18426205682E+02  0.12664214559E+02 -0.23689906605E+03  0.23795183312E+03  0.00000000000E+00 0. -1.
         -5    1    3    3    0  503 -0.72287549380E+02 -0.37649572438E+02  0.10651224670E+02  0.82331759893E+02  0.47000000000E+01 0.  1.
         13    1    4    4    0    0 -0.49054540323E+02  0.46551238901E+02  0.14897019722E+03  0.16360160582E+03  0.00000000000E+00 0. -1.
        -14    1    4    4    0    0 -0.20549184451E+01 -0.26650705152E+02  0.38388335124E+02  0.46777634062E+02  0.00000000000E+00 0.  1.
</event>
<event>
12    1  0.9966151E-001  0.2404472E+03  0.7818608E-02  0.1119533E+00
         21   -1    0    0  501  502  0.00000000000E+00  0.00000000000E+00  0.35205509680E+03  0.35205509680E+03  0.00000000000E+00 0. -1.
         21   -1    0    0  502  503 -0.00000000000E+00 -0.00000000000E+00 -0.17990302486E+03  0.17990302486E+03  0.00000000000E+00 0. -1.
         -6    2    1    2    0  503 -0.49062470662E+02  0.16082620499E+03  0.16502891831E+03  0.29163234368E+03  0.17187985852E+03 0.  0.
        -24    2    3    3    0    0  0.34362132283E+02  0.46476274486E+02  0.66611154297E+02  0.11916867431E+03  0.80145660106E+02 0.  0.
          6    2    1    2  501    0  0.49062470662E+02 -0.16082620499E+03  0.71231536398E+01  0.24032577797E+03  0.17156207623E+03 0.  0.
         24    2    5    5    0    0  0.74758894454E+02 -0.17308996531E+03  0.24779595266E+02  0.20649463930E+03  0.80479682692E+02 0.  0.
          5    1    5    5  501    0 -0.25696423792E+02  0.12263760320E+02 -0.17656441626E+02  0.33831138671E+02  0.47000000000E+01 0. -1.
        -13    1    6    6    0    0  0.99301623440E+01 -0.28581989344E+02 -0.26287441813E+02  0.40082013873E+02  0.00000000000E+00 0.  1.
         14    1    6    6    0    0  0.64828732110E+02 -0.14450797597E+03  0.51067037079E+02  0.16641262543E+03  0.00000000000E+00 0. -1.
         -5    1    3    3    0  503 -0.83424602945E+02  0.11434993051E+03  0.98417764009E+02  0.17246366938E+03  0.47000000000E+01 0.  1.
         13    1    4    4    0    0  0.26530167530E+02 -0.25201614958E+01 -0.95170057521E+01  0.28297957552E+02  0.00000000000E+00 0. -1.
        -14    1    4    4    0    0  0.78319647534E+01  0.48996435982E+02  0.76128160049E+02  0.90870716753E+02  0.00000000000E+00 0.  1.
</event>
<event>
12    1  0.9966151E-001  0.2438567E+03  0.7818608E-02  0.1117323E+00
         21   -1    0    0  503  502  0.00000000000E+00  0.00000000000E+00  0.27598451295E+03  0.27598451295E+03  0.00000000000E+00 0.  1.
         21   -1    0    0  501  503 -0.00000000000E+00 -0.00000000000E+00 -0.22359954677E+03  0.22359954677E+03  0.00000000000E+00 0.  1.
          6    2    1    2  501    0  0.15859786918E+03  0.65324410143E+02 -0.22600029484E+02  0.24445890815E+03  0.17271025961E+03 0.  0.
         24    2    3    3    0    0  0.11541336040E+03  0.93441748985E+02  0.27471428767E+02  0.17245385643E+03  0.83270937234E+02 0.  0.
         -6    2    1    2    0  502 -0.15859786918E+03 -0.65324410143E+02  0.74984995670E+02  0.25512515157E+03  0.17333646678E+03 0.  0.
        -24    2    5    5    0    0 -0.13656716653E+03 -0.79879019762E+02  0.19210098786E+01  0.17729440867E+03  0.79989801188E+02 0.  0.
          5    1    3    3  501    0  0.43184508782E+02 -0.28117338842E+02 -0.50071458251E+02  0.72005051723E+02  0.47000000000E+01 0. -1.
        -11    1    4    4    0    0  0.71731179626E+01  0.28624571342E+02 -0.22134583270E+02  0.36888473570E+02  0.00000000000E+00 0.  1.
         12    1    4    4    0    0  0.10824024244E+03  0.64817177643E+02  0.49606012037E+02  0.13556538286E+03  0.00000000000E+00 0. -1.
         -5    1    5    5    0  502 -0.22030702652E+02  0.14554609619E+02  0.73063985792E+02  0.77830742899E+02  0.47000000000E+01 0.  1.
         13    1    6    6    0    0 -0.75344737608E+02 -0.27049524237E+02  0.38157032213E+02  0.88681820876E+02  0.00000000000E+00 0. -1.
        -14    1    6    6    0    0 -0.61222428921E+02 -0.52829495525E+02 -0.36236022335E+02  0.88612587791E+02  0.00000000000E+00 0.  1.
</event>
<event>
12    1  0.9966151E-001  0.2915951E+03  0.7818608E-02  0.1089934E+00
         21   -1    0    0  501  502  0.00000000000E+00  0.00000000000E+00  0.33492914078E+03  0.33492914078E+03  0.00000000000E+00 0. -1.
         21   -1    0    0  502  503 -0.00000000000E+00 -0.00000000000E+00 -0.26749667219E+03  0.26749667219E+03  0.00000000000E+00 0. -1.
         -6    2    1    2    0  503  0.13929785271E+03 -0.18565696266E+03  0.10844687108E+03  0.31110839250E+03  0.17650866404E+03 0.  0.
        -24    2    3    3    0    0  0.16409193578E+02 -0.52594546327E+02 -0.58929408926E+01  0.96858744223E+02  0.79444582212E+02 0.  0.
          6    2    1    2  501    0 -0.13929785271E+03  0.18565696266E+03 -0.41014402482E+02  0.29131742047E+03  0.17120531154E+03 0.  0.
         24    2    5    5    0    0 -0.34828256818E+02  0.26582094172E+02 -0.48208554821E+02  0.10081136786E+03  0.76936674792E+02 0.  0.
          5    1    5    5  501    0 -0.10446959590E+03  0.15907486849E+03  0.71941523388E+01  0.19050605261E+03  0.47000000000E+01 0. -1.
        -11    1    6    6    0    0 -0.51027381560E+02  0.28713145822E+02 -0.57459457077E+02  0.82035526569E+02  0.00000000000E+00 0.  1.
         12    1    6    6    0    0  0.16199124743E+02 -0.21310516496E+01  0.92509022561E+01  0.18775841289E+02  0.00000000000E+00 0. -1.
         -5    1    3    3    0  503  0.12288865913E+03 -0.13306241634E+03  0.11433981197E+03  0.21424964828E+03  0.47000000000E+01 0.  1.
         11    1    4    4    0    0  0.24992206371E+02 -0.55587474916E+02 -0.32267251983E+02  0.68961969935E+02  0.00000000000E+00 0. -1.
        -12    1    4    4    0    0 -0.85830127933E+01  0.29929285896E+01  0.26374311090E+02  0.27896774287E+02  0.00000000000E+00 0.  1.
</event>
<event>
12    1  0.9966151E-001  0.1909048E+03  0.7818608E-02  0.1157740E+00
         21   -1    0    0  501  502  0.00000000000E+00  0.00000000000E+00  0.51431159891E+02  0.51431159891E+02  0.00000000000E+00 0. -1.
         21   -1    0    0  502  503 -0.00000000000E+00 -0.00000000000E+00 -0.98546611139E+03  0.98546611139E+03  0.00000000000E+00 0. -1.
         -6    2    1    2    0  503 -0.57273197377E+02  0.59834184830E+02 -0.19110437591E+03  0.26983111105E+03  0.17154473815E+03 0.  0.
        -24    2    3    3    0    0 -0.33823000989E+01  0.65967714680E+02 -0.18768038213E+03  0.21528147556E+03  0.82213189638E+02 0.  0.
          6    2    1    2  501    0  0.57273197377E+02 -0.59834184830E+02 -0.74293057559E+03  0.76706616024E+03  0.17200088725E+03 0.  0.
         24    2    5    5    0    0 -0.17359478757E+01  0.23513031331E+02 -0.28155491388E+03  0.29450036706E+03  0.83074788636E+02 0.  0.
          5    1    5    5  501    0  0.59009145253E+02 -0.83347216160E+02 -0.46137566171E+03  0.47256579318E+03  0.47000000000E+01 0. -1.
        -13    1    6    6    0    0  0.31458503840E+02  0.23952099879E+01 -0.21408890512E+03  0.21640109471E+03  0.00000000000E+00 0.  1.
         14    1    6    6    0    0 -0.33194451716E+02  0.21117821343E+02 -0.67466008759E+02  0.78099272345E+02  0.00000000000E+00 0. -1.
         -5    1    3    3    0  503 -0.53890897278E+02 -0.61335298498E+01 -0.34239937767E+01  0.54549635482E+02  0.47000000000E+01 0.  1.
         13    1    4    4    0    0  0.25320613598E+02  0.22741813495E+02 -0.19382401127E+02  0.39166325172E+02  0.00000000000E+00 0. -1.
        -14    1    4    4    0    0 -0.28702913697E+02  0.43225901185E+02 -0.16829798100E+03  0.17611515039E+03  0.00000000000E+00 0.  1.
</event>
<event>
12    1  0.9966151E-001  0.2607372E+03  0.7818608E-02  0.1106894E+00
         21   -1    0    0  503  502  0.00000000000E+00  0.00000000000E+00  0.42510960387E+03  0.42510960387E+03  0.00000000000E+00 0. -1.
         21   -1    0    0  501  503 -0.00000000000E+00 -0.00000000000E+00 -0.16156926782E+03  0.16156926782E+03  0.00000000000E+00 0. -1.
          6    2    1    2  501    0  0.19270415925E+03  0.20625053692E+02  0.16745457668E+03  0.30880051531E+03  0.17250054252E+03 0.  0.
         24    2    3    3    0    0  0.86488660495E+02 -0.25327873031E+02  0.14356456214E+03  0.19053713786E+03  0.87016250525E+02 0.  0.
         -6    2    1    2    0  502 -0.19270415925E+03 -0.20625053692E+02  0.96085759374E+02  0.27787835638E+03  0.17442368520E+03 0.  0.
        -24    2    5    5    0    0 -0.20545647160E+03 -0.20333633419E+02  0.46500140826E+02  0.22646308664E+03  0.80606749988E+02 0.  0.
          5    1    3    3  501    0  0.10621549875E+03  0.45952926723E+02  0.23890014538E+02  0.11826337745E+03  0.47000000000E+01 0. -1.
        -11    1    4    4    0    0 -0.11869134229E+02 -0.11041828332E+02  0.55250158797E+02  0.57579322394E+02  0.00000000000E+00 0.  1.
         12    1    4    4    0    0  0.98357794724E+02 -0.14286044699E+02  0.88314403345E+02  0.13295781547E+03  0.00000000000E+00 0. -1.
         -5    1    5    5    0  502  0.12752312347E+02 -0.29142027242E+00  0.49585618548E+02  0.51415269743E+02  0.47000000000E+01 0.  1.
         13    1    6    6    0    0 -0.27793936765E+01  0.15207202463E+02 -0.20081682264E+00  0.15460412781E+02  0.00000000000E+00 0. -1.
        -14    1    6    6    0    0 -0.20267707792E+03 -0.35540835882E+02  0.46700957649E+02  0.21100267386E+03  0.00000000000E+00 0.  1.
</event>
<event>
12    1  0.9966151E-001  0.2644535E+03  0.7818608E-02  0.1104526E+00
         21   -1    0    0  501  502  0.00000000000E+00  0.00000000000E+00  0.20470244050E+03  0.20470244050E+03  0.00000000000E+00 0. -1.
         21   -1    0    0  502  503 -0.00000000000E+00 -0.00000000000E+00 -0.34973221075E+03  0.34973221075E+03  0.00000000000E+00 0. -1.
         -6    2    1    2    0  503 -0.12352831121E+02 -0.20015216729E+03 -0.29716546122E+02  0.26611785868E+03  0.17240115744E+03 0.  0.
        -24    2    3    3    0    0  0.12759866653E+01 -0.17071347587E+02 -0.64757560962E+01  0.81005580487E+02  0.78910769878E+02 0.  0.
          6    2    1    2  501    0  0.12352831121E+02  0.20015216729E+03 -0.11531322414E+03  0.28831679257E+03  0.17209285491E+03 0.  0.
         24    2    5    5    0    0  0.43869950627E+02  0.54198219237E+02 -0.12122306985E+02  0.10675044338E+03  0.79916752310E+02 0.  0.
          5    1    5    5  501    0 -0.31517119506E+02  0.14595394805E+03 -0.10319091715E+03  0.18156634918E+03  0.47000000000E+01 0. -1.
        -11    1    6    6    0    0  0.55979855940E+02  0.67722876105E+02 -0.89157627478E+01  0.88315474547E+02  0.00000000000E+00 0.  1.
         12    1    6    6    0    0 -0.12109905314E+02 -0.13524656868E+02 -0.32065442371E+01  0.18434968838E+02  0.00000000000E+00 0. -1.
         -5    1    3    3    0  503 -0.13628817786E+02 -0.18308081970E+03 -0.23240790026E+02  0.18511227819E+03  0.47000000000E+01 0.  1.
         11    1    4    4    0    0 -0.59559472811E+01  0.23985731713E+02 -0.25207365161E+02  0.35301556513E+02  0.00000000000E+00 0. -1.
        -12    1    4    4    0    0  0.72319339463E+01 -0.41057079301E+02  0.18731609065E+02  0.45704023975E+02  0.00000000000E+00 0.  1.
</event>
<event>
12    1  0.9966151E-001  0.1932202E+03  0.7818608E-02  0.1157999E+00
         21   -1    0    0  503  502  0.00000000000E+00  0.00000000000E+00  0.52235586875E+02  0.52235586875E+02  0.00000000000E+00 0.  1.
         21   -1    0    0  501  503 -0.00000000000E+00 -0.00000000000E+00 -0.67923765274E+03  0.67923765274E+03  0.00000000000E+00 0.  1.
          6    2    1    2  501    0 -0.31006796726E+02  0.47645488496E+02 -0.27963773506E+03  0.33398611161E+03  0.17354522714E+03 0.  0.
         24    2    3    3    0    0 -0.34047698074E+02  0.24093304222E+02 -0.29282219352E+03  0.30642032830E+03  0.80055277934E+02 0.  0.
         -6    2    1    2    0  502  0.31006796726E+02 -0.47645488496E+02 -0.34736433081E+03  0.39748712801E+03  0.18466868873E+03 0.  0.
        -24    2    5    5    0    0 -0.42741263103E+02 -0.29760854542E+02 -0.28080963973E+03  0.29644132966E+03  0.79441073300E+02 0.  0.
          5    1    3    3  501    0  0.30409013484E+01  0.23552184274E+02  0.13184458454E+02  0.27565783316E+02  0.47000000000E+01 0. -1.
        -11    1    4    4    0    0  0.24343484223E+02  0.14969454257E+02 -0.13263220705E+03  0.13567605585E+03  0.00000000000E+00 0.  1.
         12    1    4    4    0    0 -0.58391182297E+02  0.91238499646E+01 -0.16018998647E+03  0.17074427245E+03  0.00000000000E+00 0. -1.
         -5    1    5    5    0  502  0.73748059829E+02 -0.17884633954E+02 -0.66554691072E+02  0.10104579835E+03  0.47000000000E+01 0.  1.
         11    1    6    6    0    0 -0.45383751705E+02 -0.38075571142E+02 -0.10613260186E+03  0.12154654752E+03  0.00000000000E+00 0. -1.
        -12    1    6    6    0    0  0.26424886019E+01  0.83147166008E+01 -0.17467703788E+03  0.17489478214E+03  0.00000000000E+00 0.  1.
</event>
<event>
12    1  0.9966151E-001  0.2165947E+03  0.7818608E-02  0.1137011E+00
         21   -1    0    0  503  502  0.00000000000E+00  0.00000000000E+00  0.13947509464E+04  0.13947509464E+04  0.00000000000E+00 0. -1.
         21   -1    0    0  501  503 -0.00000000000E+00 -0.00000000000E+00 -0.38607899481E+02  0.38607899481E+02  0.00000000000E+00 0. -1.
          6    2    1    2  501    0  0.55334895206E+02  0.11890765194E+03  0.94278749973E+03  0.96669400936E+03  0.16866552038E+03 0.  0.
         24    2    3    3    0    0  0.20700423465E+02  0.15477355640E+02  0.21281381243E+03  0.22860116494E+03  0.79377060812E+02 0.  0.
         -6    2    1    2    0  502 -0.55334895206E+02 -0.11890765194E+03  0.41335554722E+03  0.46666483656E+03  0.17237250633E+03 0.  0.
        -24    2    5    5    0    0 -0.41091128584E+02 -0.14409974236E+03  0.39974746725E+03  0.43434152999E+03  0.80008190199E+02 0.  0.
          5    1    3    3  501    0  0.34634471741E+02  0.10343029630E+03  0.72997368730E+03  0.73809284442E+03  0.47000000000E+01 0. -1.
        -11    1    4    4    0    0 -0.95971584567E+00 -0.24506603843E+02  0.14430204414E+03  0.14637135864E+03  0.00000000000E+00 0.  1.
         12    1    4    4    0    0  0.21660139311E+02  0.39983959482E+02  0.68511768290E+02  0.82229806305E+02  0.00000000000E+00 0. -1.
         -5    1    5    5    0  502 -0.14243766622E+02  0.25192090416E+02  0.13608079969E+02  0.32323306569E+02  0.47000000000E+01 0.  1.
         11    1    6    6    0    0 -0.34241291027E+02 -0.11421769340E+02  0.10514271984E+03  0.11116615655E+03  0.00000000000E+00 0. -1.
        -12    1    6    6    0    0 -0.68498375573E+01 -0.13267797302E+03  0.29460474741E+03  0.32317537344E+03  0.00000000000E+00 0.  1.
</event>
<event>
12    1  0.9966151E-001  0.1894282E+03  0.7818608E-02  0.1159089E+00
         21   -1    0    0  503  502  0.00000000000E+00  0.00000000000E+00  0.37561802590E+03  0.37561802590E+03  0.00000000000E+00 0. -1.
         21   -1    0    0  501  503 -0.00000000000E+00 -0.00000000000E+00 -0.13950612482E+03  0.13950612482E+03  0.00000000000E+00 0. -1.
          6    2    1    2  501    0  0.67905011907E+02 -0.34629562302E+02 -0.27062452291E+02  0.19086534914E+03  0.17287830388E+03 0.  0.
         24    2    3    3    0    0  0.10673327661E+03 -0.82411890338E+01 -0.42946619616E+02  0.14108204717E+03  0.81239290768E+02 0.  0.
         -6    2    1    2    0  502 -0.67905011907E+02  0.34629562302E+02  0.26317435338E+03  0.32425880158E+03  0.17341491545E+03 0.  0.
        -24    2    5    5    0    0 -0.13591789940E+02  0.37814721336E+02  0.25419591190E+03  0.26891646941E+03  0.78011640087E+02 0.  0.
          5    1    3    3  501    0 -0.38828264703E+02 -0.26388373268E+02  0.15884167325E+02  0.49783301972E+02  0.47000000000E+01 0. -1.
        -11    1    4    4    0    0  0.54533721656E+02 -0.36771470081E+02 -0.47933167339E+02  0.81385848528E+02  0.00000000000E+00 0.  1.
         12    1    4    4    0    0  0.52199554954E+02  0.28530281047E+02  0.49865477227E+01  0.59696198641E+02  0.00000000000E+00 0. -1.
         -5    1    5    5    0  502 -0.54313221967E+02 -0.31851590345E+01  0.89784414712E+01  0.55342332168E+02  0.47000000000E+01 0.  1.
         11    1    6    6    0    0 -0.28912203575E+02  0.38872250059E+02  0.24744229573E+03  0.25214015360E+03  0.00000000000E+00 0. -1.
        -12    1    6    6    0    0  0.15320413635E+02 -0.10575287223E+01  0.67536161768E+01  0.16776315818E+02  0.00000000000E+00 0.  1.
</event>
<event>
12    1  0.9966151E-001  0.2512129E+03  0.7818608E-02  0.1112704E+00
         21   -1    0    0  503  502  0.00000000000E+00  0.00000000000E+00  0.22642067966E+03  0.22642067966E+03  0.00000000000E+00 0. -1.
         21   -1    0    0  501  503 -0.00000000000E+00 -0.00000000000E+00 -0.65505556504E+03  0.65505556504E+03  0.00000000000E+00 0. -1.
          6    2    1    2  501    0 -0.18185168561E+03  0.13883089967E+02  0.12044575658E+03  0.27765718016E+03  0.17124121487E+03 0.  0.
         24    2    3    3    0    0 -0.13974087980E+03  0.67006724605E+02  0.52981377358E+02  0.18190242577E+03  0.79145761267E+02 0.  0.
         -6    2    1    2    0  502  0.18185168561E+03 -0.13883089967E+02 -0.54908064196E+03  0.60381906454E+03  0.17275744728E+03 0.  0.
        -24    2    5    5    0    0  0.17502212959E+03 -0.60351536209E+02 -0.47618622906E+03  0.51697642085E+03  0.78969875294E+02 0.  0.
          5    1    3    3  501    0 -0.42110805813E+02 -0.53123634638E+02  0.67464379222E+02  0.95754754384E+02  0.47000000000E+01 0. -1.
        -11    1    4    4    0    0 -0.81933225696E+02  0.11954246163E+02  0.59269120005E+02  0.10182723634E+03  0.00000000000E+00 0.  1.
         12    1    4    4    0    0 -0.57807654100E+02  0.55052478442E+02 -0.62877426468E+01  0.80075189433E+02  0.00000000000E+00 0. -1.
         -5    1    5    5    0  502  0.68295560226E+01  0.46468446242E+02 -0.72894412894E+02  0.86842643688E+02  0.47000000000E+01 0.  1.
         13    1    6    6    0    0  0.41095100758E+02 -0.37966717040E+02 -0.22031728371E+03  0.22731032623E+03  0.00000000000E+00 0. -1.
        -14    1    6    6    0    0  0.13392702883E+03 -0.22384819168E+02 -0.25586894535E+03  0.28966609462E+03  0.00000000000E+00 0.  1.
</event>
<event>
12    1  0.9966151E-001  0.1751731E+03  0.7818608E-02  0.1173736E+00
         21   -1    0    0  503  502  0.00000000000E+00  0.00000000000E+00  0.85805843146E+03  0.85805843146E+03  0.00000000000E+00 0.  1.
         21   -1    0    0  501  503 -0.00000000000E+00 -0.00000000000E+00 -0.54279196705E+02  0.54279196705E+02  0.00000000000E+00 0.  1.
          6    2    1    2  501    0  0.23004788881E+02 -0.19420271096E+02  0.13224563340E+03  0.21948691547E+03  0.17256659952E+03 0.  0.
         24    2    3    3    0    0  0.40784603808E+02 -0.16726108117E+02  0.26531622801E+01  0.88568318994E+02  0.76773441103E+02 0.  0.
         -6    2    1    2    0  502 -0.23004788881E+02  0.19420271096E+02  0.67153360136E+03  0.69285071270E+03  0.16786412687E+03 0.  0.
        -24    2    5    5    0    0 -0.65544916346E+02  0.18612270214E+02  0.28792241432E+03  0.30685855198E+03  0.81365235799E+02 0.  0.
          5    1    3    3  501    0 -0.17779814927E+02 -0.26941629795E+01  0.12959247112E+03  0.13091859648E+03  0.47000000000E+01 0. -1.
        -13    1    4    4    0    0  0.10377009664E+02 -0.43259045083E+02 -0.11245969802E+02  0.45885718343E+02  0.00000000000E+00 0.  1.
         14    1    4    4    0    0  0.30407594144E+02  0.26532936967E+02  0.13899132082E+02  0.42682600651E+02  0.00000000000E+00 0. -1.
         -5    1    5    5    0  502  0.42540127465E+02  0.80800088179E+00  0.38361118704E+03  0.38599216071E+03  0.47000000000E+01 0.  1.
         13    1    6    6    0    0 -0.19582759054E+02  0.46864424884E+02  0.11504130675E+03  0.12575476544E+03  0.00000000000E+00 0. -1.
        -14    1    6    6    0    0 -0.45962157291E+02 -0.28252154669E+02  0.17288110757E+03  0.18110378655E+03  0.00000000000E+00 0.  1.
</event>
<event>
12    1  0.9966151E-001  0.2121270E+03  0.7818608E-02  0.1140460E+00
         21   -1    0    0  501  502  0.00000000000E+00  0.00000000000E+00  0.15540736260E+03  0.15540736260E+03  0.00000000000E+00 0.  1.
         21   -1    0    0  502  503 -0.00000000000E+00 -0.00000000000E+00 -0.41194850677E+03  0.41194850677E+03  0.00000000000E+00 0. -1.
         -6    2    1    2    0  503  0.62187685843E+02  0.10229410630E+03  0.28205299339E+02  0.21399394967E+03  0.17511847170E+03 0.  0.
        -24    2    3    3    0    0  0.94276752035E+02  0.26647757887E+02  0.26306380778E+02  0.13166671184E+03  0.83939790097E+02 0.  0.
          6    2    1    2  501    0 -0.62187685843E+02 -0.10229410630E+03 -0.28474644351E+03  0.35336191970E+03  0.17161793831E+03 0.  0.
         24    2    5    5    0    0 -0.79472213568E+02 -0.13203347192E+03 -0.22144732088E+03  0.28116736525E+03  0.79167549678E+02 0.  0.
          5    1    5    5  501    0  0.17284527725E+02  0.29739365619E+02 -0.63299122633E+02  0.72194554449E+02  0.47000000000E+01 0. -1.
        -13    1    6    6    0    0  0.17974100510E+01 -0.72323301553E+02 -0.96146838013E+02  0.12032499778E+03  0.00000000000E+00 0.  1.
         14    1    6    6    0    0 -0.81269623619E+02 -0.59710170370E+02 -0.12530048287E+03  0.16084236748E+03  0.00000000000E+00 0. -1.
         -5    1    3    3    0  503 -0.32089066191E+02  0.75646348416E+02  0.18989185607E+01  0.82327237835E+02  0.47000000000E+01 0.  1.
         11    1    4    4    0    0 -0.62166063267E+01  0.19487478408E+02 -0.12192750999E+02  0.23813256515E+02  0.00000000000E+00 0. -1.
        -12    1    4    4    0    0  0.10049335836E+03  0.71602794789E+01  0.38499131777E+02  0.10785345532E+03  0.00000000000E+00 0.  1.
</event>
<event>
12    1  0.9966151E-001  0.1754354E+03  0.7818608E-02  0.1172672E+00
         21   -1    0    0  501  502  0.00000000000E+00  0.00000000000E+00  0.53621363869E+02  0.53621363869E+02  0.00000000000E+00 0. -1.
         21   -1    0    0  502  503 -0.00000000000E+00 -0.00000000000E+00 -0.69417023834E+03  0.69417023834E+03  0.00000000000E+00 0. -1.
         -6    2    1    2    0  503 -0.23539561793E+01  0.37271085099E+02 -0.47785954190E+03  0.50853148944E+03  0.16988189742E+03 0.  0.
        -24    2    3    3    0    0  0.69456867973E+01  0.24160609522E+02 -0.99909623606E+02  0.13021072782E+03  0.79629913562E+02 0.  0.
          6    2    1    2  501    0  0.23539561793E+01 -0.37271085099E+02 -0.16268933257E+03  0.23926011277E+03  0.17141443270E+03 0.  0.
         24    2    5    5    0    0  0.31273046879E+02  0.11968774448E+02 -0.31565780630E+02  0.96164503304E+02  0.84439079614E+02 0.  0.
          5    1    5    5  501    0 -0.28919090700E+02 -0.49239859548E+02 -0.13112355194E+03  0.14309560947E+03  0.47000000000E+01 0. -1.
        -13    1    6    6    0    0  0.34040628303E+02 -0.24293150082E+02 -0.41029236500E+02  0.58586003140E+02  0.00000000000E+00 0.  1.
         14    1    6    6    0    0 -0.27675814233E+01  0.36261924530E+02  0.94634558702E+01  0.37578500164E+02  0.00000000000E+00 0. -1.
         -5    1    3    3    0  503 -0.92996429766E+01  0.13110475577E+02 -0.37794991829E+03  0.37832076161E+03  0.47000000000E+01 0.  1.
         11    1    4    4    0    0  0.84524486113E+01 -0.25899398565E+02 -0.13664336865E+02  0.30478465111E+02  0.00000000000E+00 0. -1.
        -12    1    4    4    0    0 -0.15067618140E+01  0.50060008088E+02 -0.86245286741E+02  0.99732262713E+02  0.00000000000E+00 0.  1.
</event>
<event>
12    1  0.9966151E-001  0.2043313E+03  0.7818608E-02  0.1146147E+00
         21   -1    0    0  501  502  0.00000000000E+00  0.00000000000E+00  0.13926791088E+03  0.13926791088E+03  0.00000000000E+00 0.  1.
         21   -1    0    0  502  503 -0.00000000000E+00 -0.00000000000E+00 -0.33072502908E+03  0.33072502908E+03  0.00000000000E+00 0.  1.
         -6    2    1    2    0  503  0.68882694838E+02 -0.86060895504E+02 -0.23752724785E+02  0.20565216063E+03  0.17198056824E+03 0.  0.
        -24    2    3    3    0    0  0.21689917985E+02  0.20962770512E+02 -0.30784471806E+01  0.86779375561E+02  0.81309857312E+02 0.  0.
          6    2    1    2  501    0 -0.68882694838E+02  0.86060895504E+02 -0.16770439341E+03  0.26434077933E+03  0.17204644916E+03 0.  0.
         24    2    5    5    0    0 -0.97793616515E+02  0.78312325697E+02 -0.17844693583E+03  0.23219464514E+03  0.79841295943E+02 0.  0.
          5    1    5    5  501    0  0.28910921676E+02  0.77485698077E+01  0.10742542416E+02  0.32146134197E+02  0.47000000000E+01 0. -1.
        -13    1    6    6    0    0  0.27575641871E+01  0.35455992058E+02 -0.23694855604E+02  0.42733800617E+02  0.00000000000E+00 0.  1.
         14    1    6    6    0    0 -0.10055118070E+03  0.42856333638E+02 -0.15475208022E+03  0.18946084452E+03  0.00000000000E+00 0. -1.
         -5    1    3    3    0  503  0.47192776853E+02 -0.10702366602E+03 -0.20674277604E+02  0.11887278506E+03  0.47000000000E+01 0.  1.
         13    1    4    4    0    0  0.50891853263E+02  0.70757710486E+01  0.91856318910E+01  0.52196006530E+02  0.00000000000E+00 0. -1.
        -14    1    4    4    0    0 -0.29201935278E+02  0.13886999463E+02 -0.12264079072E+02  0.34583369031E+02  0.00000000000E+00 0.  1.
</event>
<event>
12    1  0.9966151E-001  0.2690065E+03  0.7818608E-02  0.1102029E+00
         21   -1    0    0  501  502  0.00000000000E+00  0.00000000000E+00  0.11431410369E+04  0.11431410369E+04  0.00000000000E+00 0. -1.
         21   -1    0    0  502  503 -0.00000000000E+00 -0.00000000000E+00 -0.81018218818E+02  0.81018218818E+02  0.00000000000E+00 0. -1.
         -6    2    1    2    0  503  0.19459637763E+03 -0.67424247817E+02  0.82058123585E+03  0.86354968619E+03  0.17306275307E+03 0.  0.
        -24    2    3    3    0    0  0.87122479342E+02 -0.38668069057E+02  0.63622795455E+03  0.64817610620E+03  0.79124639175E+02 0.  0.
          6    2    1    2  501    0 -0.19459637763E+03  0.67424247817E+02  0.24154158218E+03  0.36060956948E+03  0.17112319042E+03 0.  0.
         24    2    5    5    0    0 -0.20823714974E+03  0.89710186979E+02  0.21783723249E+03  0.32501856019E+03  0.82300525085E+02 0.  0.
          5    1    5    5  501    0  0.13640772111E+02 -0.22285939161E+02  0.23704349697E+02  0.35591009295E+02  0.47000000000E+01 0. -1.
        -11    1    6    6    0    0 -0.13597814350E+03  0.27045472898E+02  0.89733024522E+02  0.16514699151E+03  0.00000000000E+00 0.  1.
         12    1    6    6    0    0 -0.72259006237E+02  0.62664714081E+02  0.12810420797E+03  0.15987156868E+03  0.00000000000E+00 0. -1.
         -5    1    3    3    0  503  0.10747389829E+03 -0.28756178761E+02  0.18435328130E+03  0.21537357999E+03  0.47000000000E+01 0.  1.
         13    1    4    4    0    0  0.72953081110E+02  0.51568108553E+01  0.47117628995E+03  0.47681845702E+03  0.00000000000E+00 0. -1.
        -14    1    4    4    0    0  0.14169398232E+02 -0.43824879912E+02  0.16505166460E+03  0.17135764918E+03  0.00000000000E+00 0.  1.
</event>
<event>
12    1  0.9966151E-001  0.1787663E+03  0.7818608E-02  0.1171750E+00
         21   -1    0    0  501  502  0.00000000000E+00  0.00000000000E+00  0.15232683827E+04  0.15232683827E+04  0.00000000000E+00 0. -1.
         21   -1    0    0  502  503 -0.00000000000E+00 -0.00000000000E+00 -0.25502461258E+02  0.25502461258E+02  0.00000000000E+00 0. -1.
         -6    2    1    2    0  503 -0.35403555354E+02  0.37142631610E+02  0.10992483046E+04  0.11119943722E+04  0.15984887236E+03 0.  0.
        -24    2    3    3    0    0 -0.75884385627E+02  0.52658902905E+02  0.82547620304E+03  0.83477116638E+03  0.83069479351E+02 0.  0.
          6    2    1    2  501    0  0.35403555354E+02 -0.37142631610E+02  0.39851761689E+03  0.43677647173E+03  0.17124371074E+03 0.  0.
         24    2    5    5    0    0  0.40052405029E+02  0.43134368708E+02  0.21789271325E+03  0.23900525441E+03  0.78622568244E+02 0.  0.
          5    1    5    5  501    0 -0.46488496748E+01 -0.80277000318E+02  0.18062490364E+03  0.19777121731E+03  0.47000000000E+01 0. -1.
        -11    1    6    6    0    0  0.46205546877E+02 -0.65255351601E+01  0.12613363711E+03  0.13448877121E+03  0.00000000000E+00 0.  1.
         12    1    6    6    0    0 -0.61531418482E+01  0.49659903868E+02  0.91759076139E+02  0.10451648320E+03  0.00000000000E+00 0. -1.
         -5    1    3    3    0  503  0.40480830272E+02 -0.15516271295E+02  0.27377210151E+03  0.27722320585E+03  0.47000000000E+01 0.  1.
         13    1    4    4    0    0 -0.60901384532E+02  0.22066957057E+02  0.24894164478E+03  0.25723116401E+03  0.00000000000E+00 0. -1.
        -14    1    4    4    0    0 -0.14983001094E+02  0.30591945848E+02  0.57653455826E+03  0.57754000237E+03  0.00000000000E+00 0.  1.
</event>
<event>
12    1  0.9966151E-001  0.1771208E+03  0.7818608E-02  0.1171473E+00
         21   -1    0    0  503  502  0.00000000000E+00  0.00000000000E+00  0.57537890509E+03  0.57537890509E+03  0.00000000000E+00 0. -1.
         21   -1    0    0  501  503 -0.00000000000E+00 -0.00000000000E+00 -0.69458583344E+02  0.69458583344E+02  0.00000000000E+00 0. -1.
          6    2    1    2  501    0  0.49116951460E+02  0.17530577435E+02  0.96408271714E+02  0.19866275248E+03  0.16568807532E+03 0.  0.
         24    2    3    3    0    0  0.45646110667E+02  0.13342462481E+02  0.13276199019E+03  0.16160509619E+03  0.78923205399E+02 0.  0.
         -6    2    1    2    0  502 -0.49116951460E+02 -0.17530577435E+02  0.40951205003E+03  0.44617473595E+03  0.16926895703E+03 0.  0.
        -24    2    5    5    0    0 -0.48870570883E+02 -0.14077378954E+02  0.10556222406E+03  0.14216886103E+03  0.80511468746E+02 0.  0.
          5    1    3    3  501    0  0.34708407928E+01  0.41881149540E+01 -0.36353718478E+02  0.37057656292E+02  0.47000000000E+01 0. -1.
        -11    1    4    4    0    0 -0.12890360049E+02  0.11482152673E+02  0.85827655217E+00  0.17284034565E+02  0.00000000000E+00 0.  1.
         12    1    4    4    0    0  0.58536470716E+02  0.18603098083E+01  0.13190371364E+03  0.14432106162E+03  0.00000000000E+00 0. -1.
         -5    1    5    5    0  502 -0.24638057699E+00 -0.34531984806E+01  0.30394982597E+03  0.30400587492E+03  0.47000000000E+01 0.  1.
         11    1    6    6    0    0  0.64215872125E+01 -0.28148812018E+02  0.94162591545E+01  0.30368706538E+02  0.00000000000E+00 0. -1.
        -12    1    6    6    0    0 -0.55292158096E+02  0.14071433063E+02  0.96145964909E+02  0.11180015449E+03  0.00000000000E+00 0.  1.
</event>
<event>
12    1  0.9966151E-001  0.2774530E+03  0.7818608E-02  0.1097205E+00
         21   -1    0    0  503  502  0.00000000000E+00  0.00000000000E+00  0.24496571022E+04  0.24496571022E+04  0.00000000000E+00 0. -1.
         21   -1    0    0  501  503 -0.00000000000E+00 -0.00000000000E+00 -0.67181188382E+02  0.67181188382E+02  0.00000000000E+00 0.  1.
          6    2    1    2  501    0 -0.32191871731E+02  0.21490356367E+03  0.21113777153E+04  0.21295295359E+04  0.17251182442E+03 0.  0.
         24    2    3    3    0    0 -0.57708369789E+02  0.32368399061E+02  0.87056854298E+03  0.87509752500E+03  0.59397988504E+02 0.  0.
         -6    2    1    2    0  502  0.32191871731E+02 -0.21490356367E+03  0.27109819855E+03  0.38730875466E+03  0.17115484186E+03 0.  0.
        -24    2    5    5    0    0 -0.35831934082E+02 -0.96429897732E+02  0.91969479251E+02  0.16198135784E+03  0.84834677446E+02 0.  0.
          5    1    3    3  501    0  0.25516498058E+02  0.18253516461E+03  0.12408091723E+04  0.12544320109E+04  0.47000000000E+01 0. -1.
        -13    1    4    4    0    0 -0.17397772164E+02  0.41843957114E+02  0.35751713617E+03  0.36037772112E+03  0.00000000000E+00 0.  1.
         14    1    4    4    0    0 -0.40310597624E+02 -0.94755580530E+01  0.51305140681E+03  0.51471980388E+03  0.00000000000E+00 0. -1.
         -5    1    5    5    0  502  0.68023805813E+02 -0.11847366594E+03  0.17912871930E+03  0.22532739682E+03  0.47000000000E+01 0.  1.
         13    1    6    6    0    0 -0.38557390305E+02 -0.58145698418E+01  0.46105518133E+02  0.60383775735E+02  0.00000000000E+00 0. -1.
        -14    1    6    6    0    0  0.27254562229E+01 -0.90615327891E+02  0.45863961117E+02  0.10159758211E+03  0.00000000000E+00 0.  1.
</event>
<event>
12    1  0.9966151E-001  0.1846972E+03  0.7818608E-02  0.1163429E+00
         21   -1    0    0  503  502  0.00000000000E+00  0.00000000000E+00  0.18826264316E+03  0.18826264316E+03  0.00000000000E+00 0. -1.
         21   -1    0    0  501  503 -0.00000000000E+00 -0.00000000000E+00 -0.26338495491E+03  0.26338495491E+03  0.00000000000E+00 0. -1.
          6    2    1    2  501    0 -0.47731213144E+02 -0.44485207863E+02  0.88863468856E+02  0.20496282313E+03  0.17278842652E+03 0.  0.
         24    2    3    3    0    0 -0.58515487949E+02  0.10297056965E+02  0.10726682646E+03  0.14598680517E+03  0.79220474088E+02 0.  0.
         -6    2    1    2    0  502  0.47731213144E+02  0.44485207863E+02 -0.16398578061E+03  0.24668477495E+03  0.17235091971E+03 0.  0.
        -24    2    5    5    0    0  0.15537509695E+02  0.79979786617E+02 -0.53456271932E+02  0.12612291551E+03  0.80070196289E+02 0.  0.
          5    1    3    3  501    0  0.10784274804E+02 -0.54782264827E+02 -0.18403357601E+02  0.58976017954E+02  0.47000000000E+01 0. -1.
        -11    1    4    4    0    0 -0.25754622692E+02  0.27887533018E+01  0.10928758067E+03  0.11231586275E+03  0.00000000000E+00 0.  1.
         12    1    4    4    0    0 -0.32760865257E+02  0.75083036627E+01 -0.20207542180E+01  0.33670942427E+02  0.00000000000E+00 0. -1.
         -5    1    5    5    0  502  0.32193703449E+02 -0.35494578754E+02 -0.11052950868E+03  0.12056185944E+03  0.47000000000E+01 0.  1.
         13    1    6    6    0    0  0.34141118294E+02  0.82303200642E+02 -0.25895899820E+02  0.92790249605E+02  0.00000000000E+00 0. -1.
        -14    1    6    6    0    0 -0.18603608599E+02 -0.23234140245E+01 -0.27560372111E+02  0.33332665908E+02  0.00000000000E+00 0.  1.
</event>
<event>
12    1  0.9966151E-001  0.2085230E+03  0.7818608E-02  0.1142808E+00
         21   -1    0    0  501  502  0.00000000000E+00  0.00000000000E+00  0.21290532705E+03  0.21290532705E+03  0.00000000000E+00 0.  1.
         21   -1    0    0  502  503 -0.00000000000E+00 -0.00000000000E+00 -0.20525550409E+03  0.20525550409E+03  0.00000000000E+00 0. -1.
         -6    2    1    2    0  503  0.11672721874E+03 -0.16703641384E+02 -0.13150349833E+02  0.20860298808E+03  0.17157511389E+03 0.  0.
        -24    2    3    3    0    0  0.38242693718E+02  0.24844138921E+02  0.44847455169E+02  0.10243390548E+03  0.80010473655E+02 0.  0.
          6    2    1    2  501    0 -0.11672721874E+03  0.16703641384E+02  0.20800172791E+02  0.20955784305E+03  0.17198135703E+03 0.  0.
         24    2    5    5    0    0 -0.12433338603E+03 -0.31053175730E+02  0.41541824175E+02  0.15672912488E+03  0.80094973773E+02 0.  0.
          5    1    5    5  501    0  0.76061672963E+01  0.47756817114E+02 -0.20741651384E+02  0.52828718175E+02  0.47000000000E+01 0. -1.
        -13    1    6    6    0    0 -0.36180490772E+02  0.65111478178E+01  0.48265057658E+02  0.60670740470E+02  0.00000000000E+00 0.  1.
         14    1    6    6    0    0 -0.88152895263E+02 -0.37564323548E+02 -0.67232334833E+01  0.96058384409E+02  0.00000000000E+00 0. -1.
         -5    1    3    3    0  503  0.78484525021E+02 -0.41547780305E+02 -0.57997805002E+02  0.10616908260E+03  0.47000000000E+01 0.  1.
         11    1    4    4    0    0  0.47899338264E+02  0.45641373212E+02  0.21154396342E+02  0.69462148249E+02  0.00000000000E+00 0. -1.
        -12    1    4    4    0    0 -0.96566445462E+01 -0.20797234291E+02  0.23693058827E+02  0.32971757227E+02  0.00000000000E+00 0.  1.
</event>
<event>
12    1  0.9966151E-001  0.4909148E+03  0.7818608E-02  0.1016218E+00
         21   -1    0    0  501  502  0.00000000000E+00  0.00000000000E+00  0.97465744454E+03  0.97465744454E+03  0.00000000000E+00 0.  1.
         21   -1    0    0  502  503 -0.00000000000E+00 -0.00000000000E+00 -0.25280029782E+03  0.25280029782E+03  0.00000000000E+00 0.  1.
         -6    2    1    2    0  503 -0.83012460962E+02 -0.45194853726E+03  0.26745781130E+03  0.55852120790E+03  0.17106639018E+03 0.  0.
        -24    2    3    3    0    0 -0.61646412931E+02 -0.44067328829E+03  0.21431771835E+03  0.49995843195E+03  0.77673174562E+02 0.  0.
          6    2    1    2  501    0  0.83012460962E+02  0.45194853726E+03  0.45439933542E+03  0.66893653446E+03  0.17276800079E+03 0.  0.
         24    2    5    5    0    0  0.70258155438E+02  0.35795236675E+03  0.27290629739E+03  0.46409570544E+03  0.88548694986E+02 0.  0.
          5    1    5    5  501    0  0.12754305523E+02  0.93996170506E+02  0.18149303803E+03  0.20484082902E+03  0.47000000000E+01 0. -1.
        -13    1    6    6    0    0  0.14692465949E+02  0.86403170098E+01 -0.48347893060E+00  0.17051609472E+02  0.00000000000E+00 0.  1.
         14    1    6    6    0    0  0.55565689489E+02  0.34931204974E+03  0.27338977632E+03  0.44704409596E+03  0.00000000000E+00 0. -1.
         -5    1    3    3    0  503 -0.21366048031E+02 -0.11275248969E+02  0.53140092957E+02  0.58562775952E+02  0.47000000000E+01 0.  1.
         13    1    4    4    0    0 -0.55681331919E+02 -0.15792919882E+03  0.99084427216E+02  0.19457586253E+03  0.00000000000E+00 0. -1.
        -14    1    4    4    0    0 -0.59650810118E+01 -0.28274408947E+03  0.11523329113E+03  0.30538256942E+03  0.00000000000E+00 0.  1.
</event>
<event>
12    1  0.9966151E-001  0.2198254E+03  0.7818608E-02  0.1134069E+00
         21   -1    0    0  503  502  0.00000000000E+00  0.00000000000E+00  0.10044602962E+04  0.10044602962E+04  0.00000000000E+00 0.  1.
         21   -1    0    0  501  503 -0.00000000000E+00 -0.00000000000E+00 -0.48735240570E+02  0.48735240570E+02  0.00000000000E+00 0.  1.
          6    2    1    2  501    0 -0.13113585363E+03  0.41465438315E+02  0.41480099641E+03  0.46931022311E+03  0.17110296378E+03 0.  0.
         24    2    3    3    0    0 -0.66389894799E+02  0.88780795237E+02  0.27376191579E+03  0.30699911922E+03  0.83744999426E+02 0.  0.
         -6    2    1    2    0  502  0.13113585363E+03 -0.41465438315E+02  0.54092405917E+03  0.58388531361E+03  0.17148535498E+03 0.  0.
        -24    2    5    5    0    0  0.11052082785E+03 -0.53956980039E+02  0.23531185927E+03  0.27728798056E+03  0.79942128868E+02 0.  0.
          5    1    3    3  501    0 -0.64745958835E+02 -0.47315356921E+02  0.14103908062E+03  0.16231110390E+03  0.47000000000E+01 0. -1.
        -13    1    4    4    0    0  0.17165409867E+02  0.47124221794E+01  0.19123284683E+02  0.26125815504E+02  0.00000000000E+00 0.  1.
         14    1    4    4    0    0 -0.83555304666E+02  0.84068373057E+02  0.25463863111E+03  0.28087330371E+03  0.00000000000E+00 0. -1.
         -5    1    5    5    0  502  0.20615025788E+02  0.12491541724E+02  0.30561219990E+03  0.30659733305E+03  0.47000000000E+01 0.  1.
         11    1    6    6    0    0  0.86602910554E+02  0.35936790584E+00  0.15301536674E+03  0.17582347887E+03  0.00000000000E+00 0. -1.
        -12    1    6    6    0    0  0.23917917291E+02 -0.54316347945E+02  0.82296492530E+02  0.10146450170E+03  0.00000000000E+00 0.  1.
</event>
<event>
12    1  0.9966151E-001  0.2439730E+03  0.7818608E-02  0.1117251E+00
         21   -1    0    0  503  502  0.00000000000E+00  0.00000000000E+00  0.24278841955E+04  0.24278841955E+04  0.00000000000E+00 0. -1.
         21   -1    0    0  501  503 -0.00000000000E+00 -0.00000000000E+00 -0.31048325416E+02  0.31048325416E+02  0.00000000000E+00 0. -1.
          6    2    1    2  501    0  0.14479865496E+03 -0.93675512630E+02  0.63154477174E+03  0.67686195812E+03  0.17190567034E+03 0.  0.
         24    2    3    3    0    0  0.10725940154E+03 -0.79642680499E+02  0.61303432567E+03  0.63246778577E+03  0.79730043360E+02 0.  0.
         -6    2    1    2    0  502 -0.14479865496E+03  0.93675512630E+02  0.17652910984E+04  0.17820705628E+04  0.17257194656E+03 0.  0.
        -24    2    5    5    0    0 -0.35057718266E+02  0.96536809617E+02  0.11043341390E+04  0.11120426139E+04  0.80848533240E+02 0.  0.
          5    1    3    3  501    0  0.37539253419E+02 -0.14032832131E+02  0.18510446070E+02  0.44394172349E+02  0.47000000000E+01 0. -1.
        -11    1    4    4    0    0  0.70410045494E+02 -0.38787148072E+02  0.19637028935E+03  0.21218696449E+03  0.00000000000E+00 0.  1.
         12    1    4    4    0    0  0.36849356042E+02 -0.40855532428E+02  0.41666403632E+03  0.42028082128E+03  0.00000000000E+00 0. -1.
         -5    1    5    5    0  502 -0.10974093669E+03 -0.28612969868E+01  0.66095695935E+03  0.67002794891E+03  0.47000000000E+01 0.  1.
         11    1    6    6    0    0  0.21365580528E+00  0.76622637785E+02  0.45170255650E+03  0.45815529443E+03  0.00000000000E+00 0. -1.
        -12    1    6    6    0    0 -0.35271374071E+02  0.19914171832E+02  0.65263158254E+03  0.65388731949E+03  0.00000000000E+00 0.  1.
</event>
<event>
12    1  0.9966151E-001  0.2907415E+03  0.7818608E-02  0.1089987E+00
         21   -1    0    0  503  502  0.00000000000E+00  0.00000000000E+00  0.58004115972E+03  0.58004115972E+03  0.00000000000E+00 0.  1.
         21   -1    0    0  501  503 -0.00000000000E+00 -0.00000000000E+00 -0.14583085665E+03  0.14583085665E+03  0.00000000000E+00 0.  1.
          6    2    1    2  501    0  0.96279205116E+02 -0.21360052190E+03  0.20390065517E+03  0.35496342755E+03  0.17183913822E+03 0.  0.
         24    2    3    3    0    0  0.73566437422E+02 -0.18068750160E+03  0.79004948946E+02  0.22373780446E+03  0.75873771740E+02 0.  0.
         -6    2    1    2    0  502 -0.96279205116E+02  0.21360052190E+03  0.23030964790E+03  0.37090858882E+03  0.17215045468E+03 0.  0.
        -24    2    5    5    0    0 -0.12986074702E+03  0.17739218161E+03  0.15508209985E+03  0.28079733619E+03  0.80404518581E+02 0.  0.
          5    1    3    3  501    0  0.22712767695E+02 -0.32913020301E+02  0.12489570622E+03  0.13122562309E+03  0.47000000000E+01 0. -1.
        -11    1    4    4    0    0  0.22146572787E+02 -0.24092143473E+01  0.54116990036E+00  0.22283802747E+02  0.00000000000E+00 0.  1.
         12    1    4    4    0    0  0.51419864635E+02 -0.17827828726E+03  0.78463779045E+02  0.20145400172E+03  0.00000000000E+00 0. -1.
         -5    1    5    5    0  502  0.33581541903E+02  0.36208340298E+02  0.75227548052E+02  0.90111252625E+02  0.47000000000E+01 0.  1.
         11    1    6    6    0    0 -0.65323712894E+01  0.16815663170E+02 -0.90249727629E+01  0.20171478277E+02  0.00000000000E+00 0. -1.
        -12    1    6    6    0    0 -0.12332837573E+03  0.16057651844E+03  0.16410707261E+03  0.26062585792E+03  0.00000000000E+00 0.  1.
</event>
<event>
12    1  0.9966151E-001  0.1846041E+03  0.7818608E-02  0.1164081E+00
         21   -1    0    0  503  502  0.00000000000E+00  0.00000000000E+00  0.10545715664E+03  0.10545715664E+03  0.00000000000E+00 0.  1.
         21   -1    0    0  501  503 -0.00000000000E+00 -0.00000000000E+00 -0.45513776099E+03  0.45513776099E+03  0.00000000000E+00 0.  1.
          6    2    1    2  501    0  0.34937038551E+02  0.56566976686E+02 -0.32948155892E+03  0.37767285116E+03  0.17221575224E+03 0.  0.
         24    2    3    3    0    0  0.28638319234E+02  0.10124473069E+02 -0.31788987060E+03  0.32916473591E+03  0.79829789232E+02 0.  0.
         -6    2    1    2    0  502 -0.34937038551E+02 -0.56566976686E+02 -0.20199045426E+02  0.18292206646E+03  0.16921011036E+03 0.  0.
        -24    2    5    5    0    0  0.14590022546E+02 -0.52953963330E+02  0.35630234161E+02  0.10805563804E+03  0.85962296007E+02 0.  0.
          5    1    3    3  501    0  0.62987193164E+01  0.46442503617E+02 -0.11591688319E+02  0.48508115252E+02  0.47000000000E+01 0. -1.
        -13    1    4    4    0    0 -0.93842895006E+01 -0.28746056541E+02 -0.13600013917E+03  0.13932134981E+03  0.00000000000E+00 0.  1.
         14    1    4    4    0    0  0.38022608735E+02  0.38870529610E+02 -0.18188973143E+03  0.18984338610E+03  0.00000000000E+00 0. -1.
         -5    1    5    5    0  502 -0.49527061097E+02 -0.36130133560E+01 -0.55829279587E+02  0.74866428429E+02  0.47000000000E+01 0.  1.
         11    1    6    6    0    0 -0.21259348001E+02 -0.33350599911E+02 -0.15609835337E+02  0.42519282110E+02  0.00000000000E+00 0. -1.
        -12    1    6    6    0    0  0.35849370547E+02 -0.19603363419E+02  0.51240069498E+02  0.65536355926E+02  0.00000000000E+00 0.  1.
</event>
<event>
12    1  0.9966151E-001  0.1986185E+03  0.7818608E-02  0.1151375E+00
         21   -1    0    0  501  502  0.00000000000E+00  0.00000000000E+00  0.24726682531E+03  0.24726682531E+03  0.00000000000E+00 0. -1.
         21   -1    0    0  502  503 -0.00000000000E+00 -0.00000000000E+00 -0.15784715986E+03  0.15784715986E+03  0.00000000000E+00 0. -1.
         -6    2    1    2    0  503  0.79417268366E+02 -0.54518811043E+02  0.40951573320E+02  0.20066726747E+03  0.17120431538E+03 0.  0.
        -24    2    3    3    0    0  0.11534957813E+03 -0.29286186357E+02  0.48332712179E+01  0.14361958583E+03  0.80249729214E+02 0.  0.
          6    2    1    2  501    0 -0.79417268366E+02  0.54518811043E+02  0.48468092132E+02  0.20444671770E+03  0.17369485067E+03 0.  0.
         24    2    5    5    0    0 -0.61527393537E+02  0.10404424011E+03  0.21881403352E+02  0.14527106590E+03  0.77550388249E+02 0.  0.
          5    1    5    5  501    0 -0.17889874828E+02 -0.49525429069E+02  0.26586688780E+02  0.59175651802E+02  0.47000000000E+01 0. -1.
        -11    1    6    6    0    0 -0.11639030269E+02  0.35480432011E+02  0.43932688007E+02  0.57657689486E+02  0.00000000000E+00 0.  1.
         12    1    6    6    0    0 -0.49888363268E+02  0.68563808102E+02 -0.22051284655E+02  0.87613376410E+02  0.00000000000E+00 0. -1.
         -5    1    3    3    0  503 -0.35932309763E+02 -0.25232624686E+02  0.36118302102E+02  0.57047681637E+02  0.47000000000E+01 0.  1.
         11    1    4    4    0    0  0.99964019220E+02 -0.16004860903E+02 -0.27969995248E+02  0.10502990691E+03  0.00000000000E+00 0. -1.
        -12    1    4    4    0    0  0.15385558908E+02 -0.13281325454E+02  0.32803266466E+02  0.38589678926E+02  0.00000000000E+00 0.  1.
</event>
<event>
12    1  0.9966151E-001  0.3780194E+03  0.7818608E-02  0.1051773E+00
         21   -1    0    0  503  502  0.00000000000E+00  0.00000000000E+00  0.30554860639E+03  0.30554860639E+03  0.00000000000E+00 0.  1.
         21   -1    0    0  501  503 -0.00000000000E+00 -0.00000000000E+00 -0.46651738381E+03  0.46651738381E+03  0.00000000000E+00 0.  1.
          6    2    1    2  501    0  0.32408117924E+03  0.88682578605E+02 -0.88795646627E+02  0.38721840788E+03  0.17076363213E+03 0.  0.
         24    2    3    3    0    0  0.22092554531E+03  0.11685703551E+03 -0.97319616803E+02  0.27984227972E+03  0.79855684709E+02 0.  0.
         -6    2    1    2    0  502 -0.32408117924E+03 -0.88682578605E+02 -0.72173130785E+02  0.38484758232E+03  0.17322092922E+03 0.  0.
        -24    2    5    5    0    0 -0.82653869665E+02  0.13106560064E+02 -0.21372947590E+02  0.11791889676E+03  0.80278385865E+02 0.  0.
          5    1    3    3  501    0  0.10315563393E+03 -0.28174456909E+02  0.85239701754E+01  0.10737612817E+03  0.47000000000E+01 0. -1.
        -11    1    4    4    0    0  0.20805653500E+03  0.10907853858E+03 -0.64295924994E+02  0.24355618511E+03  0.00000000000E+00 0.  1.
         12    1    4    4    0    0  0.12869010315E+02  0.77784969339E+01 -0.33023691809E+02  0.36286094605E+02  0.00000000000E+00 0. -1.
         -5    1    5    5    0  502 -0.24142730958E+03 -0.10178913867E+03 -0.50800183195E+02  0.26692868556E+03  0.47000000000E+01 0.  1.
         11    1    6    6    0    0 -0.42116922555E+02  0.39728051279E+02  0.11896421377E+02  0.59107343584E+02  0.00000000000E+00 0. -1.
        -12    1    6    6    0    0 -0.40536947110E+02 -0.26621491215E+02 -0.33269368968E+02  0.58811553176E+02  0.00000000000E+00 0.  1.
</event>
<event>
12    1  0.9966151E-001  0.2184998E+03  0.7818608E-02  0.1135266E+00
         21   -1    0    0  503  502  0.00000000000E+00  0.00000000000E+00  0.86791942000E+02  0.86791942000E+02  0.00000000000E+00 0. -1.
         21   -1    0    0  501  503 -0.00000000000E+00 -0.00000000000E+00 -0.55241262710E+03  0.55241262710E+03  0.00000000000E+00 0. -1.
          6    2    1    2  501    0  0.12791029174E+03  0.42376262638E+02 -0.20079134983E+03  0.29674789181E+03  0.17200393821E+03 0.  0.
         24    2    3    3    0    0  0.27864540402E+02 -0.94141475234E+00 -0.29193966138E+02  0.93392720682E+02  0.84217538221E+02 0.  0.
         -6    2    1    2    0  502 -0.12791029174E+03 -0.42376262638E+02 -0.26482933528E+03  0.34245667730E+03  0.17025042917E+03 0.  0.
        -24    2    5    5    0    0 -0.35289233807E+02  0.33223816917E+02 -0.15188014153E+03  0.17791597482E+03  0.78976988255E+02 0.  0.
          5    1    3    3  501    0  0.10004575134E+03  0.43317677391E+02 -0.17159738369E+03  0.20335517113E+03  0.47000000000E+01 0. -1.
        -13    1    4    4    0    0  0.55053319004E+02  0.75679332136E+01 -0.46084682649E+01  0.55761810643E+02  0.00000000000E+00 0.  1.
         14    1    4    4    0    0 -0.27188778602E+02 -0.85093479659E+01 -0.24585497874E+02  0.37630910039E+02  0.00000000000E+00 0. -1.
         -5    1    5    5    0  502 -0.92621057932E+02 -0.75600079555E+02 -0.11294919375E+03  0.16454070247E+03  0.47000000000E+01 0.  1.
         11    1    6    6    0    0  0.16599383091E+02 -0.88937859682E+01 -0.68591290514E+02  0.71129488134E+02  0.00000000000E+00 0. -1.
        -12    1    6    6    0    0 -0.51888616898E+02  0.42117602885E+02 -0.83288851013E+02  0.10678648669E+03  0.00000000000E+00 0.  1.
</event>
<event>
12    1  0.9966151E-001  0.4146250E+03  0.7818608E-02  0.1038850E+00
         21   -1    0    0  501  502  0.00000000000E+00  0.00000000000E+00  0.16983497451E+03  0.16983497451E+03  0.00000000000E+00 0.  1.
         21   -1    0    0  502  503 -0.00000000000E+00 -0.00000000000E+00 -0.12457522600E+04  0.12457522600E+04  0.00000000000E+00 0. -1.
         -6    2    1    2    0  503  0.34239223786E+02  0.37582512723E+03 -0.23125808057E+03  0.47475694419E+03  0.17174692290E+03 0.  0.
        -24    2    3    3    0    0 -0.22733404149E+02  0.23815363186E+03 -0.20154792856E+03  0.32275660175E+03  0.79475130911E+02 0.  0.
          6    2    1    2  501    0 -0.34239223786E+02 -0.37582512723E+03 -0.84465920491E+03  0.94083029031E+03  0.17115960980E+03 0.  0.
         24    2    5    5    0    0 -0.80091362113E+02 -0.22635513529E+03 -0.44820646288E+03  0.51463718415E+03  0.79442585442E+02 0.  0.
          5    1    5    5  501    0  0.45852138327E+02 -0.14946999194E+03 -0.39645274203E+03  0.42619310617E+03  0.47000000000E+01 0. -1.
        -11    1    6    6    0    0 -0.96121172161E+01 -0.89949336150E+02 -0.10462471476E+03  0.13830982181E+03  0.00000000000E+00 0.  1.
         12    1    6    6    0    0 -0.70479244897E+02 -0.13640579914E+03 -0.34358174812E+03  0.37632736234E+03  0.00000000000E+00 0. -1.
         -5    1    3    3    0  503  0.56972627935E+02  0.13767149537E+03 -0.29710152016E+02  0.15200034244E+03  0.47000000000E+01 0.  1.
         11    1    4    4    0    0 -0.16716290210E+02  0.14492999093E+03 -0.71060723525E+02  0.16227680998E+03  0.00000000000E+00 0. -1.
        -12    1    4    4    0    0 -0.60171139386E+01  0.93223640929E+02 -0.13048720503E+03  0.16047979176E+03  0.00000000000E+00 0.  1.
</event>
<event>
12    1  0.9966151E-001  0.2151516E+03  0.7818608E-02  0.1137680E+00
         21   -1    0    0  503  502  0.00000000000E+00  0.00000000000E+00  0.21553383204E+03  0.21553383204E+03  0.00000000000E+00 0. -1.
         21   -1    0    0  501  503 -0.00000000000E+00 -0.00000000000E+00 -0.27075580812E+03  0.27075580812E+03  0.00000000000E+00 0. -1.
          6    2    1    2  501    0 -0.76612322673E+02 -0.10423208503E+03 -0.13880632497E+03  0.25547250103E+03  0.17107082567E+03 0.  0.
         24    2    3    3    0    0 -0.80940130740E+02 -0.19951694651E+02 -0.20678604874E+02  0.11022043605E+03  0.69076515110E+02 0.  0.
         -6    2    1    2    0  502  0.76612322673E+02  0.10423208503E+03  0.83584348886E+02  0.23081713913E+03  0.17191984412E+03 0.  0.
        -24    2    5    5    0    0 -0.16034285443E+02  0.39831783987E+02  0.75600171567E+02  0.11760658371E+03  0.79197558465E+02 0.  0.
          5    1    3    3  501    0  0.43278080670E+01 -0.84280390380E+02 -0.11812772009E+03  0.14525206498E+03  0.47000000000E+01 0. -1.
        -11    1    4    4    0    0 -0.80177828497E+01 -0.33032120226E+02 -0.35187466540E+01  0.34172904274E+02  0.00000000000E+00 0.  1.
         12    1    4    4    0    0 -0.72922347890E+02  0.13080425575E+02 -0.17159858220E+02  0.76047531776E+02  0.00000000000E+00 0. -1.
         -5    1    5    5    0  502  0.92646608116E+02  0.64400301045E+02  0.79841773189E+01  0.11321055542E+03  0.47000000000E+01 0.  1.
         11    1    6    6    0    0 -0.14045245944E+01  0.13577624214E+02 -0.16099407922E+02  0.21107238191E+02  0.00000000000E+00 0. -1.
        -12    1    6    6    0    0 -0.14629760848E+02  0.26254159774E+02  0.91699579489E+02  0.96499345523E+02  0.00000000000E+00 0.  1.
</event>
<event>
12    1  0.9966151E-001  0.1970885E+03  0.7818608E-02  0.1152245E+00
         21   -1    0    0  501  502  0.00000000000E+00  0.00000000000E+00  0.97703090944E+03  0.97703090944E+03  0.00000000000E+00 0.  1.
         21   -1    0    0  502  503 -0.00000000000E+00 -0.00000000000E+00 -0.55364661878E+02  0.55364661878E+02  0.00000000000E+00 0.  1.
         -6    2    1    2    0  503 -0.85268255872E+02 -0.47300532022E+02  0.73502035951E+03  0.76095394850E+03  0.17113727549E+03 0.  0.
        -24    2    3    3    0    0  0.56006237193E+01  0.50418497823E+01  0.19286804774E+03  0.20873289008E+03  0.79464132330E+02 0.  0.
          6    2    1    2  501    0  0.85268255872E+02  0.47300532022E+02  0.18664588806E+03  0.27144162282E+03  0.17127711838E+03 0.  0.
         24    2    5    5    0    0  0.11810224683E+03  0.35003587350E+02  0.97096501413E+02  0.17515835086E+03  0.77970029207E+02 0.  0.
          5    1    5    5  501    0 -0.32833990962E+02  0.12296944672E+02  0.89549386647E+02  0.96283271962E+02  0.47000000000E+01 0. -1.
        -11    1    6    6    0    0  0.76487030660E+02  0.43900121900E+02  0.25385359064E+02  0.91770926861E+02  0.00000000000E+00 0.  1.
         12    1    6    6    0    0  0.41615216174E+02 -0.88965345499E+01  0.71711142349E+02  0.83387423999E+02  0.00000000000E+00 0. -1.
         -5    1    3    3    0  503 -0.90868879591E+02 -0.52342381804E+02  0.54215231176E+03  0.55222105842E+03  0.47000000000E+01 0.  1.
         13    1    4    4    0    0 -0.36879819321E+02  0.56005422156E+00  0.81678395450E+02  0.89620282399E+02  0.00000000000E+00 0. -1.
        -14    1    4    4    0    0  0.42480443040E+02  0.44817955607E+01  0.11118965229E+03  0.11911260768E+03  0.00000000000E+00 0.  1.
</event>
<event>
12    1  0.9966151E-001  0.2185182E+03  0.7818608E-02  0.1135746E+00
         21   -1    0    0  501  502  0.00000000000E+00  0.00000000000E+00  0.13487467087E+03  0.13487467087E+03  0.00000000000E+00 0.  1.
         21   -1    0    0  502  503 -0.00000000000E+00 -0.00000000000E+00 -0.35520501913E+03  0.35520501913E+03  0.00000000000E+00 0.  1.
         -6    2    1    2    0  503 -0.13104419008E+03 -0.25859182594E+02 -0.73408918782E+02  0.22676215406E+03  0.16790154281E+03 0.  0.
        -24    2    3    3    0    0 -0.15332568663E+03  0.90999554762E+01 -0.56598492482E+02  0.18178119302E+03  0.79053383323E+02 0.  0.
          6    2    1    2  501    0  0.13104419008E+03  0.25859182594E+02 -0.14692142947E+03  0.26331753594E+03  0.17294201693E+03 0.  0.
         24    2    5    5    0    0 -0.95561617154E+01  0.18366779775E+02 -0.48152263510E+02  0.91265121925E+02  0.74712938457E+02 0.  0.
          5    1    5    5  501    0  0.14060035179E+03  0.74924028185E+01 -0.98769165965E+02  0.17205241402E+03  0.47000000000E+01 0. -1.
        -11    1    6    6    0    0 -0.92203993193E+01 -0.28860339889E+02 -0.18437821598E+02  0.35466720279E+02  0.00000000000E+00 0.  1.
         12    1    6    6    0    0 -0.33576239607E+00  0.47227119664E+02 -0.29714441913E+02  0.55798401646E+02  0.00000000000E+00 0. -1.
         -5    1    3    3    0  503  0.22281496553E+02 -0.34959138070E+02 -0.16810426301E+02  0.44980961035E+02  0.47000000000E+01 0.  1.
         13    1    4    4    0    0 -0.10042493006E+03  0.59986758499E+01  0.47486157776E+01  0.10071593738E+03  0.00000000000E+00 0. -1.
        -14    1    4    4    0    0 -0.52900756566E+02  0.31012796263E+01 -0.61347108259E+02  0.81065255643E+02  0.00000000000E+00 0.  1.
</event>
<event>
12    1  0.9966151E-001  0.3511170E+03  0.7818608E-02  0.1062225E+00
         21   -1    0    0  501  502  0.00000000000E+00  0.00000000000E+00  0.38291654218E+03  0.38291654218E+03  0.00000000000E+00 0. -1.
         21   -1    0    0  502  503 -0.00000000000E+00 -0.00000000000E+00 -0.32391053826E+03  0.32391053826E+03  0.00000000000E+00 0. -1.
         -6    2    1    2    0  503  0.61131925035E+02  0.30016487615E+03 -0.18821239522E+01  0.35112206092E+03  0.17160155636E+03 0.  0.
        -24    2    3    3    0    0  0.21843853157E+02  0.73851664931E+02  0.39357163215E+02  0.11770400042E+03  0.79837479197E+02 0.  0.
          6    2    1    2  501    0 -0.61131925035E+02 -0.30016487615E+03  0.60888127865E+02  0.35570501952E+03  0.17024286083E+03 0.  0.
         24    2    5    5    0    0  0.18869380576E+01 -0.81997443230E+02  0.11577458814E+02  0.12327860541E+03  0.91304084071E+02 0.  0.
          5    1    5    5  501    0 -0.63018863093E+02 -0.21816743292E+03  0.49310669051E+02  0.23242641410E+03  0.47000000000E+01 0. -1.
        -11    1    6    6    0    0 -0.27405240113E+02 -0.51705178526E+02  0.41375538207E+02  0.71668736797E+02  0.00000000000E+00 0.  1.
         12    1    6    6    0    0  0.29292178171E+02 -0.30292264704E+02 -0.29798079394E+02  0.51609868615E+02  0.00000000000E+00 0. -1.
         -5    1    3    3    0  503  0.39288071878E+02  0.22631321122E+03 -0.41239287167E+02  0.23341806050E+03  0.47000000000E+01 0.  1.
         11    1    4    4    0    0  0.52045565993E+02  0.47167203000E+02  0.20230286836E+02  0.73094120720E+02  0.00000000000E+00 0. -1.
        -12    1    4    4    0    0 -0.30201712836E+02  0.26684461931E+02  0.19126876379E+02  0.44609879700E+02  0.00000000000E+00 0.  1.
</event>
<event>
12    1  0.9966151E-001  0.2159155E+03  0.7818608E-02  0.1137009E+00
         21   -1    0    0  503  502  0.00000000000E+00  0.00000000000E+00  0.65147137294E+02  0.65147137294E+02  0.00000000000E+00 0. -1.
         21   -1    0    0  501  503 -0.00000000000E+00 -0.00000000000E+00 -0.83571584449E+03  0.83571584449E+03  0.00000000000E+00 0. -1.
          6    2    1    2  501    0 -0.12846074255E+03 -0.13236239380E+02 -0.55675655102E+03  0.59715774329E+03  0.17303800985E+03 0.  0.
         24    2    3    3    0    0 -0.12390125499E+03 -0.10535830045E+02 -0.56626404302E+03  0.58530179367E+03  0.80378470674E+02 0.  0.
         -6    2    1    2    0  502  0.12846074255E+03  0.13236239380E+02 -0.21381215617E+03  0.30370523850E+03  0.17275379404E+03 0.  0.
        -24    2    5    5    0    0  0.94855155984E+02 -0.43945971452E+02 -0.19889387197E+03  0.23555990933E+03  0.70717392154E+02 0.  0.
          5    1    3    3  501    0 -0.45594875538E+01 -0.27004093350E+01  0.95074919975E+01  0.11855949621E+02  0.47000000000E+01 0. -1.
        -11    1    4    4    0    0 -0.27883417747E+02 -0.34495101908E+02 -0.25039186935E+03  0.25429015962E+03  0.00000000000E+00 0.  1.
         12    1    4    4    0    0 -0.96017837247E+02  0.23959271862E+02 -0.31587217367E+03  0.33101163405E+03  0.00000000000E+00 0. -1.
         -5    1    5    5    0  502  0.33605586564E+02  0.57182210832E+02 -0.14918284208E+02  0.68145329170E+02  0.47000000000E+01 0.  1.
         13    1    6    6    0    0  0.13198323877E+02 -0.39951650682E+02 -0.47148049594E+02  0.63192315402E+02  0.00000000000E+00 0. -1.
        -14    1    6    6    0    0  0.81656832107E+02 -0.39943207694E+01 -0.15174582237E+03  0.17236759392E+03  0.00000000000E+00 0.  1.
</event>
<event>
12    1  0.9966151E-001  0.2501795E+03  0.7818608E-02  0.1113462E+00
         21   -1    0    0  503  502  0.00000000000E+00  0.00000000000E+00  0.28025361166E+03  0.28025361166E+03  0.00000000000E+00 0. -1.
         21   -1    0    0  501  503 -0.00000000000E+00 -0.00000000000E+00 -0.22866201366E+03  0.22866201366E+03  0.00000000000E+00 0. -1.
          6    2    1    2  501    0 -0.10870759661E+03 -0.14541830808E+03  0.69752508240E+02  0.25807781146E+03  0.16963171424E+03 0.  0.
         24    2    3    3    0    0  0.88104191258E+01 -0.83541020571E+02  0.25214697147E+02  0.11791722731E+03  0.78816025916E+02 0.  0.
         -6    2    1    2    0  502  0.10870759661E+03  0.14541830808E+03 -0.18160910239E+02  0.25083781386E+03  0.17212194606E+03 0.  0.
        -24    2    5    5    0    0 -0.77190449630E+01  0.89134499230E+02  0.86008473895E+00  0.12004439561E+03  0.80033583978E+02 0.  0.
          5    1    3    3  501    0 -0.11751801574E+03 -0.61877287512E+02  0.44537811094E+02  0.14016058415E+03  0.47000000000E+01 0. -1.
        -11    1    4    4    0    0 -0.69808298914E+01 -0.32270178179E+02  0.49119598653E+02  0.59184722331E+02  0.00000000000E+00 0.  1.
         12    1    4    4    0    0  0.15791249017E+02 -0.51270842392E+02 -0.23904901506E+02  0.58732504979E+02  0.00000000000E+00 0. -1.
         -5    1    5    5    0  502  0.11642664157E+03  0.56283808853E+02 -0.19020994977E+02  0.13079341825E+03  0.47000000000E+01 0.  1.
         11    1    6    6    0    0 -0.29019997067E+02  0.29503646476E+02 -0.28499520086E+02  0.50247865928E+02  0.00000000000E+00 0. -1.
        -12    1    6    6    0    0  0.21300952104E+02  0.59630852754E+02  0.29359604825E+02  0.69796529686E+02  0.00000000000E+00 0.  1.
</event>
<event>
12    1  0.9966151E-001  0.2205285E+03  0.7818608E-02  0.1133845E+00
         21   -1    0    0  501  502  0.00000000000E+00  0.00000000000E+00  0.65887677994E+03  0.65887677994E+03  0.00000000000E+00 0. -1.
         21   -1    0    0  502  503 -0.00000000000E+00 -0.00000000000E+00 -0.95889656266E+02  0.95889656266E+02  0.00000000000E+00 0. -1.
         -6    2    1    2    0  503 -0.13007134083E+03 -0.33877808094E+02  0.98753115448E+02  0.24162987254E+03  0.17483294286E+03 0.  0.
        -24    2    3    3    0    0 -0.10075610383E+03 -0.88183278847E+02  0.88238763852E+02  0.17885162103E+03  0.79206942690E+02 0.  0.
          6    2    1    2  501    0  0.13007134083E+03  0.33877808094E+02  0.46423400822E+03  0.51313656366E+03  0.17242290737E+03 0.  0.
         24    2    5    5    0    0  0.14799926123E+03 -0.92227113550E+01  0.36444842310E+03  0.40287180000E+03  0.86569015275E+02 0.  0.
          5    1    5    5  501    0 -0.17927920398E+02  0.43100519449E+02  0.99785585126E+02  0.11026476366E+03  0.47000000000E+01 0. -1.
        -13    1    6    6    0    0  0.70466288211E+02  0.38806029935E+02  0.16560985597E+03  0.18411417688E+03  0.00000000000E+00 0.  1.
         14    1    6    6    0    0  0.77532973017E+02 -0.48028741290E+02  0.19883856713E+03  0.21875762312E+03  0.00000000000E+00 0. -1.
         -5    1    3    3    0  503 -0.29315236999E+02  0.54305470753E+02  0.10514351596E+02  0.62778251517E+02  0.47000000000E+01 0.  1.
         13    1    4    4    0    0 -0.67421578819E+02 -0.41632216046E+02  0.71157404347E+01  0.79558434281E+02  0.00000000000E+00 0. -1.
        -14    1    4    4    0    0 -0.33334525012E+02 -0.46551062800E+02  0.81123023417E+02  0.99293186745E+02  0.00000000000E+00 0.  1.
</event>
<event>
12    1  0.9966151E-001  0.1815204E+03  0.7818608E-02  0.1166529E+00
         21   -1    0    0  501  502  0.00000000000E+00  0.00000000000E+00  0.34683171328E+04  0.34683171328E+04  0.00000000000E+00 0.  1.
         21   -1    0    0  502  503 -0.00000000000E+00 -0.00000000000E+00 -0.10501911182E+02  0.10501911182E+02  0.00000000000E+00 0.  1.
         -6    2    1    2    0  503  0.35417867254E+02 -0.45082299804E+02  0.22736672484E+04  0.22808390453E+04  0.17139765049E+03 0.  0.
        -24    2    3    3    0    0 -0.20576226175E+02 -0.81254997191E+02  0.13878636075E+04  0.13925181669E+04  0.76913565555E+02 0.  0.
          6    2    1    2  501    0 -0.35417867254E+02  0.45082299804E+02  0.11841479732E+04  0.11979799988E+04  0.17222896367E+03 0.  0.
         24    2    5    5    0    0 -0.59081107119E+02 -0.26360082791E+02  0.56444212724E+03  0.57370330653E+03  0.79719117744E+02 0.  0.
          5    1    5    5  501    0  0.23663239865E+02  0.71442382595E+02  0.61970584595E+03  0.62427669222E+03  0.47000000000E+01 0. -1.
        -11    1    6    6    0    0 -0.72311098262E+02 -0.28468893966E+01  0.46785872512E+03  0.47342241854E+03  0.00000000000E+00 0.  1.
         12    1    6    6    0    0  0.13229991143E+02 -0.23513193394E+02  0.96583402128E+02  0.10028088799E+03  0.00000000000E+00 0. -1.
         -5    1    3    3    0  503  0.55994093428E+02  0.36172697387E+02  0.88580364095E+03  0.88832087832E+03  0.47000000000E+01 0.  1.
         13    1    4    4    0    0  0.76214779658E+01 -0.27026024088E+02  0.12241426069E+03  0.12559356721E+03  0.00000000000E+00 0. -1.
        -14    1    4    4    0    0 -0.28197704140E+02 -0.54228973103E+02  0.12654493468E+04  0.12669245997E+04  0.00000000000E+00 0.  1.
</event>
<event>
12    1  0.9966151E-001  0.2137386E+03  0.7818608E-02  0.1138700E+00
         21   -1    0    0  501  502  0.00000000000E+00  0.00000000000E+00  0.28278530744E+03  0.28278530744E+03  0.00000000000E+00 0. -1.
         21   -1    0    0  502  503 -0.00000000000E+00 -0.00000000000E+00 -0.16689949470E+03  0.16689949470E+03  0.00000000000E+00 0. -1.
         -6    2    1    2    0  503  0.11901903050E+03 -0.41870382470E+02  0.16848766839E+02  0.21440166478E+03  0.17252690911E+03 0.  0.
        -24    2    3    3    0    0  0.98042482915E+02 -0.93643648342E+02  0.14488301519E+02  0.15829330173E+03  0.80407693412E+02 0.  0.
          6    2    1    2  501    0 -0.11901903050E+03  0.41870382470E+02  0.99037045905E+02  0.23528313736E+03  0.17213703761E+03 0.  0.
         24    2    5    5    0    0 -0.13571211577E+03  0.70661873499E+02  0.96300639827E+02  0.20156093444E+03  0.89118563310E+02 0.  0.
          5    1    5    5  501    0  0.16693085277E+02 -0.28791491029E+02  0.27364060778E+01  0.33722202923E+02  0.47000000000E+01 0. -1.
        -13    1    6    6    0    0 -0.63906062510E+02  0.16131555570E+01  0.77020886579E+02  0.10009397617E+03  0.00000000000E+00 0.  1.
         14    1    6    6    0    0 -0.71806053263E+02  0.69048717942E+02  0.19279753249E+02  0.10146695827E+03  0.00000000000E+00 0. -1.
         -5    1    3    3    0  503  0.20976547581E+02  0.51773265872E+02  0.23604653199E+01  0.56108363049E+02  0.47000000000E+01 0.  1.
         11    1    4    4    0    0  0.43135218065E+02 -0.85679873686E+02 -0.12250299310E+02  0.96704486067E+02  0.00000000000E+00 0. -1.
        -12    1    4    4    0    0  0.54907264850E+02 -0.79637746562E+01  0.26738600829E+02  0.61588815660E+02  0.00000000000E+00 0.  1.
</event>
<event>
12    1  0.1104110E+000  0.2249113E+03  0.7818608E-02  0.1130402E+00
         21   -1    0    0  503  502  0.00000000000E+00  0.00000000000E+00  0.54514268037E+03  0.54514268037E+03  0.00000000000E+00 0.  1.
         21   -1    0    0  501  503 -0.00000000000E+00 -0.00000000000E+00 -0.22372434037E+03  0.22372434037E+03  0.00000000000E+00 0. -1.
          6    2    1    2  501    0  0.90429747197E+02 -0.11140161720E+03  0.45502727080E+03  0.50726342080E+03  0.17227449441E+03 0.  0.
         24    2    3    3    0    0  0.64334636769E+02  0.19708793324E+02  0.16660176866E+03  0.18932906466E+03  0.59682186465E+02 0.  0.
         -6    2    1    2    0  502 -0.90429747197E+02  0.11140161720E+03 -0.13360893080E+03  0.26160359994E+03  0.17319710627E+03 0.  0.
        -24    2    5    5    0    0  0.87474746467E+01  0.66506627847E+01 -0.57676859620E+02  0.98518796187E+02  0.79111209309E+02 0.  0.
          5    1    3    3  501    0  0.26095110428E+02 -0.13111041052E+03  0.28842550214E+03  0.31793435615E+03  0.47000000000E+01 0. -1.
        -13    1    4    4    0    0  0.51368274765E+02 -0.13610973215E+02  0.11334143805E+03  0.12518082850E+03  0.00000000000E+00 0.  1.
         14    1    4    4    0    0  0.12966362004E+02  0.33319766539E+02  0.53260330610E+02  0.64148236160E+02  0.00000000000E+00 0. -1.
         -5    1    5    5    0  502 -0.99177221844E+02  0.10475095441E+03 -0.75932071177E+02  0.16308480375E+03  0.47000000000E+01 0.  1.
         13    1    6    6    0    0  0.36285259867E+02  0.22686727265E+02 -0.49861958976E+02  0.65707858210E+02  0.00000000000E+00 0. -1.
        -14    1    6    6    0    0 -0.27537785220E+02 -0.16036064481E+02 -0.78149006446E+01  0.32810937977E+02  0.00000000000E+00 0.  1.
</event>
<event>
12    1  0.9966151E-001  0.2337142E+03  0.7818608E-02  0.1124115E+00
         21   -1    0    0  503  502  0.00000000000E+00  0.00000000000E+00  0.31722102116E+03  0.31722102116E+03  0.00000000000E+00 0.  1.
         21   -1    0    0  501  503 -0.00000000000E+00 -0.00000000000E+00 -0.37642355810E+03  0.37642355810E+03  0.00000000000E+00 0.  1.
          6    2    1    2  501    0 -0.55561085741E+01  0.15577467120E+03  0.22604023200E+03  0.32488209383E+03  0.17365935011E+03 0.  0.
         24    2    3    3    0    0  0.25609431751E+02  0.10127090872E+03  0.55367516388E+02  0.14296668249E+03  0.80388248419E+02 0.  0.
         -6    2    1    2    0  502  0.55561085741E+01 -0.15577467120E+03 -0.28524276894E+03  0.36876248543E+03  0.17414280030E+03 0.  0.
        -24    2    5    5    0    0  0.28476965723E+01 -0.55389598499E+02 -0.23945717514E+03  0.25829570800E+03  0.79377686060E+02 0.  0.
          5    1    3    3  501    0 -0.31165540325E+02  0.54503762482E+02  0.17067271561E+03  0.18191541134E+03  0.47000000000E+01 0. -1.
        -11    1    4    4    0    0 -0.27626104864E+02  0.24218035273E+02  0.64291573765E+01  0.37296768855E+02  0.00000000000E+00 0.  1.
         12    1    4    4    0    0  0.53235536615E+02  0.77052873449E+02  0.48938359012E+02  0.10566991364E+03  0.00000000000E+00 0. -1.
         -5    1    5    5    0  502  0.27084120018E+01 -0.10038507270E+03 -0.45785593801E+02  0.11046677744E+03  0.47000000000E+01 0.  1.
         11    1    6    6    0    0  0.27479011111E+02 -0.39289344513E+02 -0.61797976444E+02  0.78215973665E+02  0.00000000000E+00 0. -1.
        -12    1    6    6    0    0 -0.24631314538E+02 -0.16100253986E+02 -0.17765919870E+03  0.18007973433E+03  0.00000000000E+00 0.  1.
</event>
<event>
12    1  0.9966151E-001  0.4091117E+03  0.7818608E-02  0.1040748E+00
         21   -1    0    0  501  502  0.00000000000E+00  0.00000000000E+00  0.13491035879E+04  0.13491035879E+04  0.00000000000E+00 0. -1.
         21   -1    0    0  502  503 -0.00000000000E+00 -0.00000000000E+00 -0.18570646522E+03  0.18570646522E+03  0.00000000000E+00 0. -1.
         -6    2    1    2    0  503  0.27971696047E+03 -0.24279654272E+03  0.13899396531E+03  0.43207834639E+03  0.17372574909E+03 0.  0.
        -24    2    3    3    0    0  0.26330421711E+03 -0.24529048392E+03  0.89212301202E+02  0.37939151722E+03  0.80514324194E+02 0.  0.
          6    2    1    2  501    0 -0.27971696047E+03  0.24279654272E+03  0.10244031574E+04  0.11027317067E+04  0.17153323017E+03 0.  0.
         24    2    5    5    0    0 -0.23071757423E+03  0.11238383076E+03  0.68363699377E+03  0.73455772129E+03  0.79716887710E+02 0.  0.
          5    1    5    5  501    0 -0.48999386241E+02  0.13041271197E+03  0.34076616358E+03  0.36817398541E+03  0.47000000000E+01 0. -1.
        -11    1    6    6    0    0 -0.14796602382E+03  0.69799972959E+02  0.32253318784E+03  0.36165403038E+03  0.00000000000E+00 0.  1.
         12    1    6    6    0    0 -0.82751550403E+02  0.42583857796E+02  0.36110380593E+03  0.37290369092E+03  0.00000000000E+00 0. -1.
         -5    1    3    3    0  503  0.16412743359E+02  0.24939412010E+01  0.49781664104E+02  0.52686829172E+02  0.47000000000E+01 0.  1.
         13    1    4    4    0    0  0.79216916694E+02 -0.97655993719E+02 -0.36589170363E+01  0.12579904878E+03  0.00000000000E+00 0. -1.
        -14    1    4    4    0    0  0.18408730041E+03 -0.14763449020E+03  0.92871218238E+02  0.25359246844E+03  0.00000000000E+00 0.  1.
</event>
<event>
12    1  0.9966151E-001  0.2524378E+03  0.7818608E-02  0.1111855E+00
         21   -1    0    0  501  502  0.00000000000E+00  0.00000000000E+00  0.15187762023E+04  0.15187762023E+04  0.00000000000E+00 0. -1.
         21   -1    0    0  502  503 -0.00000000000E+00 -0.00000000000E+00 -0.49346286475E+02  0.49346286475E+02  0.00000000000E+00 0. -1.
         -6    2    1    2    0  503 -0.11150110401E+03 -0.14601425560E+03  0.10392264417E+04  0.10693240460E+04  0.17236490101E+03 0.  0.
        -24    2    3    3    0    0 -0.70995729341E+02 -0.98509844364E+01  0.37367609252E+03  0.38876509989E+03  0.79793767212E+02 0.  0.
          6    2    1    2  501    0  0.11150110401E+03  0.14601425560E+03  0.43020347414E+03  0.49879844283E+03  0.17312480577E+03 0.  0.
         24    2    5    5    0    0  0.98097824557E+02  0.15442189089E+03  0.25872169311E+03  0.32652416310E+03  0.78815043202E+02 0.  0.
          5    1    5    5  501    0  0.13403279458E+02 -0.84076352907E+01  0.17148178103E+03  0.17227427973E+03  0.47000000000E+01 0. -1.
        -13    1    6    6    0    0  0.51640595936E+02  0.13993044635E+03  0.17759633287E+03  0.23192183686E+03  0.00000000000E+00 0.  1.
         14    1    6    6    0    0  0.46457228620E+02  0.14491444539E+02  0.81125360243E+02  0.94602326242E+02  0.00000000000E+00 0. -1.
         -5    1    3    3    0  503 -0.40505374673E+02 -0.13616327116E+03  0.66555034918E+03  0.68055894607E+03  0.47000000000E+01 0.  1.
         13    1    4    4    0    0 -0.44627277014E+02 -0.42545264916E+02  0.17084496692E+03  0.18163065860E+03  0.00000000000E+00 0. -1.
        -14    1    4    4    0    0 -0.26368452327E+02  0.32694280479E+02  0.20283112560E+03  0.20713444129E+03  0.00000000000E+00 0.  1.
</event>
<event>
12    1  0.9966151E-001  0.2209289E+03  0.7818608E-02  0.1134163E+00
         21   -1    0    0  501  502  0.00000000000E+00  0.00000000000E+00  0.31923207447E+02  0.31923207447E+02  0.00000000000E+00 0.  1.
         21   -1    0    0  502  503 -0.00000000000E+00 -0.00000000000E+00 -0.16128061578E+04  0.16128061578E+04  0.00000000000E+00 0.  1.
         -6    2    1    2    0  503 -0.61575422161E+02 -0.11518340132E+03 -0.10228632303E+04  0.10464505596E+04  0.17818764626E+03 0.  0.
        -24    2    3    3    0    0 -0.10394463942E+03 -0.11917879684E+03 -0.82948622110E+03  0.84839028737E+03  0.81918343690E+02 0.  0.
          6    2    1    2  501    0  0.61575422161E+02  0.11518340132E+03 -0.55801972001E+03  0.59827880558E+03  0.17173459970E+03 0.  0.
         24    2    5    5    0    0 -0.47228486397E+01  0.32935445698E+02 -0.39281200801E+03  0.40212614814E+03  0.79354372934E+02 0.  0.
          5    1    5    5  501    0  0.66298270801E+02  0.82247955618E+02 -0.16520771200E+03  0.19615265744E+03  0.47000000000E+01 0. -1.
        -11    1    6    6    0    0 -0.32086859067E+02  0.45699558879E+02 -0.25835572602E+03  0.26432120114E+03  0.00000000000E+00 0.  1.
         12    1    6    6    0    0  0.27364010428E+02 -0.12764113181E+02 -0.13445628199E+03  0.13780494700E+03  0.00000000000E+00 0. -1.
         -5    1    3    3    0  503  0.42369217257E+02  0.39953955256E+01 -0.19337700920E+03  0.19806027225E+03  0.47000000000E+01 0.  1.
         13    1    4    4    0    0 -0.18695284023E+02 -0.37698665531E+02 -0.87512690161E+02  0.97103933838E+02  0.00000000000E+00 0. -1.
        -14    1    4    4    0    0 -0.85249355395E+02 -0.81480131310E+02 -0.74197353094E+03  0.75128635354E+03  0.00000000000E+00 0.  1.
</event>
<event>
12    1  0.9966151E-001  0.1755267E+03  0.7818608E-02  0.1172269E+00
         21   -1    0    0  503  502  0.00000000000E+00  0.00000000000E+00  0.17263626533E+03  0.17263626533E+03  0.00000000000E+00 0.  1.
         21   -1    0    0  501  503 -0.00000000000E+00 -0.00000000000E+00 -0.18685801860E+03  0.18685801860E+03  0.00000000000E+00 0.  1.
          6    2    1    2  501    0  0.10668746320E+02 -0.36430044373E+02 -0.45797169742E+02  0.18115015351E+03  0.17110530991E+03 0.  0.
         24    2    3    3    0    0  0.69542340091E+02 -0.73827008865E+01 -0.39271858450E+02  0.11501001521E+03  0.82428049809E+02 0.  0.
         -6    2    1    2    0  502 -0.10668746320E+02  0.36430044373E+02  0.31575416480E+02  0.17834413042E+03  0.17137284396E+03 0.  0.
        -24    2    5    5    0    0  0.11459141672E+02  0.25342790079E+02 -0.46181636658E+02  0.96607847485E+02  0.80167098578E+02 0.  0.
          5    1    3    3  501    0 -0.58873593772E+02 -0.29047343486E+02 -0.65253112924E+01  0.66140138302E+02  0.47000000000E+01 0. -1.
        -13    1    4    4    0    0  0.25018925098E+02 -0.29074452373E+02  0.15317095503E+02  0.41302346284E+02  0.00000000000E+00 0.  1.
         14    1    4    4    0    0  0.44523414993E+02  0.21691751487E+02 -0.54588953953E+02  0.73707668929E+02  0.00000000000E+00 0. -1.
         -5    1    5    5    0  502 -0.22127887991E+02  0.11087254294E+02  0.77757053138E+02  0.81736282931E+02  0.47000000000E+01 0.  1.
         11    1    6    6    0    0  0.27779798064E+02 -0.85995250413E+01  0.84219556156E+01  0.30275375271E+02  0.00000000000E+00 0. -1.
        -12    1    6    6    0    0 -0.16320656392E+02  0.33942315120E+02 -0.54603592274E+02  0.66332472214E+02  0.00000000000E+00 0.  1.
</event>
<event>
12    1  0.9966151E-001  0.2987482E+03  0.7818608E-02  0.1085892E+00
         21   -1    0    0  501  502  0.00000000000E+00  0.00000000000E+00  0.31106859742E+03  0.31106859742E+03  0.00000000000E+00 0. -1.
         21   -1    0    0  502  503 -0.00000000000E+00 -0.00000000000E+00 -0.32769626352E+03  0.32769626352E+03  0.00000000000E+00 0.  1.
         -6    2    1    2    0  503 -0.10507485205E+03  0.22087005710E+03  0.10460914828E+03  0.31653367308E+03  0.17154062385E+03 0.  0.
        -24    2    3    3    0    0 -0.34942747976E+02  0.19336876490E+03  0.38704628951E+02  0.21633223215E+03  0.81786988530E+02 0.  0.
          6    2    1    2  501    0  0.10507485205E+03 -0.22087005710E+03 -0.12123681437E+03  0.32223118786E+03  0.17120241416E+03 0.  0.
         24    2    5    5    0    0  0.10027514128E+02 -0.49083537159E+02 -0.88298872436E+02  0.12310408549E+03  0.69628875700E+02 0.  0.
          5    1    5    5  501    0  0.95047337926E+02 -0.17178651994E+03 -0.32937941931E+02  0.19912710237E+03  0.47000000000E+01 0. -1.
        -13    1    6    6    0    0  0.34154053986E+02 -0.45843402679E+02 -0.77917332945E+02  0.96639679978E+02  0.00000000000E+00 0.  1.
         14    1    6    6    0    0 -0.24126539857E+02 -0.32401344796E+01 -0.10381539491E+02  0.26464405513E+02  0.00000000000E+00 0. -1.
         -5    1    3    3    0  503 -0.70132104079E+02  0.27501292204E+02  0.65904519326E+02  0.10020144092E+03  0.47000000000E+01 0.  1.
         13    1    4    4    0    0 -0.14861825920E+02  0.14020068820E+03  0.63126372150E+02  0.15447344659E+03  0.00000000000E+00 0. -1.
        -14    1    4    4    0    0 -0.20080922056E+02  0.53168076696E+02 -0.24421743199E+02  0.61858785561E+02  0.00000000000E+00 0.  1.
</event>
<event>
12    1  0.9966151E-001  0.1912864E+03  0.7818608E-02  0.1158044E+00
         21   -1    0    0  503  502  0.00000000000E+00  0.00000000000E+00  0.29639294388E+03  0.29639294388E+03  0.00000000000E+00 0.  1.
         21   -1    0    0  501  503 -0.00000000000E+00 -0.00000000000E+00 -0.26230771177E+03  0.26230771177E+03  0.00000000000E+00 0.  1.
          6    2    1    2  501    0  0.72675007082E+02 -0.26537648811E+02  0.22188685206E+03  0.29295777843E+03  0.17494165133E+03 0.  0.
         24    2    3    3    0    0  0.74854183625E+02  0.53500357184E+01  0.58371747212E+02  0.12628188711E+03  0.83114875035E+02 0.  0.
         -6    2    1    2    0  502 -0.72675007082E+02  0.26537648811E+02 -0.18780161995E+03  0.26574287721E+03  0.17135905250E+03 0.  0.
        -24    2    5    5    0    0 -0.94827464827E+02  0.61593008014E+02 -0.17074483569E+03  0.22065814052E+03  0.82160022768E+02 0.  0.
          5    1    3    3  501    0 -0.21791765426E+01 -0.31887684529E+02  0.16351510484E+03  0.16667589132E+03  0.47000000000E+01 0. -1.
        -13    1    4    4    0    0 -0.11296202991E+02 -0.37934279205E+01  0.34380667795E+02  0.36387149042E+02  0.00000000000E+00 0.  1.
         14    1    4    4    0    0  0.86150386616E+02  0.91434636389E+01  0.23991079417E+02  0.89894738072E+02  0.00000000000E+00 0. -1.
         -5    1    5    5    0  502  0.22152457745E+02 -0.35055359204E+02 -0.17056784259E+02  0.45084736689E+02  0.47000000000E+01 0.  1.
         13    1    6    6    0    0 -0.44874862568E+02 -0.13075497889E+02 -0.37341671592E+02  0.59825766797E+02  0.00000000000E+00 0. -1.
        -14    1    6    6    0    0 -0.49952602259E+02  0.74668505903E+02 -0.13340316410E+03  0.16083237372E+03  0.00000000000E+00 0.  1.
</event>
<event>
12    1  0.9966151E-001  0.1824839E+03  0.7818608E-02  0.1165768E+00
         21   -1    0    0  501  502  0.00000000000E+00  0.00000000000E+00  0.65198330109E+03  0.65198330109E+03  0.00000000000E+00 0. -1.
         21   -1    0    0  502  503 -0.00000000000E+00 -0.00000000000E+00 -0.53008988996E+02  0.53008988996E+02  0.00000000000E+00 0. -1.
         -6    2    1    2    0  503  0.69919587287E+01 -0.59195513036E+02  0.22657416418E+03  0.29092303037E+03  0.17247423423E+03 0.  0.
        -24    2    3    3    0    0 -0.18692516457E+02 -0.76234367814E+02  0.23326581197E+03  0.25903442758E+03  0.80776275174E+02 0.  0.
          6    2    1    2  501    0 -0.69919587287E+01  0.59195513036E+02  0.37240014790E+03  0.41406925971E+03  0.17093415524E+03 0.  0.
         24    2    5    5    0    0  0.38087637414E+02  0.87246181945E+02  0.29477783695E+03  0.31990810438E+03  0.79904053122E+02 0.  0.
          5    1    5    5  501    0 -0.45079596143E+02 -0.28050668909E+02  0.77622310959E+02  0.94161155331E+02  0.47000000000E+01 0. -1.
        -11    1    6    6    0    0  0.53815085551E+02  0.50864514228E+02  0.12260079627E+03  0.14322785165E+03  0.00000000000E+00 0.  1.
         12    1    6    6    0    0 -0.15727448137E+02  0.36381667717E+02  0.17217704067E+03  0.17668025273E+03  0.00000000000E+00 0. -1.
         -5    1    3    3    0  503  0.25684475186E+02  0.17038854778E+02 -0.66916477867E+01  0.31888602789E+02  0.47000000000E+01 0.  1.
         11    1    4    4    0    0  0.19519484523E+02  0.71998521751E+01  0.39949636002E+02  0.45042441809E+02  0.00000000000E+00 0. -1.
        -12    1    4    4    0    0 -0.38212000980E+02 -0.83434219989E+02  0.19331617597E+03  0.21399198577E+03  0.00000000000E+00 0.  1.
</event>
<event>
12    1  0.9966151E-001  0.2716149E+03  0.7818608E-02  0.1100525E+00
         21   -1    0    0  503  502  0.00000000000E+00  0.00000000000E+00  0.16867723693E+04  0.16867723693E+04  0.00000000000E+00 0. -1.
         21   -1    0    0  501  503 -0.00000000000E+00 -0.00000000000E+00 -0.62851674801E+02  0.62851674801E+02  0.00000000000E+00 0. -1.
          6    2    1    2  501    0  0.20634355039E+03 -0.27854369513E+02  0.32594379075E+03  0.42353253897E+03  0.17258890505E+03 0.  0.
         24    2    3    3    0    0  0.16223436367E+03 -0.83586775671E+02  0.24464612309E+03  0.31544404644E+03  0.79664817015E+02 0.  0.
         -6    2    1    2    0  502 -0.20634355039E+03  0.27854369513E+02  0.12979769037E+04  0.13260915051E+04  0.17441648611E+03 0.  0.
        -24    2    5    5    0    0 -0.65973018955E+02 -0.37814290189E+02  0.68138543855E+03  0.69030586207E+03  0.80334971042E+02 0.  0.
          5    1    3    3  501    0  0.44109186724E+02  0.55732406158E+02  0.81297667662E+02  0.10808849253E+03  0.47000000000E+01 0. -1.
        -11    1    4    4    0    0  0.13561200445E+03 -0.45823518214E+02  0.13629622156E+03  0.19765391619E+03  0.00000000000E+00 0.  1.
         12    1    4    4    0    0  0.26622359222E+02 -0.37763257457E+02  0.10834990153E+03  0.11779013025E+03  0.00000000000E+00 0. -1.
         -5    1    5    5    0  502 -0.14037053144E+03  0.65668659702E+02  0.61659146516E+03  0.63578564302E+03  0.47000000000E+01 0.  1.
         13    1    6    6    0    0 -0.55773963995E+02 -0.46063976882E+01  0.58819141276E+03  0.59084777397E+03  0.00000000000E+00 0. -1.
        -14    1    6    6    0    0 -0.10199054960E+02 -0.33207892501E+02  0.93194025786E+02  0.99458088101E+02  0.00000000000E+00 0.  1.
</event>
<event>
12    1  0.9966151E-001  0.3017102E+03  0.7818608E-02  0.1084691E+00
         21   -1    0    0  503  502  0.00000000000E+00  0.00000000000E+00  0.45451901645E+03  0.45451901645E+03  0.00000000000E+00 0. -1.
         21   -1    0    0  501  503 -0.00000000000E+00 -0.00000000000E+00 -0.27908157492E+03  0.27908157492E+03  0.00000000000E+00 0.  1.
          6    2    1    2  501    0  0.12780498824E+03  0.21243339815E+03  0.28435801381E+03  0.41283160718E+03  0.16765557611E+03 0.  0.
         24    2    3    3    0    0  0.16680386905E+02  0.43192225882E+02  0.12794532860E+03  0.15694438689E+03  0.78215917705E+02 0.  0.
         -6    2    1    2    0  502 -0.12780498824E+03 -0.21243339815E+03 -0.10892057228E+03  0.32076898419E+03  0.17195053499E+03 0.  0.
        -24    2    5    5    0    0 -0.12020886297E+03 -0.18208853613E+03 -0.27733483889E+02  0.23363721563E+03  0.78808607873E+02 0.  0.
          5    1    3    3  501    0  0.11112460133E+03  0.16924117227E+03  0.15641268521E+03  0.25588722029E+03  0.47000000000E+01 0. -1.
        -13    1    4    4    0    0  0.64524253750E+01  0.61416609326E+02  0.60957547304E+02  0.86772439563E+02  0.00000000000E+00 0.  1.
         14    1    4    4    0    0  0.10227961530E+02 -0.18224383445E+02  0.66987781298E+02  0.70171947331E+02  0.00000000000E+00 0. -1.
         -5    1    5    5    0  502 -0.75961252684E+01 -0.30344862029E+02 -0.81187088392E+02  0.87131768559E+02  0.47000000000E+01 0.  1.
         11    1    6    6    0    0 -0.16988678447E+02 -0.90696129127E+02  0.32578578886E+01  0.92331016848E+02  0.00000000000E+00 0. -1.
        -12    1    6    6    0    0 -0.10322018452E+03 -0.91392406998E+02 -0.30991341777E+02  0.14130619878E+03  0.00000000000E+00 0.  1.
</event>
<event>
12    1  0.9966151E-001  0.2758199E+03  0.7818608E-02  0.1098059E+00
         21   -1    0    0  503  502  0.00000000000E+00  0.00000000000E+00  0.67578848317E+02  0.67578848317E+02  0.00000000000E+00 0.  1.
         21   -1    0    0  501  503 -0.00000000000E+00 -0.00000000000E+00 -0.19169507178E+04  0.19169507178E+04  0.00000000000E+00 0. -1.
          6    2    1    2  501    0 -0.10693295972E+03 -0.18691431966E+03 -0.28689727431E+03  0.39797821504E+03  0.17235136458E+03 0.  0.
         24    2    3    3    0    0 -0.76859420017E+02 -0.28449489115E+02 -0.12371940912E+03  0.16849046810E+03  0.79785974774E+02 0.  0.
         -6    2    1    2    0  502  0.10693295972E+03  0.18691431966E+03 -0.15624745952E+04  0.15865513511E+04  0.17160043202E+03 0.  0.
        -24    2    5    5    0    0  0.12978026855E+03  0.97147518165E+02 -0.11078227079E+04  0.11225357191E+04  0.80837676821E+02 0.  0.
          5    1    3    3  501    0 -0.30073539704E+02 -0.15846483054E+03 -0.16317786518E+03  0.22948774694E+03  0.47000000000E+01 0. -1.
        -13    1    4    4    0    0 -0.42877291316E+02 -0.45613146139E+02 -0.11259462182E+03  0.12882767589E+03  0.00000000000E+00 0.  1.
         14    1    4    4    0    0 -0.33982128701E+02  0.17163657025E+02 -0.11124787298E+02  0.39662792210E+02  0.00000000000E+00 0. -1.
         -5    1    5    5    0  502 -0.22847308832E+02  0.89766801493E+02 -0.45465188731E+03  0.46401563207E+03  0.47000000000E+01 0.  1.
         11    1    6    6    0    0  0.77306701184E+02  0.12138849316E+02 -0.58975129326E+03  0.59492038594E+03  0.00000000000E+00 0. -1.
        -12    1    6    6    0    0  0.52473567368E+02  0.85008668849E+02 -0.51807141466E+03  0.52761533312E+03  0.00000000000E+00 0.  1.
</event>
<event>
12    1  0.9966151E-001  0.2417164E+03  0.7818608E-02  0.1118699E+00
         21   -1    0    0  503  502  0.00000000000E+00  0.00000000000E+00  0.52192754498E+03  0.52192754498E+03  0.00000000000E+00 0.  1.
         21   -1    0    0  501  503 -0.00000000000E+00 -0.00000000000E+00 -0.29507890479E+03  0.29507890479E+03  0.00000000000E+00 0.  1.
          6    2    1    2  501    0 -0.10063074153E+03 -0.13608785118E+03  0.43532775899E+03  0.49780378104E+03  0.17219726272E+03 0.  0.
         24    2    3    3    0    0 -0.89406635292E+02 -0.11918447982E+03  0.20050984602E+03  0.26206399488E+03  0.79213965930E+02 0.  0.
         -6    2    1    2    0  502  0.10063074153E+03  0.13608785118E+03 -0.20847911880E+03  0.31920266873E+03  0.17256984490E+03 0.  0.
        -24    2    5    5    0    0  0.12302463396E+03  0.57035487422E+02 -0.15435335724E+03  0.22070164996E+03  0.80598709778E+02 0.  0.
          5    1    3    3  501    0 -0.11224106238E+02 -0.16903371351E+02  0.23481791297E+03  0.23573978616E+03  0.47000000000E+01 0. -1.
        -13    1    4    4    0    0 -0.11910508889E+02 -0.51071279222E+02  0.12077676284E+03  0.13167065818E+03  0.00000000000E+00 0.  1.
         14    1    4    4    0    0 -0.77496126403E+02 -0.68113200603E+02  0.79733083183E+02  0.13039333671E+03  0.00000000000E+00 0. -1.
         -5    1    5    5    0  502 -0.22393892433E+02  0.79052363753E+02 -0.54125761556E+02  0.98501018763E+02  0.47000000000E+01 0.  1.
         11    1    6    6    0    0  0.12285590457E+03  0.56869832504E+02 -0.10494504420E+03  0.17129277112E+03  0.00000000000E+00 0. -1.
        -12    1    6    6    0    0  0.16872939738E+00  0.16565491808E+00 -0.49408313039E+02  0.49408878843E+02  0.00000000000E+00 0.  1.
</event>
<event>
12    1  0.9966151E-001  0.2739795E+03  0.7818608E-02  0.1099584E+00
         21   -1    0    0  501  502  0.00000000000E+00  0.00000000000E+00  0.73518307318E+02  0.73518307318E+02  0.00000000000E+00 0.  1.
         21   -1    0    0  502  503 -0.00000000000E+00 -0.00000000000E+00 -0.10516415622E+04  0.10516415622E+04  0.00000000000E+00 0.  1.
         -6    2    1    2    0  503 -0.20806258495E+03  0.25358172280E+02 -0.37568003858E+03  0.46497337169E+03  0.17644168679E+03 0.  0.
        -24    2    3    3    0    0 -0.19740960879E+03  0.58822006756E+02 -0.24705626138E+03  0.33155867917E+03  0.80397632583E+02 0.  0.
          6    2    1    2  501    0  0.20806258495E+03 -0.25358172280E+02 -0.60244321628E+03  0.66018649780E+03  0.17022134674E+03 0.  0.
         24    2    5    5    0    0  0.16581705673E+03 -0.61127036395E+02 -0.55040852653E+03  0.58406951394E+03  0.83401679618E+02 0.  0.
          5    1    5    5  501    0  0.42245528220E+02  0.35768864115E+02 -0.52034689753E+02  0.76116983863E+02  0.47000000000E+01 0. -1.
        -11    1    6    6    0    0  0.16218318253E+02  0.19376267157E+02 -0.61600457650E+02  0.66581453563E+02  0.00000000000E+00 0.  1.
         12    1    6    6    0    0  0.14959873848E+03 -0.80503303552E+02 -0.48880806888E+03  0.51748806038E+03  0.00000000000E+00 0. -1.
         -5    1    3    3    0  503 -0.10652976160E+02 -0.33463834476E+02 -0.12862377720E+03  0.13341469252E+03  0.47000000000E+01 0.  1.
         13    1    4    4    0    0 -0.10018460338E+03 -0.13170025392E+01 -0.75734525468E+02  0.12559620853E+03  0.00000000000E+00 0. -1.
        -14    1    4    4    0    0 -0.97225005414E+02  0.60139009295E+02 -0.17132173591E+03  0.20596247064E+03  0.00000000000E+00 0.  1.
</event>
<event>
12    1  0.9966151E-001  0.2149514E+03  0.7818608E-02  0.1138145E+00
         21   -1    0    0  501  502  0.00000000000E+00  0.00000000000E+00  0.66073709975E+03  0.66073709975E+03  0.00000000000E+00 0. -1.
         21   -1    0    0  502  503 -0.00000000000E+00 -0.00000000000E+00 -0.86068122772E+02  0.86068122772E+02  0.00000000000E+00 0.  1.
         -6    2    1    2    0  503  0.12309766263E+03 -0.27024640286E+02  0.12073225123E+03  0.24454764809E+03  0.17130064207E+03 0.  0.
        -24    2    3    3    0    0  0.13953921918E+03  0.18486363982E+02  0.77110343911E+02  0.17922891350E+03  0.79775052197E+02 0.  0.
          6    2    1    2  501    0 -0.12309766263E+03  0.27024640286E+02  0.45393672576E+03  0.50225757444E+03  0.17412855699E+03 0.  0.
         24    2    5    5    0    0 -0.19046785045E+02  0.23232238029E+01  0.92636093769E+02  0.12543270559E+03  0.82363465048E+02 0.  0.
          5    1    5    5  501    0 -0.10405087758E+03  0.24701416483E+02  0.36130063199E+03  0.37682486884E+03  0.47000000000E+01 0. -1.
        -13    1    6    6    0    0 -0.16471256346E+02  0.11454741887E+02  0.10664362474E+03  0.10851440501E+03  0.00000000000E+00 0.  1.
         14    1    6    6    0    0 -0.25755286994E+01 -0.91315180843E+01 -0.14007530973E+02  0.16918300582E+02  0.00000000000E+00 0. -1.
         -5    1    3    3    0  503 -0.16441556551E+02 -0.45511004268E+02  0.43621907315E+02  0.65318734595E+02  0.47000000000E+01 0.  1.
         13    1    4    4    0    0  0.35620063457E+02 -0.30396346416E+02  0.19171604039E+02  0.50599181787E+02  0.00000000000E+00 0. -1.
        -14    1    4    4    0    0  0.10391915572E+03  0.48882710398E+02  0.57938739871E+02  0.12862973171E+03  0.00000000000E+00 0.  1.
</event>
<event>
12    1  0.9966151E-001  0.2033874E+03  0.7818608E-02  0.1147327E+00
         21   -1    0    0  501  502  0.00000000000E+00  0.00000000000E+00  0.50878738942E+03  0.50878738942E+03  0.00000000000E+00 0. -1.
         21   -1    0    0  502  503 -0.00000000000E+00 -0.00000000000E+00 -0.88153601756E+02  0.88153601756E+02  0.00000000000E+00 0. -1.
         -6    2    1    2    0  503  0.97710921988E+02 -0.45688952049E+02  0.29916890021E+03  0.36175747513E+03  0.17242834843E+03 0.  0.
        -24    2    3    3    0    0  0.69873588288E+02  0.34196737093E+02  0.12384130467E+03  0.16703075320E+03  0.80689953540E+02 0.  0.
          6    2    1    2  501    0 -0.97710921988E+02  0.45688952049E+02  0.12146488746E+03  0.23518351605E+03  0.17006664200E+03 0.  0.
         24    2    5    5    0    0 -0.10302255572E+03  0.65406410576E+02  0.39379258835E+02  0.15046556016E+03  0.78724286197E+02 0.  0.
          5    1    5    5  501    0  0.53116337325E+01 -0.19717458527E+02  0.82085628620E+02  0.84717955887E+02  0.47000000000E+01 0. -1.
        -13    1    6    6    0    0 -0.83213810117E+02  0.16158321949E+02  0.46860583164E+02  0.96858369886E+02  0.00000000000E+00 0.  1.
         14    1    6    6    0    0 -0.19808745603E+02  0.49248088626E+02 -0.74813243291E+01  0.53607190277E+02  0.00000000000E+00 0. -1.
         -5    1    3    3    0  503  0.27837333700E+02 -0.79885689141E+02  0.17532759554E+03  0.19472672193E+03  0.47000000000E+01 0.  1.
         13    1    4    4    0    0  0.47180244297E+01 -0.18979030558E+02  0.54915993107E+02  0.58294336384E+02  0.00000000000E+00 0. -1.
        -14    1    4    4    0    0  0.65155563858E+02  0.53175767650E+02  0.68925311564E+02  0.10873641681E+03  0.00000000000E+00 0.  1.
</event>
<event>
12    1  0.9966151E-001  0.2758957E+03  0.7818608E-02  0.1097958E+00
         21   -1    0    0  501  502  0.00000000000E+00  0.00000000000E+00  0.21175880335E+03  0.21175880335E+03  0.00000000000E+00 0.  1.
         21   -1    0    0  502  503 -0.00000000000E+00 -0.00000000000E+00 -0.38516656228E+03  0.38516656228E+03  0.00000000000E+00 0.  1.
         -6    2    1    2    0  503 -0.78059914782E+02 -0.20047244986E+03 -0.16389546571E+03  0.32086575974E+03  0.17265734461E+03 0.  0.
        -24    2    3    3    0    0  0.17619065037E+01 -0.97815426011E+02 -0.17816225718E+02  0.12523543987E+03  0.76128415325E+02 0.  0.
          6    2    1    2  501    0  0.78059914782E+02  0.20047244986E+03 -0.95122932257E+01  0.27605960588E+03  0.17273062504E+03 0.  0.
         24    2    5    5    0    0  0.74140067659E+02  0.15773738456E+03  0.54216085476E+02  0.19908527731E+03  0.79484159390E+02 0.  0.
          5    1    5    5  501    0  0.39198471234E+01  0.42735065297E+02 -0.63728378702E+02  0.76974328574E+02  0.47000000000E+01 0. -1.
        -11    1    6    6    0    0 -0.73115051339E+01  0.34853561674E+02 -0.11849742194E+02  0.37531923195E+02  0.00000000000E+00 0.  1.
         12    1    6    6    0    0  0.81451572793E+02  0.12288382289E+03  0.66065827670E+02  0.16155335411E+03  0.00000000000E+00 0. -1.
         -5    1    3    3    0  503 -0.79821821286E+02 -0.10265702385E+03 -0.14607923999E+03  0.19563031988E+03  0.47000000000E+01 0.  1.
         11    1    4    4    0    0 -0.24892034604E+02 -0.72391971465E+01  0.83938793093E+01  0.27248423292E+02  0.00000000000E+00 0. -1.
        -12    1    4    4    0    0  0.26653941108E+02 -0.90576228864E+02 -0.26210105028E+02  0.97987016576E+02  0.00000000000E+00 0.  1.
</event>
<event>
12    1  0.9966151E-001  0.3502053E+03  0.7818608E-02  0.1063115E+00
         21   -1    0    0  501  502  0.00000000000E+00  0.00000000000E+00  0.50285821737E+03  0.50285821737E+03  0.00000000000E+00 0.  1.
         21   -1    0    0  502  503 -0.00000000000E+00 -0.00000000000E+00 -0.29039416445E+03  0.29039416445E+03  0.00000000000E+00 0. -1.
         -6    2    1    2    0  503 -0.26647502609E+03 -0.14522145505E+03  0.27221241686E+03  0.44355757890E+03  0.17477275352E+03 0.  0.
        -24    2    3    3    0    0 -0.50853293774E+02 -0.54254795582E+02  0.13229805012E+03  0.17085667204E+03  0.78483042657E+02 0.  0.
          6    2    1    2  501    0  0.26647502609E+03  0.14522145505E+03 -0.59748363941E+02  0.34969480293E+03  0.16315139491E+03 0.  0.
         24    2    5    5    0    0  0.96397509194E+02  0.73013272169E+02 -0.29590893595E+02  0.16241974733E+03  0.10431268211E+03 0.  0.
          5    1    5    5  501    0  0.17007751690E+03  0.72208182879E+02 -0.30157470346E+02  0.18727505559E+03  0.47000000000E+01 0. -1.
        -13    1    6    6    0    0  0.10057784883E+03  0.91268029046E+02 -0.11368815587E+02  0.13629015654E+03  0.00000000000E+00 0.  1.
         14    1    6    6    0    0 -0.41803396381E+01 -0.18254756877E+02 -0.18222078009E+02  0.26129590794E+02  0.00000000000E+00 0. -1.
         -5    1    3    3    0  503 -0.21562173232E+03 -0.90966659466E+02  0.13991436674E+03  0.27270090686E+03  0.47000000000E+01 0.  1.
         13    1    4    4    0    0 -0.34182538572E+02 -0.69354055686E+02  0.68819670328E+02  0.10351124580E+03  0.00000000000E+00 0. -1.
        -14    1    4    4    0    0 -0.16670755202E+02  0.15099260104E+02  0.63478379788E+02  0.67345426238E+02  0.00000000000E+00 0.  1.
</event>
<event>
12    1  0.9966151E-001  0.1859576E+03  0.7818608E-02  0.1162223E+00
         21   -1    0    0  501  502  0.00000000000E+00  0.00000000000E+00  0.21576105361E+03  0.21576105361E+03  0.00000000000E+00 0. -1.
         21   -1    0    0  502  503 -0.00000000000E+00 -0.00000000000E+00 -0.30991493005E+03  0.30991493005E+03  0.00000000000E+00 0. -1.
         -6    2    1    2    0  503 -0.59270711340E+02  0.38660819930E+02 -0.22984388192E+03  0.29547608963E+03  0.17166896419E+03 0.  0.
        -24    2    3    3    0    0  0.28128745119E+02  0.79579375623E+01 -0.69814071767E+02  0.11050862732E+03  0.80520786280E+02 0.  0.
          6    2    1    2  501    0  0.59270711340E+02 -0.38660819930E+02  0.13569000549E+03  0.23019989403E+03  0.17196667526E+03 0.  0.
         24    2    5    5    0    0  0.67120336609E+02 -0.71122004930E+02  0.14804750249E+03  0.19428133503E+03  0.79143508725E+02 0.  0.
          5    1    5    5  501    0 -0.78496252695E+01  0.32461185000E+02 -0.12357497006E+02  0.35918559001E+02  0.47000000000E+01 0. -1.
        -11    1    6    6    0    0  0.19344594028E+02  0.16202465920E+02  0.20636350562E+02  0.32597426041E+02  0.00000000000E+00 0.  1.
         12    1    6    6    0    0  0.47775742582E+02 -0.87324470849E+02  0.12741115193E+03  0.16168390898E+03  0.00000000000E+00 0. -1.
         -5    1    3    3    0  503 -0.87399456459E+02  0.30702882367E+02 -0.16002981015E+03  0.18496746231E+03  0.47000000000E+01 0.  1.
         13    1    4    4    0    0  0.25849460201E+02 -0.10126726017E+02  0.93335051245E+01  0.29289238475E+02  0.00000000000E+00 0. -1.
        -14    1    4    4    0    0  0.22792849173E+01  0.18084663579E+02 -0.79147576892E+02  0.81219388845E+02  0.00000000000E+00 0.  1.
</event>
<event>
12    1  0.9966151E-001  0.1867669E+03  0.7818608E-02  0.1161463E+00
         21   -1    0    0  503  502  0.00000000000E+00  0.00000000000E+00  0.13843082221E+02  0.13843082221E+02  0.00000000000E+00 0. -1.
         21   -1    0    0  501  503 -0.00000000000E+00 -0.00000000000E+00 -0.25561041286E+04  0.25561041286E+04  0.00000000000E+00 0. -1.
          6    2    1    2  501    0  0.33883921430E+02 -0.62330743296E+02 -0.14298503039E+04  0.14419669205E+04  0.17252091568E+03 0.  0.
         24    2    3    3    0    0  0.76063284474E+02 -0.11196414198E+02 -0.10824890736E+04  0.10883064440E+04  0.81959371791E+02 0.  0.
         -6    2    1    2    0  502 -0.33883921430E+02  0.62330743296E+02 -0.11124107425E+04  0.11279802904E+04  0.17276757174E+03 0.  0.
        -24    2    5    5    0    0 -0.56015128287E+02  0.33187004010E+02 -0.10561724631E+04  0.10607197379E+04  0.73396312452E+02 0.  0.
          5    1    3    3  501    0 -0.42179363044E+02 -0.51134329098E+02 -0.34736123028E+03  0.35366047642E+03  0.47000000000E+01 0. -1.
        -13    1    4    4    0    0  0.27046853476E+02 -0.40229432205E+02 -0.31526353934E+03  0.31896871122E+03  0.00000000000E+00 0.  1.
         14    1    4    4    0    0  0.49016430998E+02  0.29033018007E+02 -0.76722553431E+03  0.76933773282E+03  0.00000000000E+00 0. -1.
         -5    1    5    5    0  502  0.22131206858E+02  0.29143739287E+02 -0.56238279347E+02  0.67260552484E+02  0.47000000000E+01 0.  1.
         13    1    6    6    0    0  0.99999456817E+01  0.47673754569E+01 -0.29128470856E+02  0.31163995199E+02  0.00000000000E+00 0. -1.
        -14    1    6    6    0    0 -0.66015073969E+02  0.28419628553E+02 -0.10270439923E+04  0.10295557427E+04  0.00000000000E+00 0.  1.
</event>
<event>
12    1  0.9966151E-001  0.2216911E+03  0.7818608E-02  0.1132852E+00
         21   -1    0    0  501  502  0.00000000000E+00  0.00000000000E+00  0.48257643037E+03  0.48257643037E+03  0.00000000000E+00 0. -1.
         21   -1    0    0  502  503 -0.00000000000E+00 -0.00000000000E+00 -0.10603147977E+03  0.10603147977E+03  0.00000000000E+00 0. -1.
         -6    2    1    2    0  503  0.13902151495E+03 -0.13473600728E+02  0.12554711242E+03  0.25372453705E+03  0.17060346928E+03 0.  0.
        -24    2    3    3    0    0  0.70244358920E+01 -0.32413960517E+02  0.37635918359E+02  0.93935819838E+02  0.79419571655E+02 0.  0.
          6    2    1    2  501    0 -0.13902151495E+03  0.13473600728E+02  0.25099783818E+03  0.33488337308E+03  0.17215818093E+03 0.  0.
         24    2    5    5    0    0 -0.11765068127E+03 -0.45175140285E+02  0.12619448749E+03  0.19526119111E+03  0.79494704087E+02 0.  0.
          5    1    5    5  501    0 -0.21370833676E+02  0.58648741013E+02  0.12480335070E+03  0.13962218198E+03  0.47000000000E+01 0. -1.
        -11    1    6    6    0    0 -0.84445748770E+02 -0.63027405737E+02  0.11490791923E+03  0.15590820460E+03  0.00000000000E+00 0.  1.
         12    1    6    6    0    0 -0.33204932501E+02  0.17852265452E+02  0.11286568254E+02  0.39352986509E+02  0.00000000000E+00 0. -1.
         -5    1    3    3    0  503  0.13199707905E+03  0.18940359789E+02  0.87911194061E+02  0.15978871721E+03  0.47000000000E+01 0.  1.
         13    1    4    4    0    0  0.16376614823E+02  0.39081726728E+01 -0.19390930450E+02  0.25680255264E+02  0.00000000000E+00 0. -1.
        -14    1    4    4    0    0 -0.93521789306E+01 -0.36322133190E+02  0.57026848809E+02  0.68255564574E+02  0.00000000000E+00 0.  1.
</event>
<event>
12    1  0.9966151E-001  0.2352079E+03  0.7818608E-02  0.1123127E+00
         21   -1    0    0  501  502  0.00000000000E+00  0.00000000000E+00  0.95721796863E+02  0.95721796863E+02  0.00000000000E+00 0.  1.
         21   -1    0    0  502  503 -0.00000000000E+00 -0.00000000000E+00 -0.58411800332E+03  0.58411800332E+03  0.00000000000E+00 0.  1.
         -6    2    1    2    0  503 -0.15351603822E+03 -0.42198833116E+02 -0.20571115940E+03  0.31247376286E+03  0.17313248070E+03 0.  0.
        -24    2    3    3    0    0 -0.12878640306E+03  0.34555119573E+02 -0.13191972942E+03  0.20306631684E+03  0.77801800243E+02 0.  0.
          6    2    1    2  501    0  0.15351603822E+03  0.42198833116E+02 -0.28268504706E+03  0.36736603732E+03  0.17233413486E+03 0.  0.
         24    2    5    5    0    0  0.89471486831E+02 -0.40590547756E+02 -0.17555073771E+03  0.21751398899E+03  0.82713568260E+02 0.  0.
          5    1    5    5  501    0  0.64044551386E+02  0.82789380871E+02 -0.10713430935E+03  0.14985204832E+03  0.47000000000E+01 0. -1.
        -13    1    6    6    0    0  0.20405198324E+02 -0.53947424198E+02 -0.87748783231E+02  0.10500736000E+03  0.00000000000E+00 0.  1.
         14    1    6    6    0    0  0.69066288507E+02  0.13356876443E+02 -0.87801954481E+02  0.11250662899E+03  0.00000000000E+00 0. -1.
         -5    1    3    3    0  503 -0.24729635154E+02 -0.76753952689E+02 -0.73791429977E+02  0.10940744603E+03  0.47000000000E+01 0.  1.
         11    1    4    4    0    0 -0.75273820147E+02 -0.12715971065E+02 -0.38541356070E+02  0.85517717739E+02  0.00000000000E+00 0. -1.
        -12    1    4    4    0    0 -0.53512582916E+02  0.47271090637E+02 -0.93378373350E+02  0.11754859910E+03  0.00000000000E+00 0.  1.
</event>
<event>
12    1  0.9966151E-001  0.3377806E+03  0.7818608E-02  0.1068472E+00
         21   -1    0    0  501  502  0.00000000000E+00  0.00000000000E+00  0.26725117840E+03  0.26725117840E+03  0.00000000000E+00 0. -1.
         21   -1    0    0  502  503 -0.00000000000E+00 -0.00000000000E+00 -0.43689794535E+03  0.43689794535E+03  0.00000000000E+00 0. -1.
         -6    2    1    2    0  503  0.11164496548E+03 -0.25875069358E+03 -0.15787975902E+03  0.37285623113E+03  0.18622360495E+03 0.  0.
        -24    2    3    3    0    0  0.13458753244E+03 -0.18880474638E+03 -0.63558575005E+02  0.25311746271E+03  0.79168941709E+02 0.  0.
          6    2    1    2  501    0 -0.11164496548E+03  0.25875069358E+03 -0.11767007938E+02  0.33129289262E+03  0.17378146759E+03 0.  0.
         24    2    5    5    0    0 -0.11920124398E+03  0.14890162662E+03  0.39536875650E+02  0.20972771122E+03  0.77729771261E+02 0.  0.
          5    1    5    5  501    0  0.75562785065E+01  0.10984906696E+03 -0.51303883588E+02  0.12156518140E+03  0.47000000000E+01 0. -1.
        -13    1    6    6    0    0 -0.30034088910E+02  0.79210091180E+02 -0.11666020700E+02  0.85512461550E+02  0.00000000000E+00 0.  1.
         14    1    6    6    0    0 -0.89167155075E+02  0.69691535439E+02  0.51202896350E+02  0.12421524967E+03  0.00000000000E+00 0. -1.
         -5    1    3    3    0  503 -0.22942566959E+02 -0.69945947203E+02 -0.94321184010E+02  0.11973876842E+03  0.47000000000E+01 0.  1.
         11    1    4    4    0    0  0.77467496665E+02 -0.93164382204E+02  0.68078391840E+01  0.12135551831E+03  0.00000000000E+00 0. -1.
        -12    1    4    4    0    0  0.57120035772E+02 -0.95640364171E+02 -0.70366414189E+02  0.13176194440E+03  0.00000000000E+00 0.  1.
</event>
<event>
12    1  0.9966151E-001  0.3180405E+03  0.7818608E-02  0.1076717E+00
         21   -1    0    0  501  502  0.00000000000E+00  0.00000000000E+00  0.45627899564E+02  0.45627899564E+02  0.00000000000E+00 0.  1.
         21   -1    0    0  502  503 -0.00000000000E+00 -0.00000000000E+00 -0.22096813941E+04  0.22096813941E+04  0.00000000000E+00 0. -1.
         -6    2    1    2    0  503 -0.21932558646E+03  0.15117284531E+03 -0.11181022977E+04  0.11620738794E+04  0.17118998528E+03 0.  0.
        -24    2    3    3    0    0 -0.91894396751E+02  0.50963297463E+01 -0.47589478974E+03  0.49123140179E+03  0.79761434712E+02 0.  0.
          6    2    1    2  501    0  0.21932558646E+03 -0.15117284531E+03 -0.10459511968E+04  0.10932354142E+04  0.17376082059E+03 0.  0.
         24    2    5    5    0    0  0.44378409624E+02 -0.87619708272E+01 -0.25595776875E+03  0.27165213893E+03  0.78957519162E+02 0.  0.
          5    1    5    5  501    0  0.17494717683E+03 -0.14241087448E+03 -0.78999342807E+03  0.82158327529E+03  0.47000000000E+01 0. -1.
        -13    1    6    6    0    0  0.53503064297E+02 -0.28667605412E+02 -0.12595374498E+03  0.13981686366E+03  0.00000000000E+00 0.  1.
         14    1    6    6    0    0 -0.91246546730E+01  0.19905634585E+02 -0.13000402377E+03  0.13183527527E+03  0.00000000000E+00 0. -1.
         -5    1    3    3    0  503 -0.12743118971E+03  0.14607651556E+03 -0.64220750793E+03  0.67084247760E+03  0.47000000000E+01 0.  1.
         13    1    4    4    0    0 -0.97867327720E+02  0.17012279313E+02 -0.45943719431E+03  0.47005315337E+03  0.00000000000E+00 0. -1.
        -14    1    4    4    0    0  0.59729309699E+01 -0.11915949566E+02 -0.16457595436E+02  0.21178248416E+02  0.00000000000E+00 0.  1.
</event>
<event>
12    1  0.9966151E-001  0.1962860E+03  0.7818608E-02  0.1152963E+00
         21   -1    0    0  503  502  0.00000000000E+00  0.00000000000E+00  0.94435880686E+03  0.94435880686E+03  0.00000000000E+00 0. -1.
         21   -1    0    0  501  503 -0.00000000000E+00 -0.00000000000E+00 -0.41395096454E+02  0.41395096454E+02  0.00000000000E+00 0. -1.
          6    2    1    2  501    0 -0.93320980822E+02  0.21049636352E+02  0.38960880768E+03  0.43615272528E+03  0.17112067115E+03 0.  0.
         24    2    3    3    0    0 -0.92550520927E+02  0.56222544259E+02  0.18385065428E+03  0.22735561144E+03  0.78504379276E+02 0.  0.
         -6    2    1    2    0  502  0.93320980822E+02 -0.21049636352E+02  0.51335490273E+03  0.54960117803E+03  0.17139517523E+03 0.  0.
        -24    2    5    5    0    0  0.51061888031E+02 -0.76369018915E+02  0.38682576282E+03  0.40510973103E+03  0.77718594543E+02 0.  0.
          5    1    3    3  501    0 -0.77045989504E+00 -0.35172907907E+02  0.20575815340E+03  0.20879711384E+03  0.47000000000E+01 0. -1.
        -11    1    4    4    0    0 -0.18068445744E+02  0.38645308670E+02  0.12108569938E+03  0.12838097682E+03  0.00000000000E+00 0.  1.
         12    1    4    4    0    0 -0.74482075183E+02  0.17577235590E+02  0.62764954898E+02  0.98974634619E+02  0.00000000000E+00 0. -1.
         -5    1    5    5    0  502  0.42259092791E+02  0.55319382563E+02  0.12652913991E+03  0.14449144700E+03  0.47000000000E+01 0.  1.
         11    1    6    6    0    0  0.22924206152E+02 -0.62584201459E+02  0.12723751141E+03  0.14363734128E+03  0.00000000000E+00 0. -1.
        -12    1    6    6    0    0  0.28137681878E+02 -0.13784817456E+02  0.25958825141E+03  0.26147238975E+03  0.00000000000E+00 0.  1.
</event>
<event>
12    1  0.9966151E-001  0.2181754E+03  0.7818608E-02  0.1135528E+00
         21   -1    0    0  501  502  0.00000000000E+00  0.00000000000E+00  0.39283287353E+03  0.39283287353E+03  0.00000000000E+00 0.  1.
         21   -1    0    0  502  503 -0.00000000000E+00 -0.00000000000E+00 -0.12341382277E+03  0.12341382277E+03  0.00000000000E+00 0.  1.
         -6    2    1    2    0  503  0.27857485499E+02 -0.12637795468E+03  0.17487843236E+03  0.27846857751E+03  0.17382420899E+03 0.  0.
        -24    2    3    3    0    0 -0.23169739742E+02 -0.11707192477E+03  0.17495651804E+03  0.22638714122E+03  0.79991762687E+02 0.  0.
          6    2    1    2  501    0 -0.27857485499E+02  0.12637795468E+03  0.94540618407E+02  0.23777811879E+03  0.17565044356E+03 0.  0.
         24    2    5    5    0    0 -0.86349345440E+02  0.78817763490E+02  0.44527013391E+02  0.14718716918E+03  0.77543268891E+02 0.  0.
          5    1    5    5  501    0  0.58491859941E+02  0.47560191189E+02  0.50013605016E+02  0.90590949614E+02  0.47000000000E+01 0. -1.
        -13    1    6    6    0    0  0.41493459551E-01  0.44871714712E+02  0.28043187727E+02  0.52914014030E+02  0.00000000000E+00 0.  1.
         14    1    6    6    0    0 -0.86390838899E+02  0.33946048778E+02  0.16483825665E+02  0.94273155150E+02  0.00000000000E+00 0. -1.
         -5    1    3    3    0  503  0.51027225241E+02 -0.93060299129E+01 -0.78085682937E-01  0.52081436289E+02  0.47000000000E+01 0.  1.
         11    1    4    4    0    0  0.26536477091E+02 -0.70029693826E+02  0.99225548363E+02  0.12431432774E+03  0.00000000000E+00 0. -1.
        -12    1    4    4    0    0 -0.49706216833E+02 -0.47042230941E+02  0.75730969676E+02  0.10207281348E+03  0.00000000000E+00 0.  1.
</event>
<event>
12    1  0.9966151E-001  0.3248244E+03  0.7818608E-02  0.1073480E+00
         21   -1    0    0  501  502  0.00000000000E+00  0.00000000000E+00  0.32892534006E+03  0.32892534006E+03  0.00000000000E+00 0. -1.
         21   -1    0    0  502  503 -0.00000000000E+00 -0.00000000000E+00 -0.32263366352E+03  0.32263366352E+03  0.00000000000E+00 0. -1.
         -6    2    1    2    0  503 -0.49535292013E+02  0.27127658216E+03  0.29553927994E+02  0.32616611983E+03  0.17165714049E+03 0.  0.
        -24    2    3    3    0    0  0.15451348169E+02  0.14776038874E+03  0.69893174981E+02  0.18080842899E+03  0.75728168097E+02 0.  0.
          6    2    1    2  501    0  0.49535292013E+02 -0.27127658216E+03 -0.23262251458E+02  0.32539288376E+03  0.17115684991E+03 0.  0.
         24    2    5    5    0    0  0.66583411771E+02 -0.79114121991E+02 -0.24507225353E+02  0.13241441489E+03  0.78997330049E+02 0.  0.
          5    1    5    5  501    0 -0.17048119758E+02 -0.19216246017E+03  0.12449738953E+01  0.19297846887E+03  0.47000000000E+01 0. -1.
        -13    1    6    6    0    0 -0.28004223836E+01 -0.49596354924E+02 -0.27829377023E+02  0.56939573345E+02  0.00000000000E+00 0.  1.
         14    1    6    6    0    0  0.69383834154E+02 -0.29517767068E+02  0.33221516696E+01  0.75474841546E+02  0.00000000000E+00 0. -1.
         -5    1    3    3    0  503 -0.64986640181E+02  0.12351619342E+03 -0.40339246987E+02  0.14535769084E+03  0.47000000000E+01 0.  1.
         13    1    4    4    0    0 -0.10160236553E+02  0.47560897700E+01 -0.99840600114E+01  0.15017731221E+02  0.00000000000E+00 0. -1.
        -14    1    4    4    0    0  0.25611584722E+02  0.14300429897E+03  0.79877234992E+02  0.16579069777E+03  0.00000000000E+00 0.  1.
</event>
<event>
12    1  0.9966151E-001  0.1732270E+03  0.7818608E-02  0.1175057E+00
         21   -1    0    0  501  502  0.00000000000E+00  0.00000000000E+00  0.90931400773E+03  0.90931400773E+03  0.00000000000E+00 0. -1.
         21   -1    0    0  502  503 -0.00000000000E+00 -0.00000000000E+00 -0.17188446375E+03  0.17188446375E+03  0.00000000000E+00 0. -1.
         -6    2    1    2    0  503  0.34023131875E+01  0.18445607990E+02  0.85492260829E+03  0.87188477930E+03  0.17011345046E+03 0.  0.
        -24    2    3    3    0    0 -0.47916282843E+02 -0.30507004308E+02  0.58559966496E+03  0.59334053802E+03  0.76807414886E+02 0.  0.
          6    2    1    2  501    0 -0.34023131875E+01 -0.18445607990E+02 -0.11749306431E+03  0.20931369217E+03  0.17220855200E+03 0.  0.
         24    2    5    5    0    0  0.41342003180E+02 -0.33177757507E+02 -0.12800029043E+03  0.16082058052E+03  0.81665537103E+02 0.  0.
          5    1    5    5  501    0 -0.44744316368E+02  0.14732149517E+02  0.10507226117E+02  0.48493111648E+02  0.47000000000E+01 0. -1.
        -13    1    6    6    0    0 -0.13878820815E+02  0.13855809555E+02 -0.92833771651E+01  0.21697608560E+02  0.00000000000E+00 0.  1.
         14    1    6    6    0    0  0.55220823995E+02 -0.47033567062E+02 -0.11871691326E+03  0.13912297196E+03  0.00000000000E+00 0. -1.
         -5    1    3    3    0  503  0.51318596030E+02  0.48952612298E+02  0.26932294333E+03  0.27854424129E+03  0.47000000000E+01 0.  1.
         13    1    4    4    0    0  0.67506454388E+01  0.19963310877E+02  0.12116651517E+03  0.12298548448E+03  0.00000000000E+00 0. -1.
        -14    1    4    4    0    0 -0.54666928282E+02 -0.50470315185E+02  0.46443314979E+03  0.47035505354E+03  0.00000000000E+00 0.  1.
</event>
<event>
12    1  0.9966151E-001  0.1992094E+03  0.7818608E-02  0.1150481E+00
         21   -1    0    0  503  502  0.00000000000E+00  0.00000000000E+00  0.73379409694E+03  0.73379409694E+03  0.00000000000E+00 0.  1.
         21   -1    0    0  501  503 -0.00000000000E+00 -0.00000000000E+00 -0.81479395932E+02  0.81479395932E+02  0.00000000000E+00 0.  1.
          6    2    1    2  501    0 -0.44680125886E+02  0.88257630462E+02  0.89561078187E+02  0.21841605573E+03  0.17291230058E+03 0.  0.
         24    2    3    3    0    0 -0.14173118910E+01  0.12133177946E+03  0.69925033966E+02  0.16033650133E+03  0.78069672760E+02 0.  0.
         -6    2    1    2    0  502  0.44680125886E+02 -0.88257630462E+02  0.56275362282E+03  0.59685743714E+03  0.17251503496E+03 0.  0.
        -24    2    5    5    0    0  0.54348991577E+02 -0.80109128205E+02  0.21791651629E+03  0.25175657493E+03  0.80761869992E+02 0.  0.
          5    1    3    3  501    0 -0.43262813995E+02 -0.33074148997E+02  0.19636044222E+02  0.58079554400E+02  0.47000000000E+01 0. -1.
        -11    1    4    4    0    0 -0.49515265607E+01  0.13044737559E+03  0.73637837081E+02  0.14987850568E+03  0.00000000000E+00 0.  1.
         12    1    4    4    0    0  0.35342146697E+01 -0.91155961321E+01 -0.37128031150E+01  0.10457995656E+02  0.00000000000E+00 0. -1.
         -5    1    5    5    0  502 -0.96688656916E+01 -0.81485022574E+01  0.34483710653E+03  0.34510086221E+03  0.47000000000E+01 0.  1.
         13    1    6    6    0    0  0.60766376262E+02 -0.42708540257E+02  0.81977423537E+02  0.11062038630E+03  0.00000000000E+00 0. -1.
        -14    1    6    6    0    0 -0.64173846848E+01 -0.37400587947E+02  0.13593909275E+03  0.14113618864E+03  0.00000000000E+00 0.  1.
</event>
<event>
12    1  0.9966151E-001  0.3927654E+03  0.7818608E-02  0.1046341E+00
         21   -1    0    0  503  502  0.00000000000E+00  0.00000000000E+00  0.28894755425E+03  0.28894755425E+03  0.00000000000E+00 0. -1.
         21   -1    0    0  501  503 -0.00000000000E+00 -0.00000000000E+00 -0.56512659038E+03  0.56512659038E+03  0.00000000000E+00 0. -1.
          6    2    1    2  501    0  0.29634980865E+03  0.19201282850E+03 -0.37069672493E+02  0.39451082679E+03  0.17196655617E+03 0.  0.
         24    2    3    3    0    0  0.13035255982E+03  0.16270885445E+03 -0.31291995185E+02  0.22578240278E+03  0.80824150319E+02 0.  0.
         -6    2    1    2    0  502 -0.29634980865E+03 -0.19201282850E+03 -0.23910936364E+03  0.45956331784E+03  0.17126885277E+03 0.  0.
        -24    2    5    5    0    0 -0.95109437696E+02 -0.10410270548E+03 -0.15673058493E+03  0.22496956299E+03  0.78508914106E+02 0.  0.
          5    1    3    3  501    0  0.16599724883E+03  0.29303974051E+02 -0.57776773081E+01  0.16872842401E+03  0.47000000000E+01 0. -1.
        -13    1    4    4    0    0  0.12341303741E+03  0.12446414153E+03  0.95235519682E+00  0.17527979721E+03  0.00000000000E+00 0.  1.
         14    1    4    4    0    0  0.69395224046E+01  0.38244712918E+02 -0.32244350382E+02  0.50502605566E+02  0.00000000000E+00 0. -1.
         -5    1    5    5    0  502 -0.20124037095E+03 -0.87910123023E+02 -0.82378778705E+02  0.23459375485E+03  0.47000000000E+01 0.  1.
         13    1    6    6    0    0  0.76695212409E+01 -0.26527989779E+01 -0.35500616205E+02  0.36416378862E+02  0.00000000000E+00 0. -1.
        -14    1    6    6    0    0 -0.10277895894E+03 -0.10144990650E+03 -0.12122996873E+03  0.18855318413E+03  0.00000000000E+00 0.  1.
</event>
<event>
12    1  0.9966151E-001  0.4233672E+03  0.7818608E-02  0.1035999E+00
         21   -1    0    0  501  502  0.00000000000E+00  0.00000000000E+00  0.16090513715E+03  0.16090513715E+03  0.00000000000E+00 0.  1.
         21   -1    0    0  502  503 -0.00000000000E+00 -0.00000000000E+00 -0.11322695854E+04  0.11322695854E+04  0.00000000000E+00 0.  1.
         -6    2    1    2    0  503 -0.16750764216E+03  0.34835251338E+03 -0.40163366769E+03  0.58336279014E+03  0.17202981757E+03 0.  0.
        -24    2    3    3    0    0 -0.48660360246E+02  0.87606403918E+02 -0.12459242460E+03  0.18475627941E+03  0.92568341502E+02 0.  0.
          6    2    1    2  501    0  0.16750764216E+03 -0.34835251338E+03 -0.56973078059E+03  0.70981193245E+03  0.17271807471E+03 0.  0.
         24    2    5    5    0    0  0.10798566545E+03 -0.29644410564E+03 -0.52740778672E+03  0.62008638248E+03  0.82511432797E+02 0.  0.
          5    1    5    5  501    0  0.59521976705E+02 -0.51908407747E+02 -0.42322993872E+02  0.89725549962E+02  0.47000000000E+01 0. -1.
        -11    1    6    6    0    0  0.13222419870E+02 -0.27674379535E+02 -0.11339293912E+03  0.11746770753E+03  0.00000000000E+00 0.  1.
         12    1    6    6    0    0  0.94763245581E+02 -0.26876972610E+03 -0.41401484760E+03  0.50261867495E+03  0.00000000000E+00 0. -1.
         -5    1    3    3    0  503 -0.11884728191E+03  0.26074610947E+03 -0.27704124309E+03  0.39860651072E+03  0.47000000000E+01 0.  1.
         11    1    4    4    0    0 -0.15427735981E+02  0.99483105833E+02 -0.85390958474E+02  0.13200954198E+03  0.00000000000E+00 0. -1.
        -12    1    4    4    0    0 -0.33232624266E+02 -0.11876701914E+02 -0.39201466125E+02  0.52746737438E+02  0.00000000000E+00 0.  1.
</event>
<event>
12    1  0.9966151E-001  0.1965511E+03  0.7818608E-02  0.1153094E+00
         21   -1    0    0  501  502  0.00000000000E+00  0.00000000000E+00  0.60009474468E+02  0.60009474468E+02  0.00000000000E+00 0. -1.
         21   -1    0    0  502  503 -0.00000000000E+00 -0.00000000000E+00 -0.75516547922E+03  0.75516547922E+03  0.00000000000E+00 0. -1.
         -6    2    1    2    0  503  0.94126680675E+02  0.19172172149E+02 -0.18531305802E+03  0.26875739400E+03  0.16929915284E+03 0.  0.
        -24    2    3    3    0    0  0.94279723796E+02 -0.40374238647E+02 -0.11559051800E+03  0.17694714920E+03  0.86199653683E+02 0.  0.
          6    2    1    2  501    0 -0.94126680675E+02 -0.19172172149E+02 -0.50984294673E+03  0.54641755970E+03  0.17147861387E+03 0.  0.
         24    2    5    5    0    0 -0.47854147614E+02 -0.78829484300E+02 -0.31248412277E+03  0.33505829776E+03  0.78189698034E+02 0.  0.
          5    1    5    5  501    0 -0.46272533061E+02  0.59657312151E+02 -0.19735882396E+03  0.21135926193E+03  0.47000000000E+01 0. -1.
        -13    1    6    6    0    0 -0.12468642440E+02 -0.50309302258E+01 -0.17160599555E+03  0.17213191166E+03  0.00000000000E+00 0.  1.
         14    1    6    6    0    0 -0.35385505174E+02 -0.73798554075E+02 -0.14087812722E+03  0.16292638610E+03  0.00000000000E+00 0. -1.
         -5    1    3    3    0  503 -0.15304312093E+00  0.59546410797E+02 -0.69722540027E+02  0.91810244792E+02  0.47000000000E+01 0.  1.
         13    1    4    4    0    0 -0.52006757566E+01 -0.15624589861E+02  0.63428131762E+01  0.17646702684E+02  0.00000000000E+00 0. -1.
        -14    1    4    4    0    0  0.99480399553E+02 -0.24749648786E+02 -0.12193333117E+03  0.15930044652E+03  0.00000000000E+00 0.  1.
</event>
<event>
12    1  0.9966151E-001  0.3146475E+03  0.7818608E-02  0.1078309E+00
         21   -1    0    0  501  502  0.00000000000E+00  0.00000000000E+00  0.14538395409E+03  0.14538395409E+03  0.00000000000E+00 0.  1.
         21   -1    0    0  502  503 -0.00000000000E+00 -0.00000000000E+00 -0.70846862340E+03  0.70846862340E+03  0.00000000000E+00 0.  1.
         -6    2    1    2    0  503  0.52927280626E+02 -0.25799171447E+03 -0.19220480660E+03  0.36748346632E+03  0.16952990464E+03 0.  0.
        -24    2    3    3    0    0  0.74469355717E+02 -0.24654040753E+03 -0.12718778027E+03  0.29788104436E+03  0.78921021630E+02 0.  0.
          6    2    1    2  501    0 -0.52927280626E+02  0.25799171447E+03 -0.37087986271E+03  0.48636911116E+03  0.17216857424E+03 0.  0.
         24    2    5    5    0    0 -0.43206357706E+02  0.10694992038E+03 -0.88020445891E+02  0.16552700110E+03  0.79665013542E+02 0.  0.
          5    1    5    5  501    0 -0.97209229197E+01  0.15104179410E+03 -0.28285941682E+03  0.32084211007E+03  0.47000000000E+01 0. -1.
        -11    1    6    6    0    0 -0.19943068738E+01 -0.13020234521E+02 -0.10679965351E+02  0.16957754178E+02  0.00000000000E+00 0.  1.
         12    1    6    6    0    0 -0.41212050833E+02  0.11997015490E+03 -0.77340480540E+02  0.14856924692E+03  0.00000000000E+00 0. -1.
         -5    1    3    3    0  503 -0.21542075091E+02 -0.11451306945E+02 -0.65017026327E+02  0.69602421958E+02  0.47000000000E+01 0.  1.
         13    1    4    4    0    0  0.38128541001E+02 -0.16239157559E+03 -0.40352337702E+02  0.17161911496E+03  0.00000000000E+00 0. -1.
        -14    1    4    4    0    0  0.36340814716E+02 -0.84148831941E+02 -0.86835442566E+02  0.12626192940E+03  0.00000000000E+00 0.  1.
</event>
<event>
12    1  0.9966151E-001  0.3222107E+03  0.7818608E-02  0.1074692E+00
         21   -1    0    0  501  502  0.00000000000E+00  0.00000000000E+00  0.39153018124E+03  0.39153018124E+03  0.00000000000E+00 0. -1.
         21   -1    0    0  502  503 -0.00000000000E+00 -0.00000000000E+00 -0.28331275543E+03  0.28331275543E+03  0.00000000000E+00 0. -1.
         -6    2    1    2    0  503 -0.26188757367E+03  0.73045161222E+02  0.14041027273E+03  0.35102795735E+03  0.17200257362E+03 0.  0.
        -24    2    3    3    0    0 -0.16847865181E+03  0.32554510889E+02  0.15503206733E+02  0.18981820397E+03  0.79660208673E+02 0.  0.
          6    2    1    2  501    0  0.26188757367E+03 -0.73045161222E+02 -0.32192846923E+02  0.32381497932E+03  0.17291345991E+03 0.  0.
         24    2    5    5    0    0  0.13873963839E+03 -0.61136778577E+02  0.46433569182E+02  0.17714723627E+03  0.78985277218E+02 0.  0.
          5    1    5    5  501    0  0.12314793529E+03 -0.11908382645E+02 -0.78626416105E+02  0.14666774305E+03  0.47000000000E+01 0. -1.
        -11    1    6    6    0    0  0.65216776589E+02 -0.13503369712E+02  0.58589410788E+02  0.88703370842E+02  0.00000000000E+00 0.  1.
         12    1    6    6    0    0  0.73522861798E+02 -0.47633408865E+02 -0.12155841606E+02  0.88443865430E+02  0.00000000000E+00 0. -1.
         -5    1    3    3    0  503 -0.93408921862E+02  0.40490650333E+02  0.12490706599E+03  0.16120975337E+03  0.47000000000E+01 0.  1.
         11    1    4    4    0    0 -0.65258867697E+02 -0.26305700982E+02  0.57629113783E+01  0.70596889908E+02  0.00000000000E+00 0. -1.
        -12    1    4    4    0    0 -0.10321978411E+03  0.58860211871E+02  0.97402953551E+01  0.11922131407E+03  0.00000000000E+00 0.  1.
</event>
<event>
12    1  0.9966151E-001  0.1819333E+03  0.7818608E-02  0.1166394E+00
         21   -1    0    0  503  502  0.00000000000E+00  0.00000000000E+00  0.63618219173E+02  0.63618219173E+02  0.00000000000E+00 0. -1.
         21   -1    0    0  501  503 -0.00000000000E+00 -0.00000000000E+00 -0.21451716881E+04  0.21451716881E+04  0.00000000000E+00 0. -1.
          6    2    1    2  501    0  0.53085468333E+02  0.19195198284E+02 -0.20048256269E+04  0.20130637155E+04  0.17295434586E+03 0.  0.
         24    2    3    3    0    0 -0.69469131780E+01 -0.47337644407E+02 -0.99695013638E+03  0.10012012741E+04  0.78773755563E+02 0.  0.
         -6    2    1    2    0  502 -0.53085468333E+02 -0.19195198284E+02 -0.76727842010E+02  0.19572619177E+03  0.17098262432E+03 0.  0.
        -24    2    5    5    0    0 -0.88747070962E+02 -0.45312955331E+01 -0.96861986815E+02  0.15197400630E+03  0.76271087960E+02 0.  0.
          5    1    3    3  501    0  0.60032381511E+02  0.66532842692E+02 -0.10078754906E+04  0.10118624415E+04  0.47000000000E+01 0. -1.
        -11    1    4    4    0    0 -0.24344639879E+02  0.12158905524E+02 -0.19979678643E+03  0.20164140532E+03  0.00000000000E+00 0.  1.
         12    1    4    4    0    0  0.17397726701E+02 -0.59496549931E+02 -0.79715334995E+03  0.79955986874E+03  0.00000000000E+00 0. -1.
         -5    1    5    5    0  502  0.35661602629E+02 -0.14663902751E+02  0.20134144805E+02  0.43752185465E+02  0.47000000000E+01 0.  1.
         11    1    6    6    0    0 -0.16566711404E+02  0.30968064376E+02 -0.18583569486E+02  0.39734443406E+02  0.00000000000E+00 0. -1.
        -12    1    6    6    0    0 -0.72180359558E+02 -0.35499359909E+02 -0.78278417329E+02  0.11223956290E+03  0.00000000000E+00 0.  1.
</event>
<event>
12    1  0.9966151E-001  0.2320440E+03  0.7818608E-02  0.1125408E+00
         21   -1    0    0  503  502  0.00000000000E+00  0.00000000000E+00  0.20900056735E+03  0.20900056735E+03  0.00000000000E+00 0.  1.
         21   -1    0    0  501  503 -0.00000000000E+00 -0.00000000000E+00 -0.29804089246E+03  0.29804089246E+03  0.00000000000E+00 0.  1.
          6    2    1    2  501    0  0.50298103929E+02  0.14695281881E+03  0.50190083141E+02  0.23740991972E+03  0.17239314175E+03 0.  0.
         24    2    3    3    0    0 -0.12284993902E+02  0.46992026747E+02 -0.25384289250E+02  0.97258644857E+02  0.80347434344E+02 0.  0.
         -6    2    1    2    0  502 -0.50298103929E+02 -0.14695281881E+03 -0.13923040826E+03  0.26963154009E+03  0.17085382820E+03 0.  0.
        -24    2    5    5    0    0 -0.88868745463E+02 -0.12175529210E+03 -0.66612373180E+02  0.18350327087E+03  0.80710823823E+02 0.  0.
          5    1    3    3  501    0  0.62583097831E+02  0.99960792064E+02  0.75574372391E+02  0.14015127487E+03  0.47000000000E+01 0. -1.
        -11    1    4    4    0    0 -0.82088708499E+01  0.38903023043E+02  0.24404898765E+02  0.46652222307E+02  0.00000000000E+00 0.  1.
         12    1    4    4    0    0 -0.40761230520E+01  0.80890037049E+01 -0.49789188015E+02  0.50606422550E+02  0.00000000000E+00 0. -1.
         -5    1    5    5    0  502  0.38570641534E+02 -0.25197526708E+02 -0.72618035076E+02  0.86128269220E+02  0.47000000000E+01 0.  1.
         11    1    6    6    0    0 -0.44260046166E+00 -0.64577100489E+02 -0.35541296645E+02  0.73712831786E+02  0.00000000000E+00 0. -1.
        -12    1    6    6    0    0 -0.88426145002E+02 -0.57178191615E+02 -0.31071076535E+02  0.10979043908E+03  0.00000000000E+00 0.  1.
</event>
<event>
12    1  0.9966151E-001  0.1920800E+03  0.7818608E-02  0.1157217E+00
         21   -1    0    0  503  502  0.00000000000E+00  0.00000000000E+00  0.62597849436E+02  0.62597849436E+02  0.00000000000E+00 0. -1.
         21   -1    0    0  501  503 -0.00000000000E+00 -0.00000000000E+00 -0.62519397266E+03  0.62519397266E+03  0.00000000000E+00 0. -1.
          6    2    1    2  501    0  0.67653826545E+02  0.39413906060E+02 -0.37088426081E+03  0.41640984714E+03  0.17237032704E+03 0.  0.
         24    2    3    3    0    0  0.97762905357E+02  0.67786471203E+02 -0.31994401363E+03  0.35061807058E+03  0.80101611852E+02 0.  0.
         -6    2    1    2    0  502 -0.67653826545E+02 -0.39413906060E+02 -0.19171186241E+03  0.27138197495E+03  0.17539738283E+03 0.  0.
        -24    2    5    5    0    0 -0.55767881857E+02 -0.36490927200E+02 -0.28860212005E+02  0.10800336703E+03  0.79938545384E+02 0.  0.
          5    1    3    3  501    0 -0.30109078813E+02 -0.28372565143E+02 -0.50940247186E+02  0.65791776561E+02  0.47000000000E+01 0. -1.
        -13    1    4    4    0    0  0.73587371269E+02  0.64164578005E+01 -0.12964103350E+03  0.14920814223E+03  0.00000000000E+00 0.  1.
         14    1    4    4    0    0  0.24175534088E+02  0.61370013402E+02 -0.19030298013E+03  0.20140992835E+03  0.00000000000E+00 0. -1.
         -5    1    5    5    0  502 -0.11885944688E+02 -0.29229788597E+01 -0.16285165040E+03  0.16337860792E+03  0.47000000000E+01 0.  1.
         11    1    6    6    0    0  0.15486192628E+02  0.48416097016E+01  0.76044341458E+01  0.17919005700E+02  0.00000000000E+00 0. -1.
        -12    1    6    6    0    0 -0.71254074485E+02 -0.41332536901E+02 -0.36464646151E+02  0.90084361330E+02  0.00000000000E+00 0.  1.
</event>
<event>
12    1  0.9966151E-001  0.1779435E+03  0.7818608E-02  0.1170232E+00
         21   -1    0    0  501  502  0.00000000000E+00  0.00000000000E+00  0.73510425795E+02  0.73510425795E+02  0.00000000000E+00 0. -1.
         21   -1    0    0  502  503 -0.00000000000E+00 -0.00000000000E+00 -0.45848054549E+03  0.45848054549E+03  0.00000000000E+00 0. -1.
         -6    2    1    2    0  503  0.45834047244E+02 -0.83264291793E+01 -0.26175899673E+03  0.31555417518E+03  0.16996051246E+03 0.  0.
        -24    2    3    3    0    0  0.95926512729E+02 -0.23343436961E+02 -0.19437991136E+03  0.23013288529E+03  0.73693846812E+02 0.  0.
          6    2    1    2  501    0 -0.45834047244E+02  0.83264291793E+01 -0.12321112296E+03  0.21643679611E+03  0.17173763879E+03 0.  0.
         24    2    5    5    0    0 -0.52041698137E+02 -0.43603165353E+02 -0.29850759790E+02  0.10932253408E+03  0.80316711980E+02 0.  0.
          5    1    5    5  501    0  0.62076508931E+01  0.51929594532E+02 -0.93360363173E+02  0.10711426203E+03  0.47000000000E+01 0. -1.
        -11    1    6    6    0    0 -0.23073186067E+02 -0.56262637621E+02  0.64898818642E+01  0.61155333978E+02  0.00000000000E+00 0.  1.
         12    1    6    6    0    0 -0.28968512070E+02  0.12659472267E+02 -0.36340641654E+02  0.48167200100E+02  0.00000000000E+00 0. -1.
         -5    1    3    3    0  503 -0.50092465485E+02  0.15017007782E+02 -0.67379085370E+02  0.85421289889E+02  0.47000000000E+01 0.  1.
         11    1    4    4    0    0  0.45874054130E+02 -0.32600046258E+02 -0.44195935960E+02  0.71557477693E+02  0.00000000000E+00 0. -1.
        -12    1    4    4    0    0  0.50052458599E+02  0.92566092974E+01 -0.15018397540E+03  0.15857540760E+03  0.00000000000E+00 0.  1.
</event>
<event>
12    1  0.9966151E-001  0.2137874E+03  0.7818608E-02  0.1138721E+00
         21   -1    0    0  501  502  0.00000000000E+00  0.00000000000E+00  0.65514678402E+03  0.65514678402E+03  0.00000000000E+00 0.  1.
         21   -1    0    0  502  503 -0.00000000000E+00 -0.00000000000E+00 -0.78955426195E+02  0.78955426195E+02  0.00000000000E+00 0.  1.
         -6    2    1    2    0  503 -0.27990263851E+02 -0.12336157882E+03  0.41433087142E+03  0.46595326038E+03  0.17158332042E+03 0.  0.
        -24    2    3    3    0    0 -0.35019592809E+02 -0.14655390467E+03  0.40509661366E+03  0.43959691465E+03  0.80235666122E+02 0.  0.
          6    2    1    2  501    0  0.27990263851E+02  0.12336157882E+03  0.16186048640E+03  0.26814894983E+03  0.17234705753E+03 0.  0.
         24    2    5    5    0    0  0.62494027846E+01  0.40215408413E+02  0.15816591637E+03  0.18199971570E+03  0.80318773059E+02 0.  0.
          5    1    5    5  501    0  0.21740861067E+02  0.83146170409E+02  0.36945700311E+01  0.86149234131E+02  0.47000000000E+01 0. -1.
        -13    1    6    6    0    0  0.26509570001E+02  0.46170865739E+02  0.15032366128E+03  0.15947322435E+03  0.00000000000E+00 0.  1.
         14    1    6    6    0    0 -0.20260167217E+02 -0.59554573256E+01  0.78422550883E+01  0.22526491349E+02  0.00000000000E+00 0. -1.
         -5    1    3    3    0  503  0.70293289579E+01  0.23192325848E+02  0.92342577652E+01  0.26356345731E+02  0.47000000000E+01 0.  1.
         13    1    4    4    0    0  0.25156401615E+02 -0.61661887232E+02  0.16370718973E+03  0.17673448121E+03  0.00000000000E+00 0. -1.
        -14    1    4    4    0    0 -0.60175994425E+02 -0.84892017438E+02  0.24138942393E+03  0.26286243344E+03  0.00000000000E+00 0.  1.
</event>
<event>
12    1  0.9966151E-001  0.1794817E+03  0.7818608E-02  0.1169147E+00
         21   -1    0    0  501  502  0.00000000000E+00  0.00000000000E+00  0.71876592344E+02  0.71876592344E+02  0.00000000000E+00 0.  1.
         21   -1    0    0  502  503 -0.00000000000E+00 -0.00000000000E+00 -0.44751450398E+03  0.44751450398E+03  0.00000000000E+00 0.  1.
         -6    2    1    2    0  503  0.96386946870E+01 -0.38078234246E+02 -0.15518487440E+03  0.23726785486E+03  0.17513090346E+03 0.  0.
        -24    2    3    3    0    0 -0.49701035525E+02 -0.43593478008E+02 -0.57243887083E+02  0.12252401628E+03  0.85817758651E+02 0.  0.
          6    2    1    2  501    0 -0.96386946870E+01  0.38078234246E+02 -0.22045303723E+03  0.28212324146E+03  0.17161330190E+03 0.  0.
         24    2    5    5    0    0  0.22100447603E+02  0.53597608536E+02 -0.61385172492E+02  0.11911127955E+03  0.84013237590E+02 0.  0.
          5    1    5    5  501    0 -0.31739142290E+02 -0.15519374290E+02 -0.15906786474E+03  0.16301196191E+03  0.47000000000E+01 0. -1.
        -11    1    6    6    0    0 -0.26614175080E+02  0.35504153408E+02 -0.89068420108E+01  0.45256944870E+02  0.00000000000E+00 0.  1.
         12    1    6    6    0    0  0.48714622683E+02  0.18093455128E+02 -0.52478330481E+02  0.73854334684E+02  0.00000000000E+00 0. -1.
         -5    1    3    3    0  503  0.59339730212E+02  0.55152437614E+01 -0.97940987317E+02  0.11474383858E+03  0.47000000000E+01 0.  1.
         13    1    4    4    0    0 -0.20063252572E+02 -0.45280776516E+02 -0.73537782688E+02  0.88660522829E+02  0.00000000000E+00 0. -1.
        -14    1    4    4    0    0 -0.29637782953E+02  0.16872985082E+01  0.16293895605E+02  0.33863493450E+02  0.00000000000E+00 0.  1.
</event>
<event>
12    1  0.9966151E-001  0.2448260E+03  0.7818608E-02  0.1116640E+00
         21   -1    0    0  501  502  0.00000000000E+00  0.00000000000E+00  0.55777258981E+03  0.55777258981E+03  0.00000000000E+00 0. -1.
         21   -1    0    0  502  503 -0.00000000000E+00 -0.00000000000E+00 -0.10988706806E+03  0.10988706806E+03  0.00000000000E+00 0. -1.
         -6    2    1    2    0  503  0.15486821977E+03 -0.80950064153E+02  0.17383277138E+03  0.30026257839E+03  0.17147217032E+03 0.  0.
        -24    2    3    3    0    0  0.23069027397E+01 -0.25029084592E+02  0.51294800988E+02  0.96695008286E+02  0.78019171639E+02 0.  0.
          6    2    1    2  501    0 -0.15486821977E+03  0.80950064153E+02  0.27405275037E+03  0.36739707948E+03  0.17128521724E+03 0.  0.
         24    2    5    5    0    0 -0.17166972807E+03  0.43854308892E+02  0.25901225907E+03  0.32373139367E+03  0.79504521595E+02 0.  0.
          5    1    5    5  501    0  0.16801508291E+02  0.37095755261E+02  0.15040491303E+02  0.43665685817E+02  0.47000000000E+01 0. -1.
        -11    1    6    6    0    0 -0.60381603011E+02  0.47796477194E+02  0.68528370329E+02  0.10308529844E+03  0.00000000000E+00 0.  1.
         12    1    6    6    0    0 -0.11128812506E+03 -0.39421683021E+01  0.19048388874E+03  0.22064609523E+03  0.00000000000E+00 0. -1.
         -5    1    3    3    0  503  0.15256131703E+03 -0.55920979561E+02  0.12253797039E+03  0.20356757011E+03  0.47000000000E+01 0.  1.
         13    1    4    4    0    0 -0.89300654136E+01 -0.14011955716E+02 -0.18663760371E+02  0.24988335728E+02  0.00000000000E+00 0. -1.
        -14    1    4    4    0    0  0.11236968153E+02 -0.11017128876E+02  0.69958561359E+02  0.71706672558E+02  0.00000000000E+00 0.  1.
</event>
<event>
12    1  0.9966151E-001  0.6901687E+03  0.7818608E-02  0.9734403E-01
         21   -1    0    0  501  502  0.00000000000E+00  0.00000000000E+00  0.59605493400E+03  0.59605493400E+03  0.00000000000E+00 0. -1.
         21   -1    0    0  502  503 -0.00000000000E+00 -0.00000000000E+00 -0.95051869280E+03  0.95051869280E+03  0.00000000000E+00 0. -1.
         -6    2    1    2    0  503 -0.56939197785E+03 -0.34928273919E+03 -0.48634100812E+03  0.84391832931E+03  0.17165347074E+03 0.  0.
        -24    2    3    3    0    0 -0.21886745691E+03 -0.15973170712E+03 -0.13722984491E+03  0.31410918648E+03  0.80095997048E+02 0.  0.
          6    2    1    2  501    0  0.56939197785E+03  0.34928273919E+03  0.13187724933E+03  0.70265529750E+03  0.17357189251E+03 0.  0.
         24    2    5    5    0    0  0.46647129155E+03  0.21186395244E+03  0.10309054393E+03  0.52850778810E+03  0.78810035242E+02 0.  0.
          5    1    5    5  501    0  0.10292068631E+03  0.13741878675E+03  0.28786705402E+02  0.17414750940E+03  0.47000000000E+01 0. -1.
        -13    1    6    6    0    0  0.27951562250E+03  0.16269408839E+03  0.44199070581E+02  0.32642289665E+03  0.00000000000E+00 0.  1.
         14    1    6    6    0    0  0.18695566904E+03  0.49169864056E+02  0.58891473345E+02  0.20208489145E+03  0.00000000000E+00 0. -1.
         -5    1    3    3    0  503 -0.35052452094E+03 -0.18955103207E+03 -0.34911116322E+03  0.52980914283E+03  0.47000000000E+01 0.  1.
         11    1    4    4    0    0 -0.22085214068E+03 -0.13735828445E+03 -0.12668772022E+03  0.28929698375E+03  0.00000000000E+00 0. -1.
        -12    1    4    4    0    0  0.19846837666E+01 -0.22373422670E+02 -0.10542124683E+02  0.24812202732E+02  0.00000000000E+00 0.  1.
</event>
<event>
12    1  0.9966151E-001  0.2725752E+03  0.7818608E-02  0.1099831E+00
         21   -1    0    0  503  502  0.00000000000E+00  0.00000000000E+00  0.21663382182E+03  0.21663382182E+03  0.00000000000E+00 0.  1.
         21   -1    0    0  501  503 -0.00000000000E+00 -0.00000000000E+00 -0.35821518198E+03  0.35821518198E+03  0.00000000000E+00 0.  1.
          6    2    1    2  501    0  0.19512943933E+03  0.82877231067E+02 -0.11188714431E+02  0.27269093683E+03  0.17114621287E+03 0.  0.
         24    2    3    3    0    0  0.12562354259E+03  0.53203483499E+02  0.60170866536E+02  0.16864344396E+03  0.78792086554E+02 0.  0.
         -6    2    1    2    0  502 -0.19512943933E+03 -0.82877231067E+02 -0.13039264572E+03  0.30215806697E+03  0.17132752801E+03 0.  0.
        -24    2    5    5    0    0 -0.20050297513E+03 -0.99129047108E+02 -0.82375166183E+02  0.25096466160E+03  0.78546688997E+02 0.  0.
          5    1    3    3  501    0  0.69505896738E+02  0.29673747569E+02 -0.71359580968E+02  0.10404749287E+03  0.47000000000E+01 0. -1.
        -11    1    4    4    0    0  0.36921610479E+02  0.27732496138E+02 -0.16116060390E+02  0.48908323064E+02  0.00000000000E+00 0.  1.
         12    1    4    4    0    0  0.88701932109E+02  0.25470987361E+02  0.76286926927E+02  0.11973512090E+03  0.00000000000E+00 0. -1.
         -5    1    5    5    0  502  0.53735358070E+01  0.16251816041E+02 -0.48017479537E+02  0.51193405364E+02  0.47000000000E+01 0.  1.
         13    1    6    6    0    0 -0.12683782549E+03 -0.37513311593E+02 -0.13860954156E+02  0.13299326513E+03  0.00000000000E+00 0. -1.
        -14    1    6    6    0    0 -0.73665149648E+02 -0.61615735515E+02 -0.68514212027E+02  0.11797139647E+03  0.00000000000E+00 0.  1.
</event>
<event>
12    1  0.9966151E-001  0.1876774E+03  0.7818608E-02  0.1160703E+00
         21   -1    0    0  503  502  0.00000000000E+00  0.00000000000E+00  0.13916871412E+03  0.13916871412E+03  0.00000000000E+00 0. -1.
         21   -1    0    0  501  503 -0.00000000000E+00 -0.00000000000E+00 -0.25849536797E+03  0.25849536797E+03  0.00000000000E+00 0. -1.
          6    2    1    2  501    0  0.54860198900E+02  0.48280150308E+02 -0.29048623358E+02  0.18991213416E+03  0.17286463445E+03 0.  0.
         24    2    3    3    0    0  0.53582609452E+02 -0.14038504686E+02  0.31400781133E+02  0.10295543517E+03  0.80905110632E+02 0.  0.
         -6    2    1    2    0  502 -0.54860198900E+02 -0.48280150308E+02 -0.90278030496E+02  0.20775194794E+03  0.17225020971E+03 0.  0.
        -24    2    5    5    0    0 -0.34493469903E+02  0.39666345908E+02 -0.58714803087E+02  0.11200375124E+03  0.79587648075E+02 0.  0.
          5    1    3    3  501    0  0.12775894483E+01  0.62318654993E+02 -0.60449404492E+02  0.86956698985E+02  0.47000000000E+01 0. -1.
        -11    1    4    4    0    0 -0.21701290964E+02 -0.38601141913E+01  0.58518970225E+01  0.22805508322E+02  0.00000000000E+00 0.  1.
         12    1    4    4    0    0  0.75283900416E+02 -0.10178390494E+02  0.25548884111E+02  0.80149926851E+02  0.00000000000E+00 0. -1.
         -5    1    5    5    0  502 -0.20366728997E+02 -0.87946496216E+02 -0.31563227409E+02  0.95748196699E+02  0.47000000000E+01 0.  1.
         13    1    6    6    0    0 -0.54846168910E+02  0.29093952990E+02 -0.63245216015E+02  0.88625716886E+02  0.00000000000E+00 0. -1.
        -14    1    6    6    0    0  0.20352699007E+02  0.10572392918E+02  0.45304129284E+01  0.23378034352E+02  0.00000000000E+00 0.  1.
</event>
<event>
12    1  0.9966151E-001  0.1757273E+03  0.7818608E-02  0.1172702E+00
         21   -1    0    0  503  502  0.00000000000E+00  0.00000000000E+00  0.12606160434E+04  0.12606160434E+04  0.00000000000E+00 0. -1.
         21   -1    0    0  501  503 -0.00000000000E+00 -0.00000000000E+00 -0.27502979905E+02  0.27502979905E+02  0.00000000000E+00 0. -1.
          6    2    1    2  501    0  0.11814976482E+02 -0.27172489266E+02  0.84704300766E+03  0.86507915142E+03  0.17321126859E+03 0.  0.
         24    2    3    3    0    0 -0.45116465115E+02 -0.43425597651E+02  0.70123037967E+03  0.70763466897E+03  0.71424795418E+02 0.  0.
         -6    2    1    2    0  502 -0.11814976482E+02  0.27172489266E+02  0.38607005588E+03  0.42303987192E+03  0.17039573747E+03 0.  0.
        -24    2    5    5    0    0  0.51326890453E+02 -0.13089099444E+02  0.18027422139E+03  0.20399214566E+03  0.79424343794E+02 0.  0.
          5    1    3    3  501    0  0.56931441597E+02  0.16253108385E+02  0.14581262798E+03  0.15744448245E+03  0.47000000000E+01 0. -1.
        -11    1    4    4    0    0 -0.18338746484E+02  0.19135537297E+02  0.16761437283E+03  0.16969695457E+03  0.00000000000E+00 0.  1.
         12    1    4    4    0    0 -0.26777718631E+02 -0.62561134948E+02  0.53361600684E+03  0.53793771441E+03  0.00000000000E+00 0. -1.
         -5    1    5    5    0  502 -0.63141866935E+02  0.40261588711E+02  0.20579583450E+03  0.21904772626E+03  0.47000000000E+01 0.  1.
         13    1    6    6    0    0 -0.20244632541E+02  0.28190079654E+01  0.25107915448E+02  0.32375907258E+02  0.00000000000E+00 0. -1.
        -14    1    6    6    0    0  0.71571522994E+02 -0.15908107410E+02  0.15516630594E+03  0.17161623840E+03  0.00000000000E+00 0.  1.
</event>
<event>
12    1  0.9966151E-001  0.1999499E+03  0.7818608E-02  0.1149831E+00
         21   -1    0    0  501  502  0.00000000000E+00  0.00000000000E+00  0.31859344071E+02  0.31859344071E+02  0.00000000000E+00 0.  1.
         21   -1    0    0  502  503 -0.00000000000E+00 -0.00000000000E+00 -0.12802052275E+04  0.12802052275E+04  0.00000000000E+00 0.  1.
         -6    2    1    2    0  503 -0.89671845305E+02 -0.49263738138E+02 -0.71942118935E+03  0.74669057301E+03  0.17179059462E+03 0.  0.
        -24    2    3    3    0    0  0.18331434660E+02 -0.92342520208E+01 -0.30120432008E+03  0.31287666361E+03  0.82136784040E+02 0.  0.
          6    2    1    2  501    0  0.89671845305E+02  0.49263738138E+02 -0.52892469405E+03  0.56537399853E+03  0.17151813463E+03 0.  0.
         24    2    5    5    0    0  0.84811545126E+02 -0.25823541385E+02 -0.26744508483E+03  0.29324278367E+03  0.81268710462E+02 0.  0.
          5    1    5    5  501    0  0.48603001787E+01  0.75087279523E+02 -0.26147960922E+03  0.27213121486E+03  0.47000000000E+01 0. -1.
        -13    1    6    6    0    0  0.41908591340E+02  0.23652577558E+02 -0.67878299331E+02  0.83205997220E+02  0.00000000000E+00 0.  1.
         14    1    6    6    0    0  0.42902953786E+02 -0.49476118943E+02 -0.19956678550E+03  0.21003678645E+03  0.00000000000E+00 0. -1.
         -5    1    3    3    0  503 -0.10800327996E+03 -0.40029486117E+02 -0.41821686927E+03  0.43381390940E+03  0.47000000000E+01 0.  1.
         11    1    4    4    0    0 -0.21041193417E+02  0.69240646824E+01 -0.24954365902E+02  0.33367572127E+02  0.00000000000E+00 0. -1.
        -12    1    4    4    0    0  0.39372628077E+02 -0.16158316703E+02 -0.27624995418E+03  0.27950909149E+03  0.00000000000E+00 0.  1.
</event>
<event>
12    1  0.9966151E-001  0.2443597E+03  0.7818608E-02  0.1116971E+00
         21   -1    0    0  501  502  0.00000000000E+00  0.00000000000E+00  0.55444909528E+03  0.55444909528E+03  0.00000000000E+00 0.  1.
         21   -1    0    0  502  503 -0.00000000000E+00 -0.00000000000E+00 -0.10766964785E+03  0.10766964785E+03  0.00000000000E+00 0.  1.
         -6    2    1    2    0  503  0.15097153946E+03  0.86366715383E+02  0.21307339868E+03  0.32420967596E+03  0.17163923068E+03 0.  0.
        -24    2    3    3    0    0  0.96155776767E+02  0.40949740811E+02  0.42438800067E+02  0.13926177610E+03  0.81669920128E+02 0.  0.
          6    2    1    2  501    0 -0.15097153946E+03 -0.86366715383E+02  0.23370604875E+03  0.33790906717E+03  0.17120865982E+03 0.  0.
         24    2    5    5    0    0 -0.66268237434E+02 -0.97817238264E+02  0.85341916763E+02  0.16662051090E+03  0.80743176184E+02 0.  0.
          5    1    5    5  501    0 -0.84703302029E+02  0.11450522881E+02  0.14836413199E+03  0.17128855627E+03  0.47000000000E+01 0. -1.
        -11    1    6    6    0    0  0.10076873125E+02 -0.15025446534E+02  0.42388966033E+02  0.46088304991E+02  0.00000000000E+00 0.  1.
         12    1    6    6    0    0 -0.76345110559E+02 -0.82791791729E+02  0.42952950730E+02  0.12053220591E+03  0.00000000000E+00 0. -1.
         -5    1    3    3    0  503  0.54815762696E+02  0.45416974572E+02  0.17063459861E+03  0.18494789986E+03  0.47000000000E+01 0.  1.
         11    1    4    4    0    0  0.92647617624E+02  0.15567256727E+01  0.34811617942E+02  0.98984105744E+02  0.00000000000E+00 0. -1.
        -12    1    4    4    0    0  0.35081591426E+01  0.39393015138E+02  0.76271821247E+01  0.40277670357E+02  0.00000000000E+00 0.  1.
</event>
<event>
12    1  0.9966151E-001  0.2316870E+03  0.7818608E-02  0.1125723E+00
         21   -1    0    0  501  502  0.00000000000E+00  0.00000000000E+00  0.13056971329E+04  0.13056971329E+04  0.00000000000E+00 0.  1.
         21   -1    0    0  502  503 -0.00000000000E+00 -0.00000000000E+00 -0.51558641997E+02  0.51558641997E+02  0.00000000000E+00 0.  1.
         -6    2    1    2    0  503 -0.58243638301E+02  0.14325131097E+03  0.93482020887E+03  0.96273960047E+03  0.17048594050E+03 0.  0.
        -24    2    3    3    0    0  0.15276149603E+02  0.39873493069E+02  0.28025681977E+03  0.29598068392E+03  0.85073051148E+02 0.  0.
          6    2    1    2  501    0  0.58243638301E+02 -0.14325131097E+03  0.31931828202E+03  0.39451617442E+03  0.17252706206E+03 0.  0.
         24    2    5    5    0    0  0.83193583742E+02 -0.86990545719E+02  0.29415755699E+03  0.32786090029E+03  0.80470952423E+02 0.  0.
          5    1    5    5  501    0 -0.24949945441E+02 -0.56260765252E+02  0.25160725029E+02  0.66655274122E+02  0.47000000000E+01 0. -1.
        -13    1    6    6    0    0  0.65524252532E+02 -0.10974254687E+02  0.12462542097E+03  0.14122803365E+03  0.00000000000E+00 0.  1.
         14    1    6    6    0    0  0.17669331210E+02 -0.76016291032E+02  0.16953213603E+03  0.18663286665E+03  0.00000000000E+00 0. -1.
         -5    1    3    3    0  503 -0.73519787905E+02  0.10337781790E+03  0.65456338910E+03  0.66675891655E+03  0.47000000000E+01 0.  1.
         13    1    4    4    0    0  0.10612127332E+02  0.48482815693E+02  0.71741319404E+02  0.87235414677E+02  0.00000000000E+00 0. -1.
        -14    1    4    4    0    0  0.46640222717E+01 -0.86093226237E+01  0.20851550037E+03  0.20874526925E+03  0.00000000000E+00 0.  1.
</event>
<event>
12    1  0.9966151E-001  0.2335861E+03  0.7818608E-02  0.1125141E+00
         21   -1    0    0  503  502  0.00000000000E+00  0.00000000000E+00  0.12003710919E+04  0.12003710919E+04  0.00000000000E+00 0. -1.
         21   -1    0    0  501  503 -0.00000000000E+00 -0.00000000000E+00 -0.13986414350E+03  0.13986414350E+03  0.00000000000E+00 0.  1.
          6    2    1    2  501    0  0.14008450774E+03 -0.53508878309E+02  0.10861047592E+04  0.11109392403E+04  0.17909656133E+03 0.  0.
         24    2    3    3    0    0  0.14381157578E+03 -0.94911522652E+02  0.85709381828E+03  0.87813852926E+03  0.82628667944E+02 0.  0.
         -6    2    1    2    0  502 -0.14008450774E+03  0.53508878309E+02 -0.25597810740E+02  0.22929599518E+03  0.17156496182E+03 0.  0.
        -24    2    5    5    0    0 -0.13747630423E+03  0.10556108606E+02  0.26592658403E+02  0.16148981390E+03  0.79753525673E+02 0.  0.
          5    1    3    3  501    0 -0.37270680419E+01  0.41402644343E+02  0.22901094090E+03  0.23280071101E+03  0.47000000000E+01 0. -1.
        -11    1    4    4    0    0  0.24530740053E+02 -0.39425024989E+02  0.10767172847E+03  0.11725737041E+03  0.00000000000E+00 0.  1.
         12    1    4    4    0    0  0.11928083573E+03 -0.55486497663E+02  0.74942208981E+03  0.76088115885E+03  0.00000000000E+00 0. -1.
         -5    1    5    5    0  502 -0.26082035068E+01  0.42952769703E+02 -0.52190469143E+02  0.67806181282E+02  0.47000000000E+01 0.  1.
         11    1    6    6    0    0 -0.11855668015E+03 -0.15607589549E+02  0.40614879760E+02  0.12628876322E+03  0.00000000000E+00 0. -1.
        -12    1    6    6    0    0 -0.18919624086E+02  0.26163698155E+02 -0.14022221357E+02  0.35201050673E+02  0.00000000000E+00 0.  1.
</event>
<event>
12    1  0.9966151E-001  0.2130651E+03  0.7818608E-02  0.1140487E+00
         21   -1    0    0  503  502  0.00000000000E+00  0.00000000000E+00  0.89704607031E+03  0.89704607031E+03  0.00000000000E+00 0.  1.
         21   -1    0    0  501  503 -0.00000000000E+00 -0.00000000000E+00 -0.49858670049E+02  0.49858670049E+02  0.00000000000E+00 0.  1.
          6    2    1    2  501    0 -0.71995898592E+02 -0.88797361876E+02  0.49142011153E+03  0.53562154741E+03  0.17980082076E+03 0.  0.
         24    2    3    3    0    0  0.19121953665E+01 -0.37382586189E+02  0.38087581742E+03  0.39297507367E+03  0.89229512987E+02 0.  0.
         -6    2    1    2    0  502  0.71995898592E+02  0.88797361876E+02  0.35576728873E+03  0.41128319295E+03  0.17179965128E+03 0.  0.
        -24    2    5    5    0    0  0.56625571846E+01  0.76448190730E+01  0.68661483461E+02  0.10560741568E+03  0.79674457161E+02 0.  0.
          5    1    3    3  501    0 -0.73908093959E+02 -0.51414775687E+02  0.11054429411E+03  0.14264647375E+03  0.47000000000E+01 0. -1.
        -13    1    4    4    0    0  0.29643747364E+02 -0.10595668157E+02  0.45142765594E+02  0.55035345251E+02  0.00000000000E+00 0.  1.
         14    1    4    4    0    0 -0.27731551998E+02 -0.26786918033E+02  0.33573305183E+03  0.33793972842E+03  0.00000000000E+00 0. -1.
         -5    1    5    5    0  502  0.66333341408E+02  0.81152542803E+02  0.28710580527E+03  0.30567577726E+03  0.47000000000E+01 0.  1.
         13    1    6    6    0    0  0.16795950233E+02  0.27126090556E+01 -0.14012698356E+02  0.22041277353E+02  0.00000000000E+00 0. -1.
        -14    1    6    6    0    0 -0.11133393049E+02  0.49322100174E+01  0.82674181818E+02  0.83566138332E+02  0.00000000000E+00 0.  1.
</event>
<event>
12    1  0.9966151E-001  0.4496467E+03  0.7818608E-02  0.1027849E+00
         21   -1    0    0  503  502  0.00000000000E+00  0.00000000000E+00  0.59529051351E+03  0.59529051351E+03  0.00000000000E+00 0.  1.
         21   -1    0    0  501  503 -0.00000000000E+00 -0.00000000000E+00 -0.34176032853E+03  0.34176032853E+03  0.00000000000E+00 0. -1.
          6    2    1    2  501    0 -0.12277619448E+03 -0.39692249438E+03  0.16560691944E+03  0.47917413162E+03  0.17193235931E+03 0.  0.
         24    2    3    3    0    0 -0.15241300131E+03 -0.28812826931E+03  0.13860351619E+03  0.36313190865E+03  0.80038901974E+02 0.  0.
         -6    2    1    2    0  502  0.12277619448E+03  0.39692249438E+03  0.87923265540E+02  0.45787671041E+03  0.17116985962E+03 0.  0.
        -24    2    5    5    0    0  0.22901198386E+01  0.15215701755E+03  0.67532179401E+02  0.18426216543E+03  0.78961685127E+02 0.  0.
          5    1    3    3  501    0  0.29636806835E+02 -0.10879422506E+03  0.27003403252E+02  0.11604222298E+03  0.47000000000E+01 0. -1.
        -13    1    4    4    0    0 -0.88172877449E+02 -0.16896883153E+03  0.12306624520E+03  0.22687049842E+03  0.00000000000E+00 0.  1.
         14    1    4    4    0    0 -0.64240123866E+02 -0.11915943778E+03  0.15537270993E+02  0.13626141022E+03  0.00000000000E+00 0. -1.
         -5    1    5    5    0  502  0.12048607464E+03  0.24476547683E+03  0.20391086139E+02  0.27361454498E+03  0.47000000000E+01 0.  1.
         11    1    6    6    0    0 -0.20915652366E+02  0.63454217410E+02  0.63979153504E+02  0.92505320410E+02  0.00000000000E+00 0. -1.
        -12    1    6    6    0    0  0.23205772204E+02  0.88702800138E+02  0.35530258968E+01  0.91756845025E+02  0.00000000000E+00 0.  1.
</event>
<event>
12    1  0.9966151E-001  0.2888225E+03  0.7818608E-02  0.1091291E+00
         21   -1    0    0  503  502  0.00000000000E+00  0.00000000000E+00  0.26588161412E+03  0.26588161412E+03  0.00000000000E+00 0.  1.
         21   -1    0    0  501  503 -0.00000000000E+00 -0.00000000000E+00 -0.42625288436E+03  0.42625288436E+03  0.00000000000E+00 0.  1.
          6    2    1    2  501    0 -0.22963628746E+03 -0.28042540601E+02  0.99458715511E+02  0.30546760369E+03  0.17291388670E+03 0.  0.
         24    2    3    3    0    0 -0.48743067575E+02 -0.30600603672E+02  0.52005051402E+00  0.99215694323E+02  0.80815839819E+02 0.  0.
         -6    2    1    2    0  502  0.22963628746E+03  0.28042540601E+02 -0.25982998575E+03  0.38666689478E+03  0.16876154012E+03 0.  0.
        -24    2    5    5    0    0  0.53841376218E+02  0.45791641753E+02 -0.12546918615E+03  0.16464483309E+03  0.79810000263E+02 0.  0.
          5    1    3    3  501    0 -0.18089321988E+03  0.25580630705E+01  0.98938664997E+02  0.20625190937E+03  0.47000000000E+01 0. -1.
        -13    1    4    4    0    0  0.50441361256E+01 -0.67355484744E+01  0.31576956939E+02  0.32678970792E+02  0.00000000000E+00 0.  1.
         14    1    4    4    0    0 -0.53787203701E+02 -0.23865055197E+02 -0.31056906425E+02  0.66536723531E+02  0.00000000000E+00 0. -1.
         -5    1    5    5    0  502  0.17579491124E+03 -0.17749101151E+02 -0.13436079960E+03  0.22202206169E+03  0.47000000000E+01 0.  1.
         11    1    6    6    0    0  0.35217944429E+02  0.58040456139E+01 -0.11343946317E+03  0.11892225342E+03  0.00000000000E+00 0. -1.
        -12    1    6    6    0    0  0.18623431789E+02  0.39987596139E+02 -0.12029722988E+02  0.45722579671E+02  0.00000000000E+00 0.  1.
</event>
<event>
12    1  0.9966151E-001  0.3274667E+03  0.7818608E-02  0.1073110E+00
         21   -1    0    0  501  502  0.00000000000E+00  0.00000000000E+00  0.16068417602E+04  0.16068417602E+04  0.00000000000E+00 0. -1.
         21   -1    0    0  502  503 -0.00000000000E+00 -0.00000000000E+00 -0.66183736843E+02  0.66183736843E+02  0.00000000000E+00 0. -1.
         -6    2    1    2    0  503  0.25173544228E+03 -0.96175594613E+02  0.86256150030E+03  0.91999871287E+03  0.17252481559E+03 0.  0.
        -24    2    3    3    0    0  0.16697266602E+03 -0.20764978256E+01  0.61033769205E+03  0.63772525025E+03  0.79354983632E+02 0.  0.
          6    2    1    2  501    0 -0.25173544228E+03  0.96175594613E+02  0.67809652307E+03  0.75302678418E+03  0.18604828727E+03 0.  0.
         24    2    5    5    0    0 -0.11357789049E+03  0.68109358817E+02  0.51289251843E+03  0.53579493602E+03  0.80490098964E+02 0.  0.
          5    1    5    5  501    0 -0.13815755179E+03  0.28066235796E+02  0.16520400464E+03  0.21723184816E+03  0.47000000000E+01 0. -1.
        -13    1    6    6    0    0 -0.81453347805E+02  0.49960393496E+01  0.32229069705E+03  0.33246188004E+03  0.00000000000E+00 0.  1.
         14    1    6    6    0    0 -0.32124542686E+02  0.63113319468E+02  0.19060182139E+03  0.20333305598E+03  0.00000000000E+00 0. -1.
         -5    1    3    3    0  503  0.84762776258E+02 -0.94099096788E+02  0.25222380825E+03  0.28227346262E+03  0.47000000000E+01 0.  1.
         13    1    4    4    0    0  0.52294281948E+02  0.13843943590E+02  0.92984840883E+02  0.10757568188E+03  0.00000000000E+00 0. -1.
        -14    1    4    4    0    0  0.11467838407E+03 -0.15920441415E+02  0.51735285117E+03  0.53014956837E+03  0.00000000000E+00 0.  1.
</event>
<event>
12    1  0.9966151E-001  0.1861729E+03  0.7818608E-02  0.1162186E+00
         21   -1    0    0  501  502  0.00000000000E+00  0.00000000000E+00  0.40887502492E+03  0.40887502492E+03  0.00000000000E+00 0. -1.
         21   -1    0    0  502  503 -0.00000000000E+00 -0.00000000000E+00 -0.24038407877E+03  0.24038407877E+03  0.00000000000E+00 0. -1.
         -6    2    1    2    0  503  0.50362621309E+01  0.69582021135E+02 -0.17724140589E+03  0.25705031752E+03  0.17260743952E+03 0.  0.
        -24    2    3    3    0    0  0.27546831476E+02 -0.24033457839E+02 -0.82372088349E+02  0.12179921385E+03  0.81935660947E+02 0.  0.
          6    2    1    2  501    0 -0.50362621309E+01 -0.69582021135E+02  0.34573235203E+03  0.39220878616E+03  0.17155130748E+03 0.  0.
         24    2    5    5    0    0  0.54822568845E+01 -0.10873384263E+03  0.21698734704E+03  0.25715001866E+03  0.84791035181E+02 0.  0.
          5    1    5    5  501    0 -0.10518519015E+02  0.39151821495E+02  0.12874500499E+03  0.13505876750E+03  0.47000000000E+01 0. -1.
        -13    1    6    6    0    0  0.24683244377E+02  0.24904139394E+01  0.46123953531E+02  0.52372548190E+02  0.00000000000E+00 0.  1.
         14    1    6    6    0    0 -0.19200987493E+02 -0.11122425657E+03  0.17086339351E+03  0.20477747047E+03  0.00000000000E+00 0. -1.
         -5    1    3    3    0  503 -0.22510569345E+02  0.93615478974E+02 -0.94869317538E+02  0.13525110368E+03  0.47000000000E+01 0.  1.
         13    1    4    4    0    0  0.14681521016E+02  0.16260489320E+02  0.69371643749E+01  0.22979878629E+02  0.00000000000E+00 0. -1.
        -14    1    4    4    0    0  0.12865310460E+02 -0.40293947158E+02 -0.89309252723E+02  0.98819335218E+02  0.00000000000E+00 0.  1.
</event>
<event>
12    1  0.9966151E-001  0.1771949E+03  0.7818608E-02  0.1170852E+00
         21   -1    0    0  503  502  0.00000000000E+00  0.00000000000E+00  0.88251107037E+02  0.88251107037E+02  0.00000000000E+00 0.  1.
         21   -1    0    0  501  503 -0.00000000000E+00 -0.00000000000E+00 -0.41719568090E+03  0.41719568090E+03  0.00000000000E+00 0.  1.
          6    2    1    2  501    0 -0.19113977011E+02 -0.35612992439E+02 -0.65084582218E+02  0.18761013823E+03  0.17125399784E+03 0.  0.
         24    2    3    3    0    0  0.31665147401E+02 -0.68264660468E+02 -0.55893588514E+02  0.12636297285E+03  0.84739378345E+02 0.  0.
         -6    2    1    2    0  502  0.19113977011E+02  0.35612992439E+02 -0.26385999165E+03  0.31783664971E+03  0.17252365450E+03 0.  0.
        -24    2    5    5    0    0 -0.37116168763E+02  0.68327228427E+02 -0.15195996483E+03  0.18831539072E+03  0.79527575987E+02 0.  0.
          5    1    3    3  501    0 -0.50779124412E+02  0.32651668029E+02 -0.91909937037E+01  0.61247165374E+02  0.47000000000E+01 0. -1.
        -13    1    4    4    0    0 -0.28414060562E+02 -0.29973683897E+02 -0.13458347395E+02  0.43438550604E+02  0.00000000000E+00 0.  1.
         14    1    4    4    0    0  0.60079207964E+02 -0.38290976570E+02 -0.42435241120E+02  0.82924422248E+02  0.00000000000E+00 0. -1.
         -5    1    5    5    0  502  0.56230145774E+02 -0.32714235988E+02 -0.11190002681E+03  0.12952125899E+03  0.47000000000E+01 0.  1.
         13    1    6    6    0    0 -0.39564376051E+02  0.34910172667E+02 -0.27652168047E+02  0.59570986275E+02  0.00000000000E+00 0. -1.
        -14    1    6    6    0    0  0.24482072887E+01  0.33417055760E+02 -0.12430779679E+03  0.12874440445E+03  0.00000000000E+00 0.  1.
</event>
<event>
12    1  0.9966151E-001  0.3538169E+03  0.7818608E-02  0.1061097E+00
         21   -1    0    0  501  502  0.00000000000E+00  0.00000000000E+00  0.11630118704E+03  0.11630118704E+03  0.00000000000E+00 0.  1.
         21   -1    0    0  502  503 -0.00000000000E+00 -0.00000000000E+00 -0.11867579698E+04  0.11867579698E+04  0.00000000000E+00 0. -1.
         -6    2    1    2    0  503  0.18938648263E+03 -0.24451981723E+03 -0.33526044160E+03  0.48715470674E+03  0.17106420953E+03 0.  0.
        -24    2    3    3    0    0  0.83179649824E+02 -0.20966844176E+03 -0.24470074946E+03  0.34321840991E+03  0.83908941699E+02 0.  0.
          6    2    1    2  501    0 -0.18938648263E+03  0.24451981723E+03 -0.73519634119E+03  0.81590445014E+03  0.17184071354E+03 0.  0.
         24    2    5    5    0    0 -0.14600034041E+03  0.21210845885E+03 -0.43940719279E+03  0.51516176311E+03  0.77503957177E+02 0.  0.
          5    1    5    5  501    0 -0.43386142224E+02  0.32411358377E+02 -0.29578914840E+03  0.30074268703E+03  0.47000000000E+01 0. -1.
        -13    1    6    6    0    0 -0.10460322604E+03  0.18744279232E+03 -0.39537072995E+03  0.44988292854E+03  0.00000000000E+00 0.  1.
         14    1    6    6    0    0 -0.41397114364E+02  0.24665666534E+02 -0.44036462842E+02  0.65278834570E+02  0.00000000000E+00 0. -1.
         -5    1    3    3    0  503  0.10620683281E+03 -0.34851375467E+02 -0.90559692135E+02  0.14393629683E+03  0.47000000000E+01 0.  1.
         11    1    4    4    0    0  0.40811447681E+02 -0.13198837269E+03 -0.20262304069E+03  0.24523988543E+03  0.00000000000E+00 0. -1.
        -12    1    4    4    0    0  0.42368202143E+02 -0.77680069071E+02 -0.42077708776E+02  0.97978524482E+02  0.00000000000E+00 0.  1.
</event>
<event>
12    1  0.9966151E-001  0.2505136E+03  0.7818608E-02  0.1113357E+00
         21   -1    0    0  501  502  0.00000000000E+00  0.00000000000E+00  0.27098194756E+03  0.27098194756E+03  0.00000000000E+00 0. -1.
         21   -1    0    0  502  503 -0.00000000000E+00 -0.00000000000E+00 -0.64683067199E+03  0.64683067199E+03  0.00000000000E+00 0. -1.
         -6    2    1    2    0  503 -0.66307788917E+02 -0.16615750076E+03  0.18104798150E+03  0.30716460278E+03  0.17194965445E+03 0.  0.
        -24    2    3    3    0    0  0.50681234257E+01 -0.15642633427E+03  0.13306934246E+03  0.22048556109E+03  0.80072147584E+02 0.  0.
          6    2    1    2  501    0  0.66307788917E+02  0.16615750076E+03 -0.55689670593E+03  0.61064801676E+03  0.17536254269E+03 0.  0.
         24    2    5    5    0    0  0.82776708862E+02  0.14118330791E+03 -0.29320630339E+03  0.34522447971E+03  0.80157938356E+02 0.  0.
          5    1    5    5  501    0 -0.16468919946E+02  0.24974192849E+02 -0.26369040254E+03  0.26542353705E+03  0.47000000000E+01 0. -1.
        -11    1    6    6    0    0 -0.12042905993E+02  0.18150326955E-01 -0.22945984378E+02  0.25914283962E+02  0.00000000000E+00 0.  1.
         12    1    6    6    0    0  0.94819614855E+02  0.14116515758E+03 -0.27026031901E+03  0.31931019575E+03  0.00000000000E+00 0. -1.
         -5    1    3    3    0  503 -0.71375912342E+02 -0.97311664910E+01  0.47978639039E+02  0.86679041689E+02  0.47000000000E+01 0.  1.
         13    1    4    4    0    0  0.10265180275E+01 -0.62459754131E+02  0.10527077937E+03  0.12241001436E+03  0.00000000000E+00 0. -1.
        -14    1    4    4    0    0  0.40416053983E+01 -0.93966580137E+02  0.27798563085E+02  0.98075546730E+02  0.00000000000E+00 0.  1.
</event>
<event>
12    1  0.9966151E-001  0.1838086E+03  0.7818608E-02  0.1164609E+00
         21   -1    0    0  501  502  0.00000000000E+00  0.00000000000E+00  0.44312283610E+03  0.44312283610E+03  0.00000000000E+00 0. -1.
         21   -1    0    0  502  503 -0.00000000000E+00 -0.00000000000E+00 -0.17988273891E+03  0.17988273891E+03  0.00000000000E+00 0. -1.
         -6    2    1    2    0  503  0.44336646360E+01 -0.58667255908E+02  0.36865962679E+03  0.41111204069E+03  0.17216760810E+03 0.  0.
        -24    2    3    3    0    0 -0.10873500274E+02 -0.97075140643E+02  0.18789424328E+03  0.22561894437E+03  0.77832162134E+02 0.  0.
          6    2    1    2  501    0 -0.44336646360E+01  0.58667255908E+02 -0.10541952960E+03  0.21189353432E+03  0.17413813014E+03 0.  0.
         24    2    5    5    0    0 -0.19452392595E+02  0.70624702274E+00  0.11418161540E+02  0.80523154061E+02  0.77296245474E+02 0.  0.
          5    1    5    5  501    0  0.15018727959E+02  0.57961008885E+02 -0.11683769114E+03  0.13137038026E+03  0.47000000000E+01 0. -1.
        -11    1    6    6    0    0 -0.26683446383E+02  0.89673391758E+01 -0.27940343010E+02  0.39662100931E+02  0.00000000000E+00 0.  1.
         12    1    6    6    0    0  0.72310537878E+01 -0.82610921530E+01  0.39358504550E+02  0.40861053129E+02  0.00000000000E+00 0. -1.
         -5    1    3    3    0  503  0.15307164910E+02  0.38407884735E+02  0.18076538351E+03  0.18549309632E+03  0.47000000000E+01 0.  1.
         11    1    4    4    0    0 -0.31984768165E+02 -0.87106057647E+01  0.62829318932E+02  0.71038182443E+02  0.00000000000E+00 0. -1.
        -12    1    4    4    0    0  0.21111267891E+02 -0.88364534879E+02  0.12506492435E+03  0.15458076193E+03  0.00000000000E+00 0.  1.
</event>
<event>
12    1  0.9966151E-001  0.2230934E+03  0.7818608E-02  0.1131617E+00
         21   -1    0    0  503  502  0.00000000000E+00  0.00000000000E+00  0.99800727113E+02  0.99800727113E+02  0.00000000000E+00 0.  1.
         21   -1    0    0  501  503 -0.00000000000E+00 -0.00000000000E+00 -0.50167345241E+03  0.50167345241E+03  0.00000000000E+00 0.  1.
          6    2    1    2  501    0 -0.81596429430E+02 -0.11646377348E+03 -0.17684807024E+03  0.28460392680E+03  0.17176253193E+03 0.  0.
         24    2    3    3    0    0 -0.22973302967E+02 -0.62351510735E+02 -0.17422764102E+03  0.20464290764E+03  0.84308749330E+02 0.  0.
         -6    2    1    2    0  502  0.81596429430E+02  0.11646377348E+03 -0.22502465505E+03  0.31687025272E+03  0.17189785876E+03 0.  0.
        -24    2    5    5    0    0  0.18778980459E+01  0.11780986402E+03 -0.15489808231E+03  0.21058440037E+03  0.80434341006E+02 0.  0.
          5    1    3    3  501    0 -0.58623126463E+02 -0.54112262744E+02 -0.26204292224E+01  0.79961019159E+02  0.47000000000E+01 0. -1.
        -13    1    4    4    0    0 -0.25251807256E+02 -0.71464746907E+02 -0.80956963654E+02  0.11090037775E+03  0.00000000000E+00 0.  1.
         14    1    4    4    0    0  0.22785042887E+01  0.91132361729E+01 -0.93270677365E+02  0.93742529897E+02  0.00000000000E+00 0. -1.
         -5    1    5    5    0  502  0.79718531384E+02 -0.13460905369E+01 -0.70126572739E+02  0.10628585235E+03  0.47000000000E+01 0.  1.
         13    1    6    6    0    0  0.11982055479E+02  0.50576082357E+02 -0.13516589150E+02  0.53704822338E+02  0.00000000000E+00 0. -1.
        -14    1    6    6    0    0 -0.10104157433E+02  0.67233781659E+02 -0.14138149316E+03  0.15687957803E+03  0.00000000000E+00 0.  1.
</event>
<event>
12    1  0.9966151E-001  0.2344468E+03  0.7818608E-02  0.1123576E+00
         21   -1    0    0  503  502  0.00000000000E+00  0.00000000000E+00  0.40025919397E+03  0.40025919397E+03  0.00000000000E+00 0.  1.
         21   -1    0    0  501  503 -0.00000000000E+00 -0.00000000000E+00 -0.13764006445E+03  0.13764006445E+03  0.00000000000E+00 0.  1.
          6    2    1    2  501    0  0.90534829674E+02  0.13035368262E+03  0.11660847497E+03  0.26170290725E+03  0.17234337027E+03 0.  0.
         24    2    3    3    0    0  0.89074132476E+02  0.17400163354E+02  0.59462950249E+02  0.13502089533E+03  0.80360643114E+02 0.  0.
         -6    2    1    2    0  502 -0.90534829674E+02 -0.13035368262E+03  0.14601065455E+03  0.27619635116E+03  0.17255919331E+03 0.  0.
        -24    2    5    5    0    0  0.70985398289E+01 -0.47416653126E+02  0.28748282977E+02  0.10246270592E+03  0.85868586045E+02 0.  0.
          5    1    3    3  501    0  0.14606971982E+01  0.11295351926E+03  0.57145524720E+02  0.12668201193E+03  0.47000000000E+01 0. -1.
        -13    1    4    4    0    0  0.34054006146E+02  0.20544398949E+02  0.68467247741E+02  0.79180248017E+02  0.00000000000E+00 0.  1.
         14    1    4    4    0    0  0.55020126330E+02 -0.31442355943E+01 -0.90042974916E+01  0.55840647311E+02  0.00000000000E+00 0. -1.
         -5    1    5    5    0  502 -0.97633369503E+02 -0.82937029491E+02  0.11726237158E+03  0.17373364524E+03  0.47000000000E+01 0.  1.
         13    1    6    6    0    0  0.19364109321E+02 -0.69761029329E+02  0.25542827385E+02  0.76772429776E+02  0.00000000000E+00 0. -1.
        -14    1    6    6    0    0 -0.12265569492E+02  0.22344376204E+02  0.32054555918E+01  0.25690276146E+02  0.00000000000E+00 0.  1.
</event>
<event>
12    1  0.9966151E-001  0.2003857E+03  0.7818608E-02  0.1149763E+00
         21   -1    0    0  503  502  0.00000000000E+00  0.00000000000E+00  0.91978788682E+02  0.91978788682E+02  0.00000000000E+00 0. -1.
         21   -1    0    0  501  503 -0.00000000000E+00 -0.00000000000E+00 -0.89676787955E+03  0.89676787955E+03  0.00000000000E+00 0. -1.
          6    2    1    2  501    0 -0.24320217291E+02 -0.99241689260E+02 -0.75872982339E+03  0.78474541556E+03  0.17237759852E+03 0.  0.
         24    2    3    3    0    0  0.13303112259E+02 -0.48850330682E+02 -0.20164279634E+03  0.22410038556E+03  0.83653080575E+02 0.  0.
         -6    2    1    2    0  502  0.24320217291E+02  0.99241689260E+02 -0.46059267475E+02  0.20400125268E+03  0.17045430214E+03 0.  0.
        -24    2    5    5    0    0  0.43473783766E+02  0.11179759934E+03 -0.78425431971E+02  0.16407421183E+03  0.79881947357E+02 0.  0.
          5    1    3    3  501    0 -0.37623329550E+02 -0.50391358578E+02 -0.55708702705E+03  0.56064502999E+03  0.47000000000E+01 0. -1.
        -11    1    4    4    0    0 -0.19688387168E+02  0.88041982023E+01 -0.10261509430E+03  0.10485706497E+03  0.00000000000E+00 0.  1.
         12    1    4    4    0    0  0.32991499427E+02 -0.57654528884E+02 -0.99027702043E+02  0.11924332060E+03  0.00000000000E+00 0. -1.
         -5    1    5    5    0  502 -0.19153566475E+02 -0.12555910085E+02  0.32366164495E+02  0.39927040848E+02  0.47000000000E+01 0.  1.
         13    1    6    6    0    0  0.29165691784E+02  0.12024428425E+03 -0.55121826522E+02  0.13545383432E+03  0.00000000000E+00 0. -1.
        -14    1    6    6    0    0  0.14308091982E+02 -0.84466849053E+01 -0.23303605449E+02  0.28620377512E+02  0.00000000000E+00 0.  1.
</event>
<event>
12    1  0.9966151E-001  0.2410681E+03  0.7818608E-02  0.1119198E+00
         21   -1    0    0  503  502  0.00000000000E+00  0.00000000000E+00  0.26693331311E+03  0.26693331311E+03  0.00000000000E+00 0.  1.
         21   -1    0    0  501  503 -0.00000000000E+00 -0.00000000000E+00 -0.26988831640E+03  0.26988831640E+03  0.00000000000E+00 0.  1.
          6    2    1    2  501    0 -0.19972206302E+02  0.17195439339E+03  0.11724717410E+03  0.26744753705E+03  0.16677554620E+03 0.  0.
         24    2    3    3    0    0 -0.34898417941E+02  0.18567149051E+03  0.12999200770E+03  0.24304525579E+03  0.80506349624E+02 0.  0.
         -6    2    1    2    0  502  0.19972206302E+02 -0.17195439339E+03 -0.12020217739E+03  0.26937409245E+03  0.16776959142E+03 0.  0.
        -24    2    5    5    0    0  0.71546063873E+02 -0.79167940104E+02 -0.78484589892E+02  0.15521790206E+03  0.80909605567E+02 0.  0.
          5    1    3    3  501    0  0.14926211639E+02 -0.13717097121E+02 -0.12744833609E+02  0.24402281267E+02  0.47000000000E+01 0. -1.
        -11    1    4    4    0    0 -0.48957760513E+02  0.55573951218E+02  0.54725486691E+02  0.92088029960E+02  0.00000000000E+00 0.  1.
         12    1    4    4    0    0  0.14059342572E+02  0.13009753929E+03  0.75266521014E+02  0.15095722583E+03  0.00000000000E+00 0. -1.
         -5    1    5    5    0  502 -0.51573857571E+02 -0.92786453285E+02 -0.41717587495E+02  0.11415619039E+03  0.47000000000E+01 0.  1.
         13    1    6    6    0    0  0.30717500686E+02 -0.64621432691E+02 -0.85307994283E+02  0.11134158388E+03  0.00000000000E+00 0. -1.
        -14    1    6    6    0    0  0.40828563187E+02 -0.14546507413E+02  0.68234043910E+01  0.43876318183E+02  0.00000000000E+00 0.  1.
</event>
<event>
12    1  0.9966151E-001  0.2436552E+03  0.7818608E-02  0.1117646E+00
         21   -1    0    0  503  502  0.00000000000E+00  0.00000000000E+00  0.77332710741E+02  0.77332710741E+02  0.00000000000E+00 0.  1.
         21   -1    0    0  501  503 -0.00000000000E+00 -0.00000000000E+00 -0.77972871149E+03  0.77972871149E+03  0.00000000000E+00 0.  1.
          6    2    1    2  501    0  0.98260097788E+02  0.13982306024E+03 -0.28884688462E+03  0.37788937310E+03  0.17367302770E+03 0.  0.
         24    2    3    3    0    0 -0.25943811169E+01  0.18408446047E+02 -0.63175711868E+02  0.10245752551E+03  0.78490587103E+02 0.  0.
         -6    2    1    2    0  502 -0.98260097788E+02 -0.13982306024E+03 -0.41354911612E+03  0.47917204913E+03  0.17139850125E+03 0.  0.
        -24    2    5    5    0    0 -0.12263367308E+03 -0.70087738165E+02 -0.23258148151E+03  0.28365105002E+03  0.80077860991E+02 0.  0.
          5    1    3    3  501    0  0.10085447890E+03  0.12141461419E+03 -0.22567117276E+03  0.27543184759E+03  0.47000000000E+01 0. -1.
        -11    1    4    4    0    0  0.36562629684E+02  0.50909902873E+01 -0.17547278206E+02  0.40873598373E+02  0.00000000000E+00 0.  1.
         12    1    4    4    0    0 -0.39157010801E+02  0.13317455760E+02 -0.45628433662E+02  0.61583927134E+02  0.00000000000E+00 0. -1.
         -5    1    5    5    0  502  0.24373575289E+02 -0.69735322073E+02 -0.18096763461E+03  0.19552099911E+03  0.47000000000E+01 0.  1.
         13    1    6    6    0    0 -0.48505691507E+02 -0.54541584773E+01 -0.14120907668E+03  0.14940734015E+03  0.00000000000E+00 0. -1.
        -14    1    6    6    0    0 -0.74127981570E+02 -0.64633579688E+02 -0.91372404830E+02  0.13424370987E+03  0.00000000000E+00 0.  1.
</event>
<event>
12    1  0.9966151E-001  0.1827059E+03  0.7818608E-02  0.1165700E+00
         21   -1    0    0  501  502  0.00000000000E+00  0.00000000000E+00  0.68273773278E+02  0.68273773278E+02  0.00000000000E+00 0.  1.
         21   -1    0    0  502  503 -0.00000000000E+00 -0.00000000000E+00 -0.48477257422E+03  0.48477257422E+03  0.00000000000E+00 0.  1.
         -6    2    1    2    0  503 -0.53052001582E+02 -0.16303980476E+02 -0.22387335402E+03  0.28896493130E+03  0.17407216385E+03 0.  0.
        -24    2    3    3    0    0 -0.60537269357E+02 -0.74230732530E+02 -0.16898804265E+03  0.20867778885E+03  0.76252858108E+02 0.  0.
          6    2    1    2  501    0  0.53052001582E+02  0.16303980476E+02 -0.19262544692E+03  0.26408141620E+03  0.17191305049E+03 0.  0.
         24    2    5    5    0    0 -0.90680484777E+01 -0.16942611544E+02 -0.33023670732E+02  0.89556193202E+02  0.80996711804E+02 0.  0.
          5    1    5    5  501    0  0.62120050060E+02  0.33246592020E+02 -0.15960177619E+03  0.17452522300E+03  0.47000000000E+01 0. -1.
        -11    1    6    6    0    0  0.27322648771E+02  0.71087035724E+01  0.83438810191E+01  0.29439448921E+02  0.00000000000E+00 0.  1.
         12    1    6    6    0    0 -0.36390697248E+02 -0.24051315117E+02 -0.41367551751E+02  0.60116744281E+02  0.00000000000E+00 0. -1.
         -5    1    3    3    0  503  0.74852677747E+01  0.57926752054E+02 -0.54885311377E+02  0.80287142446E+02  0.47000000000E+01 0.  1.
         13    1    4    4    0    0 -0.73529145864E+02 -0.79374764791E+02 -0.15372249336E+03  0.18798269479E+03  0.00000000000E+00 0. -1.
        -14    1    4    4    0    0  0.12991876507E+02  0.51440322612E+01 -0.15265549286E+02  0.20695094058E+02  0.00000000000E+00 0.  1.
</event>
<event>
12    1  0.9966151E-001  0.3037877E+03  0.7818608E-02  0.1083390E+00
         21   -1    0    0  501  502  0.00000000000E+00  0.00000000000E+00  0.59378319809E+03  0.59378319809E+03  0.00000000000E+00 0.  1.
         21   -1    0    0  502  503 -0.00000000000E+00 -0.00000000000E+00 -0.15928146488E+03  0.15928146488E+03  0.00000000000E+00 0.  1.
         -6    2    1    2    0  503 -0.12312143475E+03  0.21774423829E+03  0.27681241464E+03  0.41098912496E+03  0.17238186370E+03 0.  0.
        -24    2    3    3    0    0 -0.29722908367E+02  0.16018668915E+03  0.11350163292E+03  0.21419314527E+03  0.80329671626E+02 0.  0.
          6    2    1    2  501    0  0.12312143475E+03 -0.21774423829E+03  0.15768931857E+03  0.34207553801E+03  0.17198346291E+03 0.  0.
         24    2    5    5    0    0  0.30287041788E+02 -0.89280982827E+02  0.78908910070E+01  0.12394096620E+03  0.80066835502E+02 0.  0.
          5    1    5    5  501    0  0.92834392961E+02 -0.12846325546E+03  0.14979842756E+03  0.21813457181E+03  0.47000000000E+01 0. -1.
        -11    1    6    6    0    0 -0.32948150095E+01  0.16993646051E+01  0.25163037162E+02  0.25434663065E+02  0.00000000000E+00 0.  1.
         12    1    6    6    0    0  0.33581856797E+02 -0.90980347432E+02 -0.17272146155E+02  0.98506303137E+02  0.00000000000E+00 0. -1.
         -5    1    3    3    0  503 -0.93398526382E+02  0.57557549134E+02  0.16331078172E+03  0.19679597968E+03  0.47000000000E+01 0.  1.
         13    1    4    4    0    0  0.63950145886E+01  0.60465024913E+02  0.84749103185E+02  0.10430400731E+03  0.00000000000E+00 0. -1.
        -14    1    4    4    0    0 -0.36117922956E+02  0.99721664241E+02  0.28752529734E+02  0.10988913797E+03  0.00000000000E+00 0.  1.
</event>
<event>
12    1  0.9966151E-001  0.2181335E+03  0.7818608E-02  0.1135485E+00
         21   -1    0    0  501  502  0.00000000000E+00  0.00000000000E+00  0.35957278319E+03  0.35957278319E+03  0.00000000000E+00 0. -1.
         21   -1    0    0  502  503 -0.00000000000E+00 -0.00000000000E+00 -0.13170819864E+03  0.13170819864E+03  0.00000000000E+00 0. -1.
         -6    2    1    2    0  503 -0.13014930149E+03  0.21786418988E+02  0.11716751072E+03  0.24666688028E+03  0.17234510590E+03 0.  0.
        -24    2    3    3    0    0 -0.70752061044E+02  0.52302292336E+02  0.13238971322E+03  0.17801517856E+03  0.80131040845E+02 0.  0.
          6    2    1    2  501    0  0.13014930149E+03 -0.21786418988E+02  0.11069707383E+03  0.24461410155E+03  0.17369147299E+03 0.  0.
         24    2    5    5    0    0  0.47481974885E+02  0.18419000673E+02  0.11945866889E+03  0.15215211905E+03  0.79284905458E+02 0.  0.
          5    1    5    5  501    0  0.82667326609E+02 -0.40205419662E+02 -0.87615950605E+01  0.92461982495E+02  0.47000000000E+01 0. -1.
        -13    1    6    6    0    0 -0.20772907200E+02 -0.30354519061E+01  0.40374236692E+02  0.45506116405E+02  0.00000000000E+00 0.  1.
         14    1    6    6    0    0  0.68254882085E+02  0.21454452579E+02  0.79084432201E+02  0.10664600265E+03  0.00000000000E+00 0. -1.
         -5    1    3    3    0  503 -0.59397240450E+02 -0.30515873348E+02 -0.15222202503E+02  0.68651701715E+02  0.47000000000E+01 0.  1.
         13    1    4    4    0    0  0.15511577834E+02  0.21072031294E+02  0.40118176035E+02  0.47896843300E+02  0.00000000000E+00 0. -1.
        -14    1    4    4    0    0 -0.86263638878E+02  0.31230261043E+02  0.92271537186E+02  0.13011833526E+03  0.00000000000E+00 0.  1.
</event>
<event>
12    1  0.9966151E-001  0.1890827E+03  0.7818608E-02  0.1159785E+00
         21   -1    0    0  503  502  0.00000000000E+00  0.00000000000E+00  0.22237588661E+03  0.22237588661E+03  0.00000000000E+00 0.  1.
         21   -1    0    0  501  503 -0.00000000000E+00 -0.00000000000E+00 -0.23243295321E+03  0.23243295321E+03  0.00000000000E+00 0.  1.
          6    2    1    2  501    0 -0.15140689598E+02  0.73470875005E+02  0.12286199843E+03  0.22368171878E+03  0.17120522977E+03 0.  0.
         24    2    3    3    0    0 -0.84676533550E+01  0.23694174044E+02  0.14634052389E+03  0.16804377732E+03  0.78676852558E+02 0.  0.
         -6    2    1    2    0  502  0.15140689598E+02 -0.73470875005E+02 -0.13291906502E+03  0.23112712104E+03  0.17356571747E+03 0.  0.
        -24    2    5    5    0    0  0.48367056615E+01 -0.49156801261E+02  0.15531729562E+01  0.94005937220E+02  0.79968237785E+02 0.  0.
          5    1    3    3  501    0 -0.66730362433E+01  0.49776700961E+02 -0.23478525462E+02  0.55637941453E+02  0.47000000000E+01 0. -1.
        -11    1    4    4    0    0 -0.26836026077E+02 -0.17449012372E+02  0.32527326781E+02  0.45636250020E+02  0.00000000000E+00 0.  1.
         12    1    4    4    0    0  0.18368372722E+02  0.41143186416E+02  0.11381319711E+03  0.12240752730E+03  0.00000000000E+00 0. -1.
         -5    1    5    5    0  502  0.10303983937E+02 -0.24314073744E+02 -0.13447223798E+03  0.13712118382E+03  0.47000000000E+01 0.  1.
         11    1    6    6    0    0 -0.17641653165E+02 -0.58661211313E+02 -0.16743734685E+02  0.63503687218E+02  0.00000000000E+00 0. -1.
        -12    1    6    6    0    0  0.22478358826E+02  0.95044100516E+01  0.18296907641E+02  0.30502250002E+02  0.00000000000E+00 0.  1.
</event>
<event>
12    1  0.9966151E-001  0.2364592E+03  0.7818608E-02  0.1122613E+00
         21   -1    0    0  503  502  0.00000000000E+00  0.00000000000E+00  0.20120439697E+03  0.20120439697E+03  0.00000000000E+00 0.  1.
         21   -1    0    0  501  503 -0.00000000000E+00 -0.00000000000E+00 -0.97272285781E+03  0.97272285781E+03  0.00000000000E+00 0. -1.
          6    2    1    2  501    0  0.16118798160E+03  0.19257812191E+02  0.11199483280E+03  0.25931877189E+03  0.16837741576E+03 0.  0.
         24    2    3    3    0    0  0.15179532946E+03 -0.24753005795E+02  0.12444410255E+03  0.21239065312E+03  0.77258795826E+02 0.  0.
         -6    2    1    2    0  502 -0.16118798160E+03 -0.19257812191E+02 -0.88351329364E+03  0.91460848289E+03  0.17193169629E+03 0.  0.
        -24    2    5    5    0    0 -0.10432943657E+03 -0.44395788579E+02 -0.36587376106E+03  0.39322801942E+03  0.88932833328E+02 0.  0.
          5    1    3    3  501    0  0.93926521451E+01  0.44010817986E+02 -0.12449269749E+02  0.46928118771E+02  0.47000000000E+01 0. -1.
        -13    1    4    4    0    0  0.11005976108E+03 -0.51445545769E+02  0.77261711845E+02  0.14397627342E+03  0.00000000000E+00 0.  1.
         14    1    4    4    0    0  0.41735568374E+02  0.26692539974E+02  0.47182390709E+02  0.68414379707E+02  0.00000000000E+00 0. -1.
         -5    1    5    5    0  502 -0.56858545031E+02  0.25137976388E+02 -0.51763953257E+03  0.52138046346E+03  0.47000000000E+01 0.  1.
         11    1    6    6    0    0  0.58134664304E+01  0.15176569130E+02 -0.22669099322E+02  0.27892879137E+02  0.00000000000E+00 0. -1.
        -12    1    6    6    0    0 -0.11014290300E+03 -0.59572357709E+02 -0.34320466174E+03  0.36533514028E+03  0.00000000000E+00 0.  1.
</event>
<event>
12    1  0.9966151E-001  0.1901464E+03  0.7818608E-02  0.1159284E+00
         21   -1    0    0  501  502  0.00000000000E+00  0.00000000000E+00  0.24710234646E+03  0.24710234646E+03  0.00000000000E+00 0.  1.
         21   -1    0    0  502  503 -0.00000000000E+00 -0.00000000000E+00 -0.14320259121E+03  0.14320259121E+03  0.00000000000E+00 0.  1.
         -6    2    1    2    0  503 -0.74711051237E+02  0.19324811936E+02  0.56260317533E+02  0.19428155361E+03  0.16918897485E+03 0.  0.
        -24    2    3    3    0    0 -0.91798420100E+02 -0.35805570995E+02  0.49940752243E+02  0.13602896395E+03  0.79377650831E+02 0.  0.
          6    2    1    2  501    0  0.74711051237E+02 -0.19324811936E+02  0.47639437722E+02  0.19602338406E+03  0.17378279990E+03 0.  0.
         24    2    5    5    0    0  0.80377241455E+02 -0.73662077200E+02  0.40479110478E+02  0.14072415808E+03  0.79234637131E+02 0.  0.
          5    1    5    5  501    0 -0.56661902186E+01  0.54337265264E+02  0.71603272439E+01  0.55299225982E+02  0.47000000000E+01 0. -1.
        -11    1    6    6    0    0  0.13521992452E+02 -0.25709672899E+02  0.50076461633E+02  0.57891999189E+02  0.00000000000E+00 0.  1.
         12    1    6    6    0    0  0.66855249004E+02 -0.47952404301E+02 -0.95973511550E+01  0.82832158892E+02  0.00000000000E+00 0. -1.
         -5    1    3    3    0  503  0.17087368863E+02  0.55130382931E+02  0.63195652898E+01  0.58252589662E+02  0.47000000000E+01 0.  1.
         11    1    4    4    0    0 -0.82185921988E+02 -0.58348168760E+01  0.68633425347E+01  0.82678149058E+02  0.00000000000E+00 0. -1.
        -12    1    4    4    0    0 -0.96124981122E+01 -0.29970754119E+02  0.43077409708E+02  0.53350814891E+02  0.00000000000E+00 0.  1.
</event>
<event>
12    1  0.9966151E-001  0.3321197E+03  0.7818608E-02  0.1070262E+00
         21   -1    0    0  503  502  0.00000000000E+00  0.00000000000E+00  0.65426980440E+03  0.65426980440E+03  0.00000000000E+00 0. -1.
         21   -1    0    0  501  503 -0.00000000000E+00 -0.00000000000E+00 -0.32980863219E+03  0.32980863219E+03  0.00000000000E+00 0. -1.
          6    2    1    2  501    0 -0.19885033430E+03  0.20145892792E+03  0.50660178185E+03  0.60576303971E+03  0.17371338409E+03 0.  0.
         24    2    3    3    0    0 -0.39500066746E+02  0.43523539416E+02  0.22589308654E+03  0.24638085271E+03  0.78875118234E+02 0.  0.
         -6    2    1    2    0  502  0.19885033430E+03 -0.20145892792E+03 -0.18214060964E+03  0.37831539688E+03  0.17268521288E+03 0.  0.
        -24    2    5    5    0    0  0.17416126423E+03 -0.15816397429E+03 -0.20464277423E+03  0.32342969199E+03  0.85907577616E+02 0.  0.
          5    1    3    3  501    0 -0.15935026755E+03  0.15793538850E+03  0.28070869531E+03  0.35938218700E+03  0.47000000000E+01 0. -1.
        -13    1    4    4    0    0 -0.44958305369E+02  0.57583913059E+02  0.12840451510E+03  0.14773244655E+03  0.00000000000E+00 0.  1.
         14    1    4    4    0    0  0.54582386224E+01 -0.14060373644E+02  0.97488571441E+02  0.98648406157E+02  0.00000000000E+00 0. -1.
         -5    1    5    5    0  502  0.24689070071E+02 -0.43294953628E+02  0.22502164590E+02  0.54885704895E+02  0.47000000000E+01 0.  1.
         11    1    6    6    0    0  0.13229026677E+03 -0.82318368921E+02 -0.16866953892E+03  0.22962238981E+03  0.00000000000E+00 0. -1.
        -12    1    6    6    0    0  0.41870997458E+02 -0.75845605372E+02 -0.35973235312E+02  0.93807302174E+02  0.00000000000E+00 0.  1.
</event>
<event>
12    1  0.9966151E-001  0.2270540E+03  0.7818608E-02  0.1128993E+00
         21   -1    0    0  501  502  0.00000000000E+00  0.00000000000E+00  0.76779566651E+02  0.76779566651E+02  0.00000000000E+00 0. -1.
         21   -1    0    0  502  503 -0.00000000000E+00 -0.00000000000E+00 -0.66807381590E+03  0.66807381590E+03  0.00000000000E+00 0. -1.
         -6    2    1    2    0  503  0.82223954659E+02 -0.12127638385E+03 -0.28267060139E+03  0.36256888782E+03  0.17344967432E+03 0.  0.
        -24    2    3    3    0    0  0.47865092844E+02 -0.14834911869E+03 -0.25991920198E+03  0.31303929533E+03  0.78339522185E+02 0.  0.
          6    2    1    2  501    0 -0.82223954659E+02  0.12127638385E+03 -0.30862364785E+03  0.38228449473E+03  0.17153465801E+03 0.  0.
         24    2    5    5    0    0 -0.32582438220E+01  0.12125089315E+03 -0.18106627407E+03  0.23218933244E+03  0.80090544077E+02 0.  0.
          5    1    5    5  501    0 -0.78965710837E+02  0.25490701562E-01 -0.12755737378E+03  0.15009516229E+03  0.47000000000E+01 0. -1.
        -13    1    6    6    0    0 -0.36499867314E+02  0.78136742257E+02 -0.81224576893E+02  0.11846950112E+03  0.00000000000E+00 0.  1.
         14    1    6    6    0    0  0.33241623492E+02  0.43114150893E+02 -0.99841697182E+02  0.11371983132E+03  0.00000000000E+00 0. -1.
         -5    1    3    3    0  503  0.34358861815E+02  0.27072734834E+02 -0.22751399418E+02  0.49529592488E+02  0.47000000000E+01 0.  1.
         11    1    4    4    0    0  0.12219534686E+02  0.60347634427E+01 -0.91752837546E+01  0.16429279647E+02  0.00000000000E+00 0. -1.
        -12    1    4    4    0    0  0.35645558158E+02 -0.15438388213E+03 -0.25074391822E+03  0.29661001568E+03  0.00000000000E+00 0.  1.
</event>
<event>
12    1  0.9966151E-001  0.2334404E+03  0.7818608E-02  0.1124300E+00
         21   -1    0    0  501  502  0.00000000000E+00  0.00000000000E+00  0.70978248533E+03  0.70978248533E+03  0.00000000000E+00 0.  1.
         21   -1    0    0  502  503 -0.00000000000E+00 -0.00000000000E+00 -0.76935099975E+02  0.76935099975E+02  0.00000000000E+00 0.  1.
         -6    2    1    2    0  503 -0.15527879596E+03 -0.30317540929E+02  0.33950779237E+03  0.41182756658E+03  0.17118921038E+03 0.  0.
        -24    2    3    3    0    0 -0.15007184876E+03  0.21148667691E+02  0.20277411538E+03  0.26556044330E+03  0.80225814070E+02 0.  0.
          6    2    1    2  501    0  0.15527879596E+03  0.30317540929E+02  0.29333959299E+03  0.37489001873E+03  0.17165008467E+03 0.  0.
         24    2    5    5    0    0  0.47692366256E+02 -0.56051067612E+02  0.15441243141E+03  0.17904001842E+03  0.52875752869E+02 0.  0.
          5    1    5    5  501    0  0.10758642971E+03  0.86368608540E+02  0.13892716157E+03  0.19585000031E+03  0.47000000000E+01 0. -1.
        -11    1    6    6    0    0  0.64003771987E+01 -0.34259683921E+02  0.29411003101E+02  0.45603704609E+02  0.00000000000E+00 0.  1.
         12    1    6    6    0    0  0.41291989057E+02 -0.21791383691E+02  0.12500142831E+03  0.13343631381E+03  0.00000000000E+00 0. -1.
         -5    1    3    3    0  503 -0.52069472094E+01 -0.51466208619E+02  0.13673367699E+03  0.14626712328E+03  0.47000000000E+01 0.  1.
         13    1    4    4    0    0 -0.15995868603E+03  0.18731097170E+02  0.19386192802E+03  0.25203190746E+03  0.00000000000E+00 0. -1.
        -14    1    4    4    0    0  0.98868372783E+01  0.24175705211E+01  0.89121873567E+01  0.13528535844E+02  0.00000000000E+00 0.  1.
</event>
<event>
12    1  0.9966151E-001  0.3774252E+03  0.7818608E-02  0.1052717E+00
         21   -1    0    0  501  502  0.00000000000E+00  0.00000000000E+00  0.15435994468E+03  0.15435994468E+03  0.00000000000E+00 0. -1.
         21   -1    0    0  502  503 -0.00000000000E+00 -0.00000000000E+00 -0.10241464268E+04  0.10241464268E+04  0.00000000000E+00 0. -1.
         -6    2    1    2    0  503 -0.17114636947E+03  0.28968975055E+03 -0.23551720576E+03  0.44487993356E+03  0.17099289377E+03 0.  0.
        -24    2    3    3    0    0 -0.11474444789E+03  0.97061263503E+02 -0.15038531557E+03  0.22680554371E+03  0.78979961548E+02 0.  0.
          6    2    1    2  501    0  0.17114636947E+03 -0.28968975055E+03 -0.63426927634E+03  0.73362643790E+03  0.15066188676E+03 0.  0.
         24    2    5    5    0    0  0.13139545715E+03 -0.22456235851E+03 -0.57651090519E+03  0.63781499985E+03  0.82159182118E+02 0.  0.
          5    1    5    5  501    0  0.39750912320E+02 -0.65127392042E+02 -0.57758371149E+02  0.95811438056E+02  0.47000000000E+01 0. -1.
        -13    1    6    6    0    0  0.12986153126E+03 -0.15779815379E+03 -0.40202935550E+03  0.45098988605E+03  0.00000000000E+00 0.  1.
         14    1    6    6    0    0  0.15339258891E+01 -0.66764204723E+02 -0.17448154969E+03  0.18682511379E+03  0.00000000000E+00 0. -1.
         -5    1    3    3    0  503 -0.56401921580E+02  0.19262848705E+03 -0.85131890190E+02  0.21807438985E+03  0.47000000000E+01 0.  1.
         11    1    4    4    0    0 -0.93121250161E+02  0.34406368873E+02 -0.64782188443E+02  0.11854154289E+03  0.00000000000E+00 0. -1.
        -12    1    4    4    0    0 -0.21623197726E+02  0.62654894630E+02 -0.85603127125E+02  0.10826400083E+03  0.00000000000E+00 0.  1.
</event>
<event>
12    1  0.9966151E-001  0.2277222E+03  0.7818608E-02  0.1128358E+00
         21   -1    0    0  501  502  0.00000000000E+00  0.00000000000E+00  0.17083845524E+03  0.17083845524E+03  0.00000000000E+00 0.  1.
         21   -1    0    0  502  503 -0.00000000000E+00 -0.00000000000E+00 -0.44930273000E+03  0.44930273000E+03  0.00000000000E+00 0. -1.
         -6    2    1    2    0  503 -0.14702506031E+03 -0.18460064190E+02  0.37966505870E+02  0.23028759921E+03  0.17214464979E+03 0.  0.
        -24    2    3    3    0    0 -0.13077277717E+03 -0.40221427163E+02 -0.25622433312E+02  0.16098148972E+03  0.80865619964E+02 0.  0.
          6    2    1    2  501    0  0.14702506031E+03  0.18460064190E+02 -0.31643078063E+03  0.38985358603E+03  0.17291685079E+03 0.  0.
         24    2    5    5    0    0  0.10434570324E+03 -0.12030187145E+00 -0.74920651803E+02  0.14385360667E+03  0.64751183986E+02 0.  0.
          5    1    5    5  501    0  0.42679357067E+02  0.18580366061E+02 -0.24151012882E+03  0.24599997936E+03  0.47000000000E+01 0. -1.
        -11    1    6    6    0    0  0.18868521723E+02  0.22195590899E+02 -0.18200190782E+01  0.29188659387E+02  0.00000000000E+00 0.  1.
         12    1    6    6    0    0  0.85477181519E+02 -0.22315892770E+02 -0.73100632725E+02  0.11466494728E+03  0.00000000000E+00 0. -1.
         -5    1    3    3    0  503 -0.16252283139E+02  0.21761362973E+02  0.63588939182E+02  0.69306109485E+02  0.47000000000E+01 0.  1.
         13    1    4    4    0    0 -0.76575523603E+02 -0.61332023984E+02 -0.17926620121E+01  0.98125642001E+02  0.00000000000E+00 0. -1.
        -14    1    4    4    0    0 -0.54197253567E+02  0.21110596821E+02 -0.23829771300E+02  0.62855847720E+02  0.00000000000E+00 0.  1.
</event>
<event>
12    1  0.9966151E-001  0.1771982E+03  0.7818608E-02  0.1170952E+00
         21   -1    0    0  503  502  0.00000000000E+00  0.00000000000E+00  0.21646390929E+03  0.21646390929E+03  0.00000000000E+00 0. -1.
         21   -1    0    0  501  503 -0.00000000000E+00 -0.00000000000E+00 -0.14448733046E+03  0.14448733046E+03  0.00000000000E+00 0. -1.
          6    2    1    2  501    0 -0.99794442461E+01  0.37993585631E+02  0.22555299262E+02  0.17699018778E+03  0.17109553819E+03 0.  0.
         24    2    3    3    0    0 -0.38043901997E+02  0.67733775309E+02  0.55585487176E+02  0.12421542123E+03  0.79401018190E+02 0.  0.
         -6    2    1    2    0  502  0.99794442461E+01 -0.37993585631E+02  0.49421279560E+02  0.18396105197E+03  0.17278918922E+03 0.  0.
        -24    2    5    5    0    0 -0.51794603631E+02 -0.24338745058E+02  0.65995345261E+02  0.11839217737E+03  0.79914120092E+02 0.  0.
          5    1    3    3  501    0  0.28064457751E+02 -0.29740189678E+02 -0.33030187914E+02  0.52774766552E+02  0.47000000000E+01 0. -1.
        -11    1    4    4    0    0  0.37562175956E+01  0.62451636650E+02  0.12208246109E+02  0.63744469282E+02  0.00000000000E+00 0.  1.
         12    1    4    4    0    0 -0.41800119593E+02  0.52821386585E+01  0.43377241067E+02  0.60470951947E+02  0.00000000000E+00 0. -1.
         -5    1    5    5    0  502  0.61774047878E+02 -0.13654840572E+02 -0.16574065702E+02  0.65568874599E+02  0.47000000000E+01 0.  1.
         13    1    6    6    0    0  0.16532232325E+02 -0.24960966099E+02  0.21291665066E+02  0.36738257111E+02  0.00000000000E+00 0. -1.
        -14    1    6    6    0    0 -0.68326835957E+02  0.62222104088E+00  0.44703680195E+02  0.81653920260E+02  0.00000000000E+00 0.  1.
</event>
<event>
12    1  0.9966151E-001  0.1968430E+03  0.7818608E-02  0.1152653E+00
         21   -1    0    0  503  502  0.00000000000E+00  0.00000000000E+00  0.15685813534E+03  0.15685813534E+03  0.00000000000E+00 0.  1.
         21   -1    0    0  501  503 -0.00000000000E+00 -0.00000000000E+00 -0.31760509352E+03  0.31760509352E+03  0.00000000000E+00 0.  1.
          6    2    1    2  501    0 -0.11274427997E+02  0.94278536879E+02  0.32647962303E+02  0.19851257820E+03  0.17124777085E+03 0.  0.
         24    2    3    3    0    0 -0.62993184684E+02  0.45459946583E+02 -0.14585003441E+02  0.11300744617E+03  0.80766407025E+02 0.  0.
         -6    2    1    2    0  502  0.11274427997E+02 -0.94278536879E+02 -0.19339492048E+03  0.27595065066E+03  0.17242856808E+03 0.  0.
        -24    2    5    5    0    0  0.39992608383E+02 -0.46455564982E+01 -0.45448465274E+02  0.10053956588E+03  0.80135206934E+02 0.  0.
          5    1    3    3  501    0  0.51718756687E+02  0.48818590296E+02  0.47232965745E+02  0.85505132037E+02  0.47000000000E+01 0. -1.
        -13    1    4    4    0    0 -0.24483039615E+02  0.42574398001E+02  0.27174186939E+02  0.56128736221E+02  0.00000000000E+00 0.  1.
         14    1    4    4    0    0 -0.38510145069E+02  0.28855485822E+01 -0.41759190381E+02  0.56878709946E+02  0.00000000000E+00 0. -1.
         -5    1    5    5    0  502 -0.28718180386E+02 -0.89632980381E+02 -0.14794645521E+03  0.17541108478E+03  0.47000000000E+01 0.  1.
         11    1    6    6    0    0  0.47704433883E+02 -0.28062972273E+02 -0.51007279237E+02  0.75266101002E+02  0.00000000000E+00 0. -1.
        -12    1    6    6    0    0 -0.77118255002E+01  0.23417415774E+02  0.55588139627E+01  0.25273464875E+02  0.00000000000E+00 0.  1.
</event>
<event>
12    1  0.9966151E-001  0.3471267E+03  0.7818608E-02  0.1063803E+00
         21   -1    0    0  503  502  0.00000000000E+00  0.00000000000E+00  0.74404661576E+02  0.74404661576E+02  0.00000000000E+00 0. -1.
         21   -1    0    0  501  503 -0.00000000000E+00 -0.00000000000E+00 -0.16194774821E+04  0.16194774821E+04  0.00000000000E+00 0. -1.
          6    2    1    2  501    0  0.30033955622E+03 -0.24189328763E+02 -0.77929856338E+03  0.85310441548E+03  0.17231343584E+03 0.  0.
         24    2    3    3    0    0  0.56058308211E+02 -0.86904326124E+01 -0.16499367447E+03  0.19181315556E+03  0.79695147231E+02 0.  0.
         -6    2    1    2    0  502 -0.30033955622E+03  0.24189328763E+02 -0.76577425717E+03  0.84077772822E+03  0.17236009593E+03 0.  0.
        -24    2    5    5    0    0 -0.25246983881E+03  0.69472919353E+02 -0.50273371176E+03  0.56956834056E+03  0.55672287579E+02 0.  0.
          5    1    3    3  501    0  0.24428124801E+03 -0.15498896151E+02 -0.61430488890E+03  0.66129125992E+03  0.47000000000E+01 0. -1.
        -11    1    4    4    0    0  0.59596188707E+02 -0.29636763972E+02 -0.15427252393E+03  0.16801802024E+03  0.00000000000E+00 0.  1.
         12    1    4    4    0    0 -0.35378804960E+01  0.20946331359E+02 -0.10721150542E+02  0.23795135317E+02  0.00000000000E+00 0. -1.
         -5    1    5    5    0  502 -0.47869717412E+02 -0.45283590590E+02 -0.26304054541E+03  0.27120938765E+03  0.47000000000E+01 0.  1.
         11    1    6    6    0    0 -0.18030037624E+03  0.74410141468E+02 -0.35413834890E+03  0.40430071109E+03  0.00000000000E+00 0. -1.
        -12    1    6    6    0    0 -0.72169462571E+02 -0.49372221145E+01 -0.14859536285E+03  0.16526762947E+03  0.00000000000E+00 0.  1.
</event>
<event>
12    1  0.9966151E-001  0.3689645E+03  0.7818608E-02  0.1056014E+00
         21   -1    0    0  501  502  0.00000000000E+00  0.00000000000E+00  0.32642622833E+03  0.32642622833E+03  0.00000000000E+00 0.  1.
         21   -1    0    0  502  503 -0.00000000000E+00 -0.00000000000E+00 -0.43848575598E+03  0.43848575598E+03  0.00000000000E+00 0.  1.
         -6    2    1    2    0  503  0.11090833979E+03 -0.29443157879E+03 -0.15883863846E+03  0.39299385085E+03  0.17385004835E+03 0.  0.
        -24    2    3    3    0    0  0.64135179297E+02 -0.79528055612E+02 -0.10996409093E+03  0.16764508956E+03  0.74664194279E+02 0.  0.
          6    2    1    2  501    0 -0.11090833979E+03  0.29443157879E+03  0.46779110803E+02  0.37191813347E+03  0.19272830194E+03 0.  0.
         24    2    5    5    0    0 -0.11676438307E+03  0.31356980476E+03  0.29667610219E+02  0.34517007955E+03  0.79386857250E+02 0.  0.
          5    1    5    5  501    0  0.58560432829E+01 -0.19138225971E+02  0.17111500585E+02  0.26748053920E+02  0.47000000000E+01 0. -1.
        -13    1    6    6    0    0 -0.75693196762E+01  0.33689540485E+02 -0.21125646293E+02  0.40479286922E+02  0.00000000000E+00 0.  1.
         14    1    6    6    0    0 -0.10919506340E+03  0.27988026428E+03  0.50793256511E+02  0.30469079262E+03  0.00000000000E+00 0. -1.
         -5    1    3    3    0  503  0.46773160493E+02 -0.21490352318E+03 -0.48874547534E+02  0.22534876129E+03  0.47000000000E+01 0.  1.
         11    1    4    4    0    0  0.16305683897E+02 -0.64260854282E+02 -0.28966853557E+02  0.72349231685E+02  0.00000000000E+00 0. -1.
        -12    1    4    4    0    0  0.47829495401E+02 -0.15267201330E+02 -0.80997237368E+02  0.95295857874E+02  0.00000000000E+00 0.  1.
</event>
<event>
12    1  0.9966151E-001  0.3744164E+03  0.7818608E-02  0.1053058E+00
         21   -1    0    0  503  502  0.00000000000E+00  0.00000000000E+00  0.49514264408E+03  0.49514264408E+03  0.00000000000E+00 0.  1.
         21   -1    0    0  501  503 -0.00000000000E+00 -0.00000000000E+00 -0.48603891210E+03  0.48603891210E+03  0.00000000000E+00 0.  1.
          6    2    1    2  501    0 -0.34515509076E+02  0.33082750028E+03  0.32179623441E+03  0.49370078202E+03  0.17189965205E+03 0.  0.
         24    2    3    3    0    0 -0.53169619778E+02  0.13576772680E+03  0.86158082799E+02  0.18719838469E+03  0.79750460120E+02 0.  0.
         -6    2    1    2    0  502  0.34515509076E+02 -0.33082750028E+03 -0.31269250243E+03  0.48748077416E+03  0.17094662557E+03 0.  0.
        -24    2    5    5    0    0  0.76495229253E+02 -0.30526129117E+03 -0.26006684670E+03  0.41531791948E+03  0.76277345951E+02 0.  0.
          5    1    3    3  501    0  0.18654110702E+02  0.19505977348E+03  0.23563815161E+03  0.30650239733E+03  0.47000000000E+01 0. -1.
        -11    1    4    4    0    0 -0.41261441023E+02  0.35017680237E+02  0.63157896839E+02  0.83172497723E+02  0.00000000000E+00 0.  1.
         12    1    4    4    0    0 -0.11908178756E+02  0.10075004657E+03  0.23000185960E+02  0.10402588696E+03  0.00000000000E+00 0. -1.
         -5    1    5    5    0  502 -0.41979720178E+02 -0.25566209108E+02 -0.52625655727E+02  0.72162854676E+02  0.47000000000E+01 0.  1.
         13    1    6    6    0    0 -0.22678320115E+01 -0.13432658369E+03 -0.12652105497E+03  0.18454363034E+03  0.00000000000E+00 0. -1.
        -14    1    6    6    0    0  0.78763061265E+02 -0.17093470748E+03 -0.13354579173E+03  0.23077428915E+03  0.00000000000E+00 0.  1.
</event>
<event>
12    1  0.9966151E-001  0.1906013E+03  0.7818608E-02  0.1158476E+00
         21   -1    0    0  503  502  0.00000000000E+00  0.00000000000E+00  0.18499682503E+02  0.18499682503E+02  0.00000000000E+00 0. -1.
         21   -1    0    0  501  503 -0.00000000000E+00 -0.00000000000E+00 -0.22524520123E+04  0.22524520123E+04  0.00000000000E+00 0. -1.
          6    2    1    2  501    0  0.33264930703E+01  0.75515914331E+02 -0.15346309493E+04  0.15461211871E+04  0.17229293619E+03 0.  0.
         24    2    3    3    0    0 -0.51621778033E+02  0.53657708961E+02 -0.12832195899E+04  0.12878057690E+04  0.79039388307E+02 0.  0.
         -6    2    1    2    0  502 -0.33264930703E+01 -0.75515914331E+02 -0.69932138048E+03  0.72483050766E+03  0.17497186278E+03 0.  0.
        -24    2    5    5    0    0  0.39671426106E+02 -0.48222137499E+02 -0.21716182506E+03  0.23996588924E+03  0.80778543829E+02 0.  0.
          5    1    3    3  501    0  0.54948271104E+02  0.21858205370E+02 -0.25141135936E+03  0.25831541815E+03  0.47000000000E+01 0. -1.
        -11    1    4    4    0    0  0.13554067724E+02  0.90637987313E+01 -0.64458738071E+02  0.66489052580E+02  0.00000000000E+00 0.  1.
         12    1    4    4    0    0 -0.65175845757E+02  0.44593910230E+02 -0.12187608519E+04  0.12213167164E+04  0.00000000000E+00 0. -1.
         -5    1    5    5    0  502 -0.42997919176E+02 -0.27293776832E+02 -0.48215955542E+03  0.48486461842E+03  0.47000000000E+01 0.  1.
         13    1    6    6    0    0  0.17500216921E+02  0.22108067364E+02 -0.54182802864E+02  0.61080278005E+02  0.00000000000E+00 0. -1.
        -14    1    6    6    0    0  0.22171209184E+02 -0.70330204863E+02 -0.16297902219E+03  0.17888561124E+03  0.00000000000E+00 0.  1.
</event>
<event>
12    1  0.9966151E-001  0.2527640E+03  0.7818608E-02  0.1111692E+00
         21   -1    0    0  501  502  0.00000000000E+00  0.00000000000E+00  0.17238807569E+03  0.17238807569E+03  0.00000000000E+00 0.  1.
         21   -1    0    0  502  503 -0.00000000000E+00 -0.00000000000E+00 -0.50194355906E+03  0.50194355906E+03  0.00000000000E+00 0.  1.
         -6    2    1    2    0  503 -0.35632822169E+02 -0.18145995489E+03  0.86217737696E+01  0.25213085583E+03  0.17116722885E+03 0.  0.
        -24    2    3    3    0    0 -0.59245634309E+02 -0.15184127147E+03  0.57233455415E+02  0.19032457057E+03  0.79887150646E+02 0.  0.
          6    2    1    2  501    0  0.35632822169E+02  0.18145995489E+03 -0.33817725714E+03  0.42220077892E+03  0.17231432685E+03 0.  0.
         24    2    5    5    0    0 -0.31844408049E+02  0.47643091576E+02 -0.94820823753E+02  0.13636066072E+03  0.79494092089E+02 0.  0.
          5    1    5    5  501    0  0.67477230218E+02  0.13381686331E+03 -0.24335643338E+03  0.28584011820E+03  0.47000000000E+01 0. -1.
        -13    1    6    6    0    0 -0.34481724609E+02 -0.48843017987E+01 -0.94424759380E+01  0.36083321464E+02  0.00000000000E+00 0.  1.
         14    1    6    6    0    0  0.26373165598E+01  0.52527393375E+02 -0.85378347815E+02  0.10027733926E+03  0.00000000000E+00 0. -1.
         -5    1    3    3    0  503  0.23612812140E+02 -0.29618683414E+02 -0.48611681645E+02  0.61806285252E+02  0.47000000000E+01 0.  1.
         13    1    4    4    0    0 -0.34355562145E+02 -0.45638776968E+02 -0.15535669171E+02  0.59199321196E+02  0.00000000000E+00 0. -1.
        -14    1    4    4    0    0 -0.24890072163E+02 -0.10620249451E+03  0.72769124586E+02  0.13112524938E+03  0.00000000000E+00 0.  1.
</event>
<event>
12    1  0.9966151E-001  0.1892636E+03  0.7818608E-02  0.1159801E+00
         21   -1    0    0  501  502  0.00000000000E+00  0.00000000000E+00  0.27416804038E+02  0.27416804038E+02  0.00000000000E+00 0.  1.
         21   -1    0    0  502  503 -0.00000000000E+00 -0.00000000000E+00 -0.13104279703E+04  0.13104279703E+04  0.00000000000E+00 0.  1.
         -6    2    1    2    0  503 -0.15550660441E+02  0.68594380662E+02 -0.54568173582E+03  0.57661195708E+03  0.17252762138E+03 0.  0.
        -24    2    3    3    0    0 -0.19948542897E+02 -0.54520678594E+01 -0.12778176152E+03  0.15215383614E+03  0.79968380427E+02 0.  0.
          6    2    1    2  501    0  0.15550660441E+02 -0.68594380662E+02 -0.73732943045E+03  0.76123281727E+03  0.17570913743E+03 0.  0.
         24    2    5    5    0    0  0.70068149996E+02 -0.39302014658E+02 -0.32436716399E+03  0.34363238277E+03  0.80093466725E+02 0.  0.
          5    1    5    5  501    0 -0.54517489555E+02 -0.29292366004E+02 -0.41296226646E+03  0.41760043450E+03  0.47000000000E+01 0. -1.
        -13    1    6    6    0    0  0.10767287314E+02 -0.44223778437E+02 -0.79199201614E+02  0.91346541213E+02  0.00000000000E+00 0.  1.
         14    1    6    6    0    0  0.59300862682E+02  0.49217637786E+01 -0.24516796238E+03  0.25228584156E+03  0.00000000000E+00 0. -1.
         -5    1    3    3    0  503  0.43978824561E+01  0.74046448521E+02 -0.41789997430E+03  0.42445812094E+03  0.47000000000E+01 0.  1.
         11    1    4    4    0    0  0.19960720573E+02 -0.18893825870E+02 -0.94682158290E+02  0.98590659396E+02  0.00000000000E+00 0. -1.
        -12    1    4    4    0    0 -0.39909263470E+02  0.13441758011E+02 -0.33099603229E+02  0.53563176745E+02  0.00000000000E+00 0.  1.
</event>
<event>
12    1  0.9966151E-001  0.1846543E+03  0.7818608E-02  0.1163480E+00
         21   -1    0    0  503  502  0.00000000000E+00  0.00000000000E+00  0.26423794657E+03  0.26423794657E+03  0.00000000000E+00 0. -1.
         21   -1    0    0  501  503 -0.00000000000E+00 -0.00000000000E+00 -0.52444466649E+03  0.52444466649E+03  0.00000000000E+00 0. -1.
          6    2    1    2  501    0  0.53054990712E+02  0.40217367965E+02  0.21248166018E+03  0.28120697745E+03  0.17174585739E+03 0.  0.
         24    2    3    3    0    0  0.36996619275E+02  0.72699973504E+02  0.21694494831E+03  0.24439662705E+03  0.77527831965E+02 0.  0.
         -6    2    1    2    0  502 -0.53054990712E+02 -0.40217367965E+02 -0.47268838010E+03  0.50747563560E+03  0.17223515125E+03 0.  0.
        -24    2    5    5    0    0  0.32981952649E+02  0.49027859518E+01 -0.20046305714E+03  0.21839623410E+03  0.79997695476E+02 0.  0.
          5    1    3    3  501    0  0.16058371437E+02 -0.32482605539E+02 -0.44632881360E+01  0.36810350403E+02  0.47000000000E+01 0. -1.
        -11    1    4    4    0    0  0.65425985955E+01  0.36452481288E+02  0.20505438412E+02  0.42332753193E+02  0.00000000000E+00 0.  1.
         12    1    4    4    0    0  0.30454020680E+02  0.36247492216E+02  0.19643950990E+03  0.20206387386E+03  0.00000000000E+00 0. -1.
         -5    1    5    5    0  502 -0.86036943361E+02 -0.45120153917E+02 -0.27222532296E+03  0.28907940150E+03  0.47000000000E+01 0.  1.
         11    1    6    6    0    0 -0.23535717620E+02 -0.12921471451E+02 -0.74457657657E+02  0.79150724647E+02  0.00000000000E+00 0. -1.
        -12    1    6    6    0    0  0.56517670269E+02  0.17824257402E+02 -0.12600539948E+03  0.13924550946E+03  0.00000000000E+00 0.  1.
</event>
<event>
12    1  0.9966151E-001  0.2246271E+03  0.7818608E-02  0.1131347E+00
         21   -1    0    0  501  502  0.00000000000E+00  0.00000000000E+00  0.26235425456E+03  0.26235425456E+03  0.00000000000E+00 0. -1.
         21   -1    0    0  502  503 -0.00000000000E+00 -0.00000000000E+00 -0.27120846847E+03  0.27120846847E+03  0.00000000000E+00 0. -1.
         -6    2    1    2    0  503  0.58594130364E+02  0.13321857257E+03 -0.15195661558E+03  0.27119764602E+03  0.17110490932E+03 0.  0.
        -24    2    3    3    0    0  0.23761674727E+02  0.52979442259E+02 -0.15504792371E+03  0.18354341517E+03  0.79226814384E+02 0.  0.
          6    2    1    2  501    0 -0.58594130364E+02 -0.13321857257E+03  0.14310240167E+03  0.26236507701E+03  0.16485349883E+03 0.  0.
         24    2    5    5    0    0 -0.11071093372E+02 -0.14641485834E+03  0.91838242820E+02  0.19107212514E+03  0.80711921735E+02 0.  0.
          5    1    5    5  501    0 -0.47523036992E+02  0.13196285769E+02  0.51264158852E+02  0.71292951866E+02  0.47000000000E+01 0. -1.
        -11    1    6    6    0    0 -0.11229456887E+02 -0.95454302246E+02  0.10085757905E+03  0.13931933022E+03  0.00000000000E+00 0.  1.
         12    1    6    6    0    0  0.15836351478E+00 -0.50960556096E+02 -0.90193362325E+01  0.51752794927E+02  0.00000000000E+00 0. -1.
         -5    1    3    3    0  503  0.34832455637E+02  0.80239130314E+02  0.30913081272E+01  0.87654230846E+02  0.47000000000E+01 0.  1.
         13    1    4    4    0    0  0.24248374238E+02  0.50227701900E+02 -0.40418771021E+02  0.68880205736E+02  0.00000000000E+00 0. -1.
        -14    1    4    4    0    0 -0.48669951154E+00  0.27517403589E+01 -0.11462915269E+03  0.11466320943E+03  0.00000000000E+00 0.  1.
</event>
<event>
12    1  0.9966151E-001  0.2217963E+03  0.7818608E-02  0.1134382E+00
         21   -1    0    0  501  502  0.00000000000E+00  0.00000000000E+00  0.29280776175E+03  0.29280776175E+03  0.00000000000E+00 0. -1.
         21   -1    0    0  502  503 -0.00000000000E+00 -0.00000000000E+00 -0.17800105602E+03  0.17800105602E+03  0.00000000000E+00 0. -1.
         -6    2    1    2    0  503 -0.64922106754E+02 -0.10947989586E+03 -0.17031871293E+02  0.21278744768E+03  0.16966934227E+03 0.  0.
        -24    2    3    3    0    0  0.10572600484E+02 -0.11456624495E+03 -0.56728797452E+01  0.13612951621E+03  0.72538674204E+02 0.  0.
          6    2    1    2  501    0  0.64922106754E+02  0.10947989586E+03  0.13183857702E+03  0.25802137009E+03  0.18163944916E+03 0.  0.
         24    2    5    5    0    0  0.88145838458E+02  0.35133816096E+02  0.12929590374E+03  0.17994937461E+03  0.81610494593E+02 0.  0.
          5    1    5    5  501    0 -0.23223731704E+02  0.74346079766E+02  0.25426732752E+01  0.78071995480E+02  0.47000000000E+01 0. -1.
        -11    1    6    6    0    0  0.24587138252E+02  0.52933448288E+02  0.50663941314E+02  0.77287206345E+02  0.00000000000E+00 0.  1.
         12    1    6    6    0    0  0.63558700206E+02 -0.17799632192E+02  0.78631962428E+02  0.10266216827E+03  0.00000000000E+00 0. -1.
         -5    1    3    3    0  503 -0.75494707238E+02  0.50863490912E+01 -0.11358991548E+02  0.76657931468E+02  0.47000000000E+01 0.  1.
         13    1    4    4    0    0 -0.15741947771E+02 -0.51163892477E+02 -0.32276288899E+02  0.62508492528E+02  0.00000000000E+00 0. -1.
        -14    1    4    4    0    0  0.26314548255E+02 -0.63402352476E+02  0.26603409153E+02  0.73621023682E+02  0.00000000000E+00 0.  1.
</event>
<event>
12    1  0.9966151E-001  0.2066696E+03  0.7818608E-02  0.1144413E+00
         21   -1    0    0  503  502  0.00000000000E+00  0.00000000000E+00  0.72159046407E+03  0.72159046407E+03  0.00000000000E+00 0.  1.
         21   -1    0    0  501  503 -0.00000000000E+00 -0.00000000000E+00 -0.78660909030E+02  0.78660909030E+02  0.00000000000E+00 0.  1.
          6    2    1    2  501    0  0.43150738640E+02  0.10674281911E+03  0.12161616844E+03  0.23979745431E+03  0.17162840963E+03 0.  0.
         24    2    3    3    0    0 -0.29233894575E+02  0.67542146063E+02  0.10281478977E+03  0.15522908119E+03  0.90047901504E+02 0.  0.
         -6    2    1    2    0  502 -0.43150738640E+02 -0.10674281911E+03  0.52131338660E+03  0.56045391878E+03  0.17054305132E+03 0.  0.
        -24    2    5    5    0    0 -0.40722137632E+02 -0.13937049859E+03  0.36685321242E+03  0.40249664932E+03  0.79623142848E+02 0.  0.
          5    1    3    3  501    0  0.72384633214E+02  0.39200673048E+02  0.18801378670E+02  0.84568373124E+02  0.47000000000E+01 0. -1.
        -13    1    4    4    0    0 -0.13585679839E+02  0.50377194229E+02  0.24745739661E+01  0.52235580895E+02  0.00000000000E+00 0.  1.
         14    1    4    4    0    0 -0.15648214736E+02  0.17164951833E+02  0.10034021580E+03  0.10299350029E+03  0.00000000000E+00 0. -1.
         -5    1    5    5    0  502 -0.24286010076E+01  0.32627679475E+02  0.15446017417E+03  0.15795726946E+03  0.47000000000E+01 0.  1.
         11    1    6    6    0    0 -0.40351352461E+02 -0.38088274752E+02  0.19769939480E+03  0.20533874214E+03  0.00000000000E+00 0. -1.
        -12    1    6    6    0    0 -0.37078517069E+00 -0.10128222383E+03  0.16915381762E+03  0.19715790718E+03  0.00000000000E+00 0.  1.
</event>
<event>
12    1  0.9966151E-001  0.1789591E+03  0.7818608E-02  0.1169094E+00
         21   -1    0    0  501  502  0.00000000000E+00  0.00000000000E+00  0.16983952245E+03  0.16983952245E+03  0.00000000000E+00 0.  1.
         21   -1    0    0  502  503 -0.00000000000E+00 -0.00000000000E+00 -0.20976390061E+03  0.20976390061E+03  0.00000000000E+00 0.  1.
         -6    2    1    2    0  503 -0.35446049899E+02  0.27235988023E+02  0.42001566349E+02  0.18382193689E+03  0.17328632782E+03 0.  0.
        -24    2    3    3    0    0  0.21684321807E+02  0.28038707269E+02  0.77596469033E+02  0.11634148916E+03  0.79105949051E+02 0.  0.
          6    2    1    2  501    0  0.35446049899E+02 -0.27235988023E+02 -0.81925944506E+02  0.19578148617E+03  0.17210551545E+03 0.  0.
         24    2    5    5    0    0  0.30077146961E+01  0.35817224940E+02  0.15954209464E+01  0.86118996038E+02  0.78243313839E+02 0.  0.
          5    1    5    5  501    0  0.32438335203E+02 -0.63053212964E+02 -0.83521365452E+02  0.10966249014E+03  0.47000000000E+01 0. -1.
        -11    1    6    6    0    0 -0.23550139503E+02  0.39754302850E+02 -0.21257671528E+02  0.50861599115E+02  0.00000000000E+00 0.  1.
         12    1    6    6    0    0  0.26557854199E+02 -0.39370779100E+01  0.22853092474E+02  0.35257396923E+02  0.00000000000E+00 0. -1.
         -5    1    3    3    0  503 -0.57130371706E+02 -0.80271924615E+00 -0.35594902683E+02  0.67480447735E+02  0.47000000000E+01 0.  1.
         13    1    4    4    0    0 -0.53308015792E+01  0.19924570860E+02  0.84764364516E+02  0.87237626407E+02  0.00000000000E+00 0. -1.
        -14    1    4    4    0    0  0.27015123386E+02  0.81141364095E+01 -0.71678954832E+01  0.29103862749E+02  0.00000000000E+00 0.  1.
</event>
<event>
12    1  0.9966151E-001  0.5234514E+03  0.7818608E-02  0.1007853E+00
         21   -1    0    0  503  502  0.00000000000E+00  0.00000000000E+00  0.69638187404E+03  0.69638187404E+03  0.00000000000E+00 0.  1.
         21   -1    0    0  501  503 -0.00000000000E+00 -0.00000000000E+00 -0.39774574027E+03  0.39774574027E+03  0.00000000000E+00 0.  1.
          6    2    1    2  501    0  0.45029973947E+03 -0.20282652988E+03  0.20763107208E+03  0.56282425278E+03  0.17248774112E+03 0.  0.
         24    2    3    3    0    0  0.13721638501E+03 -0.11999860839E+03  0.57722395586E+02  0.20592601420E+03  0.76456824680E+02 0.  0.
         -6    2    1    2    0  502 -0.45029973947E+03  0.20282652988E+03  0.91005061693E+02  0.53130336152E+03  0.17347300688E+03 0.  0.
        -24    2    5    5    0    0 -0.28376680644E+03  0.53515211267E+02  0.46094679137E+02  0.30312334462E+03  0.79822079248E+02 0.  0.
          5    1    3    3  501    0  0.31308335446E+03 -0.82827921498E+02  0.14990867649E+03  0.35689823859E+03  0.47000000000E+01 0. -1.
        -11    1    4    4    0    0  0.49683133619E+02 -0.80329081963E+00  0.11729101783E+02  0.51055174772E+02  0.00000000000E+00 0.  1.
         12    1    4    4    0    0  0.87533251393E+02 -0.11919531757E+03  0.45993293803E+02  0.15487083942E+03  0.00000000000E+00 0. -1.
         -5    1    5    5    0  502 -0.16653293304E+03  0.14931131862E+03  0.44910382556E+02  0.22818001690E+03  0.47000000000E+01 0.  1.
         11    1    6    6    0    0 -0.23515006290E+03  0.63885434460E+02  0.14255029218E+02  0.24409036580E+03  0.00000000000E+00 0. -1.
        -12    1    6    6    0    0 -0.48616743535E+02 -0.10370223194E+02  0.31839649919E+02  0.59032978818E+02  0.00000000000E+00 0.  1.
</event>
<event>
12    1  0.9966151E-001  0.2445918E+03  0.7818608E-02  0.1116913E+00
         21   -1    0    0  503  502  0.00000000000E+00  0.00000000000E+00  0.17179138681E+03  0.17179138681E+03  0.00000000000E+00 0.  1.
         21   -1    0    0  501  503 -0.00000000000E+00 -0.00000000000E+00 -0.54735325056E+03  0.54735325056E+03  0.00000000000E+00 0.  1.
          6    2    1    2  501    0  0.35205740531E+02 -0.16933716369E+03  0.29972423374E+02  0.24555916789E+03  0.17171615998E+03 0.  0.
         24    2    3    3    0    0 -0.20783746136E+02 -0.15053027907E+03  0.56546821385E+02  0.18062219725E+03  0.79595892540E+02 0.  0.
         -6    2    1    2    0  502 -0.35205740531E+02  0.16933716369E+03 -0.40553428713E+03  0.47358546949E+03  0.17294686958E+03 0.  0.
        -24    2    5    5    0    0 -0.62960505935E+02  0.73880857998E+02 -0.14015267133E+03  0.19015695062E+03  0.84228784295E+02 0.  0.
          5    1    3    3  501    0  0.55989486667E+02 -0.18806884621E+02 -0.26574398011E+02  0.64936970641E+02  0.47000000000E+01 0. -1.
        -11    1    4    4    0    0  0.20329680024E+02 -0.89828658075E+01 -0.13381891013E+01  0.22266084479E+02  0.00000000000E+00 0.  1.
         12    1    4    4    0    0 -0.41113426160E+02 -0.14154741326E+03  0.57885010486E+02  0.15835611277E+03  0.00000000000E+00 0. -1.
         -5    1    5    5    0  502  0.27754765405E+02  0.95456305691E+02 -0.26538161580E+03  0.28342851886E+03  0.47000000000E+01 0.  1.
         13    1    6    6    0    0  0.14790730367E+00  0.61295704999E+02 -0.88426964228E+02  0.10759420677E+03  0.00000000000E+00 0. -1.
        -14    1    6    6    0    0 -0.63108413239E+02  0.12585152999E+02 -0.51725707099E+02  0.82562743852E+02  0.00000000000E+00 0.  1.
</event>
<event>
12    1  0.9966151E-001  0.2239483E+03  0.7818608E-02  0.1131565E+00
         21   -1    0    0  501  502  0.00000000000E+00  0.00000000000E+00  0.17069650951E+04  0.17069650951E+04  0.00000000000E+00 0.  1.
         21   -1    0    0  502  503 -0.00000000000E+00 -0.00000000000E+00 -0.28967878649E+02  0.28967878649E+02  0.00000000000E+00 0.  1.
         -6    2    1    2    0  503 -0.12145605639E+03  0.67191159886E+02  0.81820756382E+03  0.84745613618E+03  0.17161602392E+03 0.  0.
        -24    2    3    3    0    0 -0.11771173587E+03  0.10417808732E+03  0.73947453133E+03  0.76026076279E+03  0.80403472001E+02 0.  0.
          6    2    1    2  501    0  0.12145605639E+03 -0.67191159886E+02  0.85978965259E+03  0.88847683753E+03  0.17574589188E+03 0.  0.
         24    2    5    5    0    0  0.45588161593E+02 -0.56125634436E+02  0.72667686217E+03  0.73479050668E+03  0.81421492093E+02 0.  0.
          5    1    5    5  501    0  0.75867894798E+02 -0.11065525450E+02  0.13311279042E+03  0.15368633084E+03  0.47000000000E+01 0. -1.
        -13    1    6    6    0    0  0.52717788698E+02 -0.70708488378E+02  0.67175088183E+03  0.67751612735E+03  0.00000000000E+00 0.  1.
         14    1    6    6    0    0 -0.71296271050E+01  0.14582853943E+02  0.54925980342E+02  0.57274379335E+02  0.00000000000E+00 0. -1.
         -5    1    3    3    0  503 -0.37443205212E+01 -0.36986927431E+02  0.78733032489E+02  0.87195373397E+02  0.47000000000E+01 0.  1.
         11    1    4    4    0    0 -0.81573026155E+02  0.46717036465E+02  0.56996442401E+03  0.57766433569E+03  0.00000000000E+00 0. -1.
        -12    1    4    4    0    0 -0.36138709714E+02  0.57461050852E+02  0.16951010732E+03  0.18259642710E+03  0.00000000000E+00 0.  1.
</event>
<event>
12    1  0.9966151E-001  0.2154809E+03  0.7818608E-02  0.1137610E+00
         21   -1    0    0  503  502  0.00000000000E+00  0.00000000000E+00  0.23144710756E+03  0.23144710756E+03  0.00000000000E+00 0. -1.
         21   -1    0    0  501  503 -0.00000000000E+00 -0.00000000000E+00 -0.20199566894E+03  0.20199566894E+03  0.00000000000E+00 0. -1.
          6    2    1    2  501    0  0.12491139316E+03  0.11905206167E+02  0.40707437864E+02  0.21929227368E+03  0.17517823987E+03 0.  0.
         24    2    3    3    0    0  0.11110701159E+03  0.26861272259E+02 -0.32445646830E+02  0.14321528200E+03  0.79947489189E+02 0.  0.
         -6    2    1    2    0  502 -0.12491139316E+03 -0.11905206167E+02 -0.11255999245E+02  0.21415050282E+03  0.17317375744E+03 0.  0.
        -24    2    5    5    0    0 -0.61616505287E+02  0.31652764050E+02 -0.60941428459E+02  0.12253024591E+03  0.80630715391E+02 0.  0.
          5    1    3    3  501    0  0.13804381569E+02 -0.14956066093E+02  0.73153084694E+02  0.76076991684E+02  0.47000000000E+01 0. -1.
        -11    1    4    4    0    0  0.12115974812E+03  0.34838003430E+02 -0.25495576610E+02  0.12862113152E+03  0.00000000000E+00 0.  1.
         12    1    4    4    0    0 -0.10052736532E+02 -0.79767311705E+01 -0.69500702201E+01  0.14594150473E+02  0.00000000000E+00 0. -1.
         -5    1    5    5    0  502 -0.63294887872E+02 -0.43557970216E+02  0.49685429214E+02  0.91620256910E+02  0.47000000000E+01 0.  1.
         13    1    6    6    0    0 -0.65160801454E+02  0.66232492867E+01 -0.69824826318E+02  0.95735593420E+02  0.00000000000E+00 0. -1.
        -14    1    6    6    0    0  0.35442961666E+01  0.25029514763E+02  0.88833978584E+01  0.26794652491E+02  0.00000000000E+00 0.  1.
</event>
<event>
12    1  0.9966151E-001  0.2157934E+03  0.7818608E-02  0.1138185E+00
         21   -1    0    0  503  502  0.00000000000E+00  0.00000000000E+00  0.37929141516E+03  0.37929141516E+03  0.00000000000E+00 0. -1.
         21   -1    0    0  501  503 -0.00000000000E+00 -0.00000000000E+00 -0.11952404146E+03  0.11952404146E+03  0.00000000000E+00 0. -1.
          6    2    1    2  501    0  0.23480312992E+02 -0.11789846985E+03  0.12741335823E+03  0.25060122451E+03  0.17920779999E+03 0.  0.
         24    2    3    3    0    0  0.20745948956E+02 -0.33234728272E+02  0.13826225471E+03  0.16507219763E+03  0.81224613196E+02 0.  0.
         -6    2    1    2    0  502 -0.23480312992E+02  0.11789846985E+03  0.13235401547E+03  0.24821423212E+03  0.17216662082E+03 0.  0.
        -24    2    5    5    0    0 -0.24969796688E+02  0.40862755310E+00  0.21792534873E+02  0.86807873518E+02  0.80231132395E+02 0.  0.
          5    1    3    3  501    0  0.27343640363E+01 -0.84663741578E+02 -0.10848896480E+02  0.85529026883E+02  0.47000000000E+01 0. -1.
        -13    1    4    4    0    0  0.49038891001E+02 -0.10304364775E+02  0.10218145843E+03  0.11380704377E+03  0.00000000000E+00 0.  1.
         14    1    4    4    0    0 -0.28292942045E+02 -0.22930363497E+02  0.36080796284E+02  0.51265153859E+02  0.00000000000E+00 0. -1.
         -5    1    5    5    0  502  0.14894836962E+01  0.11748984230E+03  0.11056148060E+03  0.16140635860E+03  0.47000000000E+01 0.  1.
         11    1    6    6    0    0  0.11971959555E+02 -0.32278703789E+02  0.12414447876E+02  0.36597282002E+02  0.00000000000E+00 0. -1.
        -12    1    6    6    0    0 -0.36941756244E+02  0.32687331342E+02  0.93780869968E+01  0.50210591516E+02  0.00000000000E+00 0.  1.
</event>
<event>
12    1  0.9966151E-001  0.1909687E+03  0.7818608E-02  0.1157782E+00
         21   -1    0    0  501  502  0.00000000000E+00  0.00000000000E+00  0.51364097978E+02  0.51364097978E+02  0.00000000000E+00 0.  1.
         21   -1    0    0  502  503 -0.00000000000E+00 -0.00000000000E+00 -0.71290659930E+03  0.71290659930E+03  0.00000000000E+00 0. -1.
         -6    2    1    2    0  503 -0.53458932576E+02 -0.62355771563E+02 -0.29481684907E+03  0.35080153819E+03  0.17146033064E+03 0.  0.
        -24    2    3    3    0    0  0.20339944847E+02 -0.50340826438E+02 -0.23815580061E+03  0.25686966060E+03  0.79472794162E+02 0.  0.
          6    2    1    2  501    0  0.53458932576E+02  0.62355771563E+02 -0.36672565225E+03  0.41346915908E+03  0.17240342739E+03 0.  0.
         24    2    5    5    0    0  0.64441770469E+02  0.55471808604E+02 -0.37824545899E+03  0.39550231123E+03  0.78246965487E+02 0.  0.
          5    1    5    5  501    0 -0.10982837893E+02  0.68839629595E+01  0.11519806745E+02  0.17966847850E+02  0.47000000000E+01 0. -1.
        -13    1    6    6    0    0  0.13646429188E+02  0.10459047576E+01 -0.44893476711E+01  0.14403929632E+02  0.00000000000E+00 0.  1.
         14    1    6    6    0    0  0.50795341281E+02  0.54425903846E+02 -0.37375611132E+03  0.38109838160E+03  0.00000000000E+00 0. -1.
         -5    1    3    3    0  503 -0.73798877423E+02 -0.12014945125E+02 -0.56661048463E+02  0.93931877593E+02  0.47000000000E+01 0.  1.
         11    1    4    4    0    0 -0.12776801254E+02 -0.41775152398E+02 -0.20364774235E+03  0.20828061112E+03  0.00000000000E+00 0. -1.
        -12    1    4    4    0    0  0.33116746101E+02 -0.85656740404E+01 -0.34508058261E+02  0.48589049476E+02  0.00000000000E+00 0.  1.
</event>
<event>
12    1  0.9966151E-001  0.2014433E+03  0.7818608E-02  0.1149629E+00
         21   -1    0    0  503  502  0.00000000000E+00  0.00000000000E+00  0.13204833930E+03  0.13204833930E+03  0.00000000000E+00 0. -1.
         21   -1    0    0  501  503 -0.00000000000E+00 -0.00000000000E+00 -0.30302318224E+03  0.30302318224E+03  0.00000000000E+00 0. -1.
          6    2    1    2  501    0 -0.44815509724E+02 -0.96610968764E+02 -0.62897501853E+02  0.21103431287E+03  0.17098911156E+03 0.  0.
         24    2    3    3    0    0 -0.53477336955E+02 -0.48636332249E+02 -0.10238080058E+03  0.14812474382E+03  0.78954373046E+02 0.  0.
         -6    2    1    2    0  502  0.44815509724E+02  0.96610968764E+02 -0.10807734109E+03  0.22403720867E+03  0.16483279411E+03 0.  0.
        -24    2    5    5    0    0  0.51265495520E+02  0.36532671911E+02 -0.12430479925E+03  0.16129627731E+03  0.81252808007E+02 0.  0.
          5    1    3    3  501    0  0.86618272307E+01 -0.47974636515E+02  0.39483298727E+02  0.62909569050E+02  0.47000000000E+01 0. -1.
        -11    1    4    4    0    0 -0.27886336417E+01 -0.15513464116E+02 -0.83094293838E+02  0.84576035110E+02  0.00000000000E+00 0.  1.
         12    1    4    4    0    0 -0.50688703313E+02 -0.33122868133E+02 -0.19286506742E+02  0.63548708714E+02  0.00000000000E+00 0. -1.
         -5    1    5    5    0  502 -0.64499857958E+01  0.60078296853E+02  0.16227458159E+02  0.62740931359E+02  0.47000000000E+01 0.  1.
         13    1    6    6    0    0  0.37415321657E+02  0.51528216268E+02 -0.12562261625E+03  0.14084070818E+03  0.00000000000E+00 0. -1.
        -14    1    6    6    0    0  0.13850173863E+02 -0.14995544357E+02  0.13178170057E+01  0.20455569126E+02  0.00000000000E+00 0.  1.
</event>
<event>
12    1  0.9966151E-001  0.3933614E+03  0.7818608E-02  0.1046250E+00
         21   -1    0    0  503  502  0.00000000000E+00  0.00000000000E+00  0.15516171407E+03  0.15516171407E+03  0.00000000000E+00 0.  1.
         21   -1    0    0  501  503 -0.00000000000E+00 -0.00000000000E+00 -0.10049328143E+04  0.10049328143E+04  0.00000000000E+00 0.  1.
          6    2    1    2  501    0 -0.36881692344E+02  0.35021791151E+03 -0.48889603875E+03  0.62749700563E+03  0.17527210443E+03 0.  0.
         24    2    3    3    0    0  0.21174900474E+02  0.22135363599E+03 -0.20772243290E+03  0.31276337841E+03  0.72294627512E+02 0.  0.
         -6    2    1    2    0  502  0.36881692344E+02 -0.35021791151E+03 -0.36087506149E+03  0.53259752275E+03  0.17151229244E+03 0.  0.
        -24    2    5    5    0    0 -0.28731758382E+02 -0.13452819373E+03 -0.19624755134E+03  0.25339958871E+03  0.82309788624E+02 0.  0.
          5    1    3    3  501    0 -0.58056592819E+02  0.12886427552E+03 -0.28117360585E+03  0.31473362722E+03  0.47000000000E+01 0. -1.
        -13    1    4    4    0    0 -0.35515599328E+01  0.29839393432E+02 -0.68206739978E+02  0.74532961546E+02  0.00000000000E+00 0.  1.
         14    1    4    4    0    0  0.24726460407E+02  0.19151424256E+03 -0.13951569293E+03  0.23823041687E+03  0.00000000000E+00 0. -1.
         -5    1    5    5    0  502  0.65613450726E+02 -0.21568971778E+03 -0.16462751015E+03  0.27919793404E+03  0.47000000000E+01 0.  1.
         13    1    6    6    0    0  0.11507816846E+02 -0.45857057450E+02 -0.18582243153E+02  0.50799599675E+02  0.00000000000E+00 0. -1.
        -14    1    6    6    0    0 -0.40239575227E+02 -0.88671136280E+02 -0.17766530819E+03  0.20259998903E+03  0.00000000000E+00 0.  1.
</event>
<event>
12    1  0.9966151E-001  0.2337300E+03  0.7818608E-02  0.1124114E+00
         21   -1    0    0  503  502  0.00000000000E+00  0.00000000000E+00  0.50855167471E+03  0.50855167471E+03  0.00000000000E+00 0. -1.
         21   -1    0    0  501  503 -0.00000000000E+00 -0.00000000000E+00 -0.18283347845E+03  0.18283347845E+03  0.00000000000E+00 0. -1.
          6    2    1    2  501    0  0.12961048721E+03  0.90019869235E+02  0.38524421859E+03  0.45060272525E+03  0.17241592964E+03 0.  0.
         24    2    3    3    0    0  0.13606439362E+03  0.79801215884E+02  0.39608042349E+03  0.43370340216E+03  0.79606443881E+02 0.  0.
         -6    2    1    2    0  502 -0.12961048721E+03 -0.90019869235E+02 -0.59526022330E+02  0.24078242792E+03  0.17184404269E+03 0.  0.
        -24    2    5    5    0    0 -0.14328855698E+03 -0.57470820422E+02 -0.85283525345E+01  0.17857806717E+03  0.89347006199E+02 0.  0.
          5    1    3    3  501    0 -0.64539064092E+01  0.10218653350E+02 -0.10836204899E+02  0.16899323088E+02  0.47000000000E+01 0. -1.
        -11    1    4    4    0    0  0.10482293637E+03  0.26830125632E+02  0.30655693794E+03  0.32509207900E+03  0.00000000000E+00 0.  1.
         12    1    4    4    0    0  0.31241457249E+02  0.52971090252E+02  0.89523485549E+02  0.10861132316E+03  0.00000000000E+00 0. -1.
         -5    1    5    5    0  502  0.13678069768E+02 -0.32549048813E+02 -0.50997669796E+02  0.62204360746E+02  0.47000000000E+01 0.  1.
         11    1    6    6    0    0  0.91810458419E+01 -0.18393741305E+02  0.29227713159E+01  0.20764486850E+02  0.00000000000E+00 0. -1.
        -12    1    6    6    0    0 -0.15246960282E+03 -0.39077079117E+02 -0.11451123850E+02  0.15781358032E+03  0.00000000000E+00 0.  1.
</event>
<event>
12    1  0.9966151E-001  0.1994985E+03  0.7818608E-02  0.1150603E+00
         21   -1    0    0  503  502  0.00000000000E+00  0.00000000000E+00  0.40048932648E+02  0.40048932648E+02  0.00000000000E+00 0. -1.
         21   -1    0    0  501  503 -0.00000000000E+00 -0.00000000000E+00 -0.98650595384E+03  0.98650595384E+03  0.00000000000E+00 0. -1.
          6    2    1    2  501    0 -0.12644343852E+01 -0.97051665556E+02 -0.44729778950E+03  0.48977031568E+03  0.17429579757E+03 0.  0.
         24    2    3    3    0    0 -0.67452173456E+02 -0.69368768220E+02 -0.32180171092E+03  0.34513797024E+03  0.78753131006E+02 0.  0.
         -6    2    1    2    0  502  0.12644343852E+01  0.97051665556E+02 -0.49915923169E+03  0.53678457081E+03  0.17192182029E+03 0.  0.
        -24    2    5    5    0    0 -0.50285008600E+02  0.10805467020E+03 -0.33991247802E+03  0.36897506649E+03  0.79985705826E+02 0.  0.
          5    1    3    3  501    0  0.66187739071E+02 -0.27682897336E+02 -0.12549607858E+03  0.14463234544E+03  0.47000000000E+01 0. -1.
        -11    1    4    4    0    0 -0.70103068964E+02 -0.84259835688E+02 -0.28480506492E+03  0.30516894532E+03  0.00000000000E+00 0.  1.
         12    1    4    4    0    0  0.26508955081E+01  0.14891067468E+02 -0.36996646006E+02  0.39969024920E+02  0.00000000000E+00 0. -1.
         -5    1    5    5    0  502  0.51549442985E+02 -0.11003004646E+02 -0.15924675367E+03  0.16780950432E+03  0.47000000000E+01 0.  1.
         13    1    6    6    0    0 -0.12627304323E+02  0.46533664490E+02 -0.47079992406E+02  0.67389586958E+02  0.00000000000E+00 0. -1.
        -14    1    6    6    0    0 -0.37657704277E+02  0.61521005712E+02 -0.29283248561E+03  0.30158547953E+03  0.00000000000E+00 0.  1.
</event>
<event>
12    1  0.9966151E-001  0.1906238E+03  0.7818608E-02  0.1157990E+00
         21   -1    0    0  501  502  0.00000000000E+00  0.00000000000E+00  0.21714919766E+02  0.21714919766E+02  0.00000000000E+00 0.  1.
         21   -1    0    0  502  503 -0.00000000000E+00 -0.00000000000E+00 -0.17362386131E+04  0.17362386131E+04  0.00000000000E+00 0.  1.
         -6    2    1    2    0  503 -0.66108260062E+02 -0.49017543775E+02 -0.10299976226E+04  0.10474886837E+04  0.17194306692E+03 0.  0.
        -24    2    3    3    0    0 -0.50720364924E+02 -0.70617761241E+02 -0.10003000161E+04  0.10073963585E+04  0.81779442416E+02 0.  0.
          6    2    1    2  501    0  0.66108260062E+02  0.49017543775E+02 -0.68452607073E+03  0.71046484917E+03  0.17149734326E+03 0.  0.
         24    2    5    5    0    0 -0.18649876430E+02 -0.58439717623E+01 -0.41164581411E+03  0.41946750890E+03  0.78222406332E+02 0.  0.
          5    1    5    5  501    0  0.84758136492E+02  0.54861515537E+02 -0.27288025662E+03  0.29099734027E+03  0.47000000000E+01 0. -1.
        -11    1    6    6    0    0 -0.41583637880E+02  0.57035742168E+01 -0.35247992855E+03  0.35497018146E+03  0.00000000000E+00 0.  1.
         12    1    6    6    0    0  0.22933761449E+02 -0.11547545979E+02 -0.59165885560E+02  0.64497327436E+02  0.00000000000E+00 0. -1.
         -5    1    3    3    0  503 -0.15387895138E+02  0.21600217466E+02 -0.29697606510E+02  0.40092325248E+02  0.47000000000E+01 0.  1.
         11    1    4    4    0    0 -0.33933066803E+02 -0.50205901967E+02 -0.27422799865E+03  0.28084351668E+03  0.00000000000E+00 0. -1.
        -12    1    4    4    0    0 -0.16787298121E+02 -0.20411859274E+02 -0.72607201744E+03  0.72655284177E+03  0.00000000000E+00 0.  1.
</event>
<event>
12    1  0.9966151E-001  0.2450719E+03  0.7818608E-02  0.1119137E+00
         21   -1    0    0  503  502  0.00000000000E+00  0.00000000000E+00  0.20356925974E+04  0.20356925974E+04  0.00000000000E+00 0. -1.
         21   -1    0    0  501  503 -0.00000000000E+00 -0.00000000000E+00 -0.28963479902E+02  0.28963479902E+02  0.00000000000E+00 0. -1.
          6    2    1    2  501    0  0.27444922101E+02  0.14825597368E+03  0.11937241170E+04  0.12155168998E+04  0.17254277330E+03 0.  0.
         24    2    3    3    0    0 -0.19757337179E+02  0.26467797176E+02  0.68235817435E+03  0.68771236158E+03  0.79023525072E+02 0.  0.
         -6    2    1    2    0  502 -0.27444922101E+02 -0.14825597368E+03  0.81300500052E+03  0.84913917757E+03  0.19320236675E+03 0.  0.
        -24    2    5    5    0    0  0.37417427418E+02 -0.14124053817E+03  0.44854910757E+03  0.47886019001E+03  0.82230323915E+02 0.  0.
          5    1    3    3  501    0  0.47202259280E+02  0.12178817651E+03  0.51136594264E+03  0.52780453817E+03  0.47000000000E+01 0. -1.
        -13    1    4    4    0    0 -0.34784696464E+02  0.46160437543E+02  0.55230019697E+03  0.55531636810E+03  0.00000000000E+00 0.  1.
         14    1    4    4    0    0  0.15027359286E+02 -0.19692640367E+02  0.13005797738E+03  0.13239599349E+03  0.00000000000E+00 0. -1.
         -5    1    5    5    0  502 -0.64862349519E+02 -0.70154355109E+01  0.36445589295E+03  0.37027898756E+03  0.47000000000E+01 0.  1.
         11    1    6    6    0    0  0.41086360030E+02 -0.51787450938E+02  0.10701281136E+03  0.12578462088E+03  0.00000000000E+00 0. -1.
        -12    1    6    6    0    0 -0.36689326124E+01 -0.89453087235E+02  0.34153629621E+03  0.35307556913E+03  0.00000000000E+00 0.  1.
</event>
<event>
12    1  0.9966151E-001  0.2641449E+03  0.7818608E-02  0.1106384E+00
         21   -1    0    0  501  502  0.00000000000E+00  0.00000000000E+00  0.59657905900E+03  0.59657905900E+03  0.00000000000E+00 0. -1.
         21   -1    0    0  502  503 -0.00000000000E+00 -0.00000000000E+00 -0.14552893638E+03  0.14552893638E+03  0.00000000000E+00 0. -1.
         -6    2    1    2    0  503  0.11965702896E+03  0.16200196773E+03  0.40740667805E+03  0.48554372493E+03  0.17090952395E+03 0.  0.
        -24    2    3    3    0    0  0.10686996726E+03  0.17206441739E+03  0.41367917785E+03  0.46748282535E+03  0.79889775114E+02 0.  0.
          6    2    1    2  501    0 -0.11965702896E+03 -0.16200196773E+03  0.43643444579E+02  0.25656427045E+03  0.15283334875E+03 0.  0.
         24    2    5    5    0    0 -0.52136303953E+02 -0.10558975842E+03  0.76573492459E+02  0.16250118674E+03  0.81705230376E+02 0.  0.
          5    1    5    5  501    0 -0.67520725005E+02 -0.56412209308E+02 -0.32930047880E+02  0.94063083713E+02  0.47000000000E+01 0. -1.
        -11    1    6    6    0    0 -0.58122929022E+02 -0.27870848970E+02  0.25556736980E+02  0.69341228035E+02  0.00000000000E+00 0.  1.
         12    1    6    6    0    0  0.59866250690E+01 -0.77718909449E+02  0.51016755479E+02  0.93159958702E+02  0.00000000000E+00 0. -1.
         -5    1    3    3    0  503  0.12787061695E+02 -0.10062449665E+02 -0.62724998067E+01  0.18060899587E+02  0.47000000000E+01 0.  1.
         11    1    4    4    0    0  0.32332667687E+01  0.64898763552E+02  0.16775687683E+03  0.17990184337E+03  0.00000000000E+00 0. -1.
        -12    1    4    4    0    0  0.10363670049E+03  0.10716565384E+03  0.24592230102E+03  0.28758098197E+03  0.00000000000E+00 0.  1.
</event>
<event>
12    1  0.9966151E-001  0.1779372E+03  0.7818608E-02  0.1170670E+00
         21   -1    0    0  503  502  0.00000000000E+00  0.00000000000E+00  0.18379962751E+03  0.18379962751E+03  0.00000000000E+00 0. -1.
         21   -1    0    0  501  503 -0.00000000000E+00 -0.00000000000E+00 -0.17699508234E+03  0.17699508234E+03  0.00000000000E+00 0. -1.
          6    2    1    2  501    0  0.33706670209E+02 -0.31050478363E+02  0.41915111390E+02  0.18280729470E+03  0.17193416940E+03 0.  0.
         24    2    3    3    0    0  0.57263066849E+02 -0.64566642622E+02 -0.11173679362E+02  0.11558567026E+03  0.76074213065E+02 0.  0.
         -6    2    1    2    0  502 -0.33706670209E+02  0.31050478363E+02 -0.35110566222E+02  0.17798741515E+03  0.16836417751E+03 0.  0.
        -24    2    5    5    0    0 -0.77170425456E+02 -0.85830593386E+01 -0.38840716888E+02  0.11886111513E+03  0.81181401369E+02 0.  0.
          5    1    3    3  501    0 -0.23556396639E+02  0.33516164259E+02  0.53088790752E+02  0.67221624443E+02  0.47000000000E+01 0. -1.
        -11    1    4    4    0    0  0.26675489359E+02 -0.25535175970E+02  0.32737422471E+02  0.49349425269E+02  0.00000000000E+00 0.  1.
         12    1    4    4    0    0  0.30587577489E+02 -0.39031466652E+02 -0.43911101832E+02  0.66236244986E+02  0.00000000000E+00 0. -1.
         -5    1    5    5    0  502  0.43463755247E+02  0.39633537702E+02  0.37301506661E+01  0.59126300027E+02  0.47000000000E+01 0.  1.
         13    1    6    6    0    0 -0.29978889533E+02 -0.33772896103E+02 -0.46502605898E+02  0.64821560334E+02  0.00000000000E+00 0. -1.
        -14    1    6    6    0    0 -0.47191535924E+02  0.25189836764E+02  0.76618890107E+01  0.54039554793E+02  0.00000000000E+00 0.  1.
</event>
<event>
12    1  0.9966151E-001  0.1904400E+03  0.7818608E-02  0.1158373E+00
         21   -1    0    0  501  502  0.00000000000E+00  0.00000000000E+00  0.21810074523E+03  0.21810074523E+03  0.00000000000E+00 0.  1.
         21   -1    0    0  502  503 -0.00000000000E+00 -0.00000000000E+00 -0.20739353777E+03  0.20739353777E+03  0.00000000000E+00 0.  1.
         -6    2    1    2    0  503  0.34323094514E+02  0.71362738647E+02 -0.90737979165E+02  0.20972008740E+03  0.17169280391E+03 0.  0.
        -24    2    3    3    0    0 -0.25677461298E+02 -0.53402640364E+01 -0.14752504405E+02  0.86110622988E+02  0.80681798236E+02 0.  0.
          6    2    1    2  501    0 -0.34323094514E+02 -0.71362738647E+02  0.10144518663E+03  0.21577419559E+03  0.17319544540E+03 0.  0.
         24    2    5    5    0    0 -0.28520383086E+02  0.21840960128E+02  0.84898767860E+02  0.12081907514E+03  0.78096148072E+02 0.  0.
          5    1    5    5  501    0 -0.58027114275E+01 -0.93203698775E+02  0.16546418768E+02  0.94955120448E+02  0.47000000000E+01 0. -1.
        -13    1    6    6    0    0 -0.60891799215E+01 -0.12342316308E+02 -0.10314288116E+02  0.17198704117E+02  0.00000000000E+00 0.  1.
         14    1    6    6    0    0 -0.22431203165E+02  0.34183276436E+02  0.95213055976E+02  0.10362037103E+03  0.00000000000E+00 0. -1.
         -5    1    3    3    0  503  0.60000555812E+02  0.76703002684E+02 -0.75985474760E+02  0.12360946441E+03  0.47000000000E+01 0.  1.
         11    1    4    4    0    0 -0.31559074850E+02 -0.10946500508E+02 -0.44290864751E+02  0.55475055468E+02  0.00000000000E+00 0. -1.
        -12    1    4    4    0    0  0.58816135518E+01  0.56062364715E+01  0.29538360347E+02  0.30635567521E+02  0.00000000000E+00 0.  1.
</event>
<event>
12    1  0.9966151E-001  0.3813063E+03  0.7818608E-02  0.1050455E+00
         21   -1    0    0  503  502  0.00000000000E+00  0.00000000000E+00  0.95778503568E+03  0.95778503568E+03  0.00000000000E+00 0. -1.
         21   -1    0    0  501  503 -0.00000000000E+00 -0.00000000000E+00 -0.15510556241E+03  0.15510556241E+03  0.00000000000E+00 0.  1.
          6    2    1    2  501    0 -0.33973867422E+03 -0.21509050819E+02  0.31993849610E+03  0.49772122831E+03  0.17169966161E+03 0.  0.
         24    2    3    3    0    0 -0.23130349399E+03  0.39948407596E+02  0.26136667751E+03  0.35992443793E+03  0.78331853709E+02 0.  0.
         -6    2    1    2    0  502  0.33973867422E+03  0.21509050819E+02  0.48274097717E+03  0.61516936978E+03  0.17178328341E+03 0.  0.
        -24    2    5    5    0    0  0.21957418434E+03  0.77970824621E+02  0.33624166473E+03  0.41740290379E+03  0.82912333639E+02 0.  0.
          5    1    3    3  501    0 -0.10843518022E+03 -0.61457458415E+02  0.58571818590E+02  0.13779679038E+03  0.47000000000E+01 0. -1.
        -11    1    4    4    0    0 -0.17948765260E+03  0.19708975539E+02  0.14734058051E+03  0.23305258595E+03  0.00000000000E+00 0.  1.
         12    1    4    4    0    0 -0.51815841398E+02  0.20239432058E+02  0.11402609700E+03  0.12687185198E+03  0.00000000000E+00 0. -1.
         -5    1    5    5    0  502  0.12016448988E+03 -0.56461773802E+02  0.14649931244E+03  0.19776646600E+03  0.47000000000E+01 0.  1.
         13    1    6    6    0    0  0.88670756858E+02  0.70924712766E+02  0.18688382345E+03  0.21867414449E+03  0.00000000000E+00 0. -1.
        -14    1    6    6    0    0  0.13090342748E+03  0.70461118549E+01  0.14935784128E+03  0.19872875930E+03  0.00000000000E+00 0.  1.
</event>
<event>
12    1  0.9966151E-001  0.2150477E+03  0.7818608E-02  0.1138105E+00
         21   -1    0    0  501  502  0.00000000000E+00  0.00000000000E+00  0.29020863372E+03  0.29020863372E+03  0.00000000000E+00 0. -1.
         21   -1    0    0  502  503 -0.00000000000E+00 -0.00000000000E+00 -0.18594240812E+03  0.18594240812E+03  0.00000000000E+00 0. -1.
         -6    2    1    2    0  503 -0.70267498217E+02 -0.10742020104E+03  0.14493056938E+03  0.25729241990E+03  0.16946356099E+03 0.  0.
        -24    2    3    3    0    0 -0.39987011847E+02  0.11293283628E+02  0.77863817749E+02  0.11754322144E+03  0.77634627721E+02 0.  0.
          6    2    1    2  501    0  0.70267498217E+02  0.10742020104E+03 -0.40664343785E+02  0.21885862193E+03  0.17253662406E+03 0.  0.
         24    2    5    5    0    0 -0.12846158034E+02  0.97252941607E+02 -0.10593680450E+01  0.12611220894E+03  0.79246505005E+02 0.  0.
          5    1    5    5  501    0  0.83113656251E+02  0.10167259428E+02 -0.39604975740E+02  0.92746412992E+02  0.47000000000E+01 0. -1.
        -13    1    6    6    0    0 -0.24153092640E+02 -0.37412809676E+01 -0.14837483228E+01  0.24486130287E+02  0.00000000000E+00 0.  1.
         14    1    6    6    0    0  0.11306934607E+02  0.10099422257E+03  0.42438027782E+00  0.10162607865E+03  0.00000000000E+00 0. -1.
         -5    1    3    3    0  503 -0.30280486370E+02 -0.11871348466E+03  0.67066751631E+02  0.13974919846E+03  0.47000000000E+01 0.  1.
         11    1    4    4    0    0  0.16006843834E+02 -0.83991895226E+00  0.52489537314E+02  0.54882383702E+02  0.00000000000E+00 0. -1.
        -12    1    4    4    0    0 -0.55993855681E+02  0.12133202580E+02  0.25374280435E+02  0.62660837742E+02  0.00000000000E+00 0.  1.
</event>
<event>
12    1  0.9966151E-001  0.2933700E+03  0.7818608E-02  0.1089051E+00
         21   -1    0    0  501  502  0.00000000000E+00  0.00000000000E+00  0.48168650864E+03  0.48168650864E+03  0.00000000000E+00 0. -1.
         21   -1    0    0  502  503 -0.00000000000E+00 -0.00000000000E+00 -0.19223270585E+03  0.19223270585E+03  0.00000000000E+00 0. -1.
         -6    2    1    2    0  503  0.22554995413E+03  0.80156621318E+02  0.47761491630E+02  0.29381248238E+03  0.16354433335E+03 0.  0.
        -24    2    3    3    0    0  0.10811589562E+03 -0.18966554719E+02  0.71200095892E+01  0.13478423901E+03  0.77893000108E+02 0.  0.
          6    2    1    2  501    0 -0.22554995413E+03 -0.80156621318E+02  0.24169231116E+03  0.38010673211E+03  0.16961158207E+03 0.  0.
         24    2    5    5    0    0 -0.22676159987E+03 -0.85753364082E+02  0.16609955361E+03  0.30415183359E+03  0.78388861075E+02 0.  0.
          5    1    5    5  501    0  0.12116457364E+01  0.55967427640E+01  0.75592757557E+02  0.75954898526E+02  0.47000000000E+01 0. -1.
        -13    1    6    6    0    0 -0.41476148050E+02  0.14336143932E+02  0.34520012205E+02  0.55833924477E+02  0.00000000000E+00 0.  1.
         14    1    6    6    0    0 -0.18528545182E+03 -0.10008950801E+03  0.13157954140E+03  0.24831790911E+03  0.00000000000E+00 0. -1.
         -5    1    3    3    0  503  0.11743405851E+03  0.99123176037E+02  0.40641482041E+02  0.15902824337E+03  0.47000000000E+01 0.  1.
         11    1    4    4    0    0  0.88298400202E+02 -0.46556138378E+02  0.11715637258E+02  0.10050541107E+03  0.00000000000E+00 0. -1.
        -12    1    4    4    0    0  0.19817495418E+02  0.27589583659E+02 -0.45956276689E+01  0.34278827938E+02  0.00000000000E+00 0.  1.
</event>
<event>
12    1  0.9966151E-001  0.2180027E+03  0.7818608E-02  0.1135382E+00
         21   -1    0    0  503  502  0.00000000000E+00  0.00000000000E+00  0.45494478613E+02  0.45494478613E+02  0.00000000000E+00 0.  1.
         21   -1    0    0  501  503 -0.00000000000E+00 -0.00000000000E+00 -0.16036281026E+04  0.16036281026E+04  0.00000000000E+00 0.  1.
          6    2    1    2  501    0 -0.38053017520E+02  0.12859078821E+03 -0.29223497805E+03  0.36459079684E+03  0.17187653647E+03 0.  0.
         24    2    3    3    0    0  0.35274479959E+02  0.62951716514E+02 -0.21188505064E+03  0.23745460822E+03  0.79260385665E+02 0.  0.
         -6    2    1    2    0  502  0.38053017520E+02 -0.12859078821E+03 -0.12658986460E+04  0.12845317844E+04  0.17186884628E+03 0.  0.
        -24    2    5    5    0    0  0.60745091107E+02 -0.79082385558E+02 -0.11428971699E+04  0.11499306505E+04  0.78629321254E+02 0.  0.
          5    1    3    3  501    0 -0.73327497480E+02  0.65639071698E+02 -0.80349927410E+02  0.12713618861E+03  0.47000000000E+01 0. -1.
        -11    1    4    4    0    0  0.32216327742E+01  0.40242747753E+02 -0.18618650560E+03  0.19051318205E+03  0.00000000000E+00 0.  1.
         12    1    4    4    0    0  0.32052847185E+02  0.22708968761E+02 -0.25698545031E+02  0.46941426178E+02  0.00000000000E+00 0. -1.
         -5    1    5    5    0  502 -0.22692073587E+02 -0.49508402654E+02 -0.12300147607E+03  0.13460113392E+03  0.47000000000E+01 0.  1.
         11    1    6    6    0    0  0.56477306739E+02 -0.70742538304E+02 -0.58563127939E+03  0.59258601764E+03  0.00000000000E+00 0. -1.
        -12    1    6    6    0    0  0.42677843684E+01 -0.83398472540E+01 -0.55726589052E+03  0.55734463286E+03  0.00000000000E+00 0.  1.
</event>
<event>
12    1  0.9966151E-001  0.1857780E+03  0.7818608E-02  0.1162532E+00
         21   -1    0    0  501  502  0.00000000000E+00  0.00000000000E+00  0.39349411731E+02  0.39349411731E+02  0.00000000000E+00 0.  1.
         21   -1    0    0  502  503 -0.00000000000E+00 -0.00000000000E+00 -0.87292098605E+03  0.87292098605E+03  0.00000000000E+00 0.  1.
         -6    2    1    2    0  503  0.38036947991E+02 -0.61475925521E+02 -0.41415611626E+03  0.45355177427E+03  0.17016998700E+03 0.  0.
        -24    2    3    3    0    0  0.61297467506E+02 -0.92657539094E+02 -0.37047784901E+03  0.39487276761E+03  0.79547890693E+02 0.  0.
          6    2    1    2  501    0 -0.38036947991E+02  0.61475925521E+02 -0.41941545806E+03  0.45871862351E+03  0.17113547343E+03 0.  0.
         24    2    5    5    0    0 -0.54670690502E+02  0.27260876697E+02 -0.40696911272E+03  0.41841536721E+03  0.75601064903E+02 0.  0.
          5    1    5    5  501    0  0.16633742511E+02  0.34215048825E+02 -0.12446345339E+02  0.40303256299E+02  0.47000000000E+01 0. -1.
        -13    1    6    6    0    0 -0.73592830615E+01 -0.20763723963E+02 -0.18846111134E+03  0.18974425358E+03  0.00000000000E+00 0.  1.
         14    1    6    6    0    0 -0.47311407440E+02  0.48024600659E+02 -0.21850800138E+03  0.22867111363E+03  0.00000000000E+00 0. -1.
         -5    1    3    3    0  503 -0.23260519515E+02  0.31181613573E+02 -0.43678267246E+02  0.58679006661E+02  0.47000000000E+01 0.  1.
         13    1    4    4    0    0  0.17869691938E+02 -0.50820537679E+02 -0.28630300715E+03  0.29132707537E+03  0.00000000000E+00 0. -1.
        -14    1    4    4    0    0  0.43427775568E+02 -0.41837001416E+02 -0.84174841867E+02  0.10354569224E+03  0.00000000000E+00 0.  1.
</event>
<event>
12    1  0.9966151E-001  0.2341193E+03  0.7818608E-02  0.1124279E+00
         21   -1    0    0  501  502  0.00000000000E+00  0.00000000000E+00  0.15551940820E+03  0.15551940820E+03  0.00000000000E+00 0.  1.
         21   -1    0    0  502  503 -0.00000000000E+00 -0.00000000000E+00 -0.35353825119E+03  0.35353825119E+03  0.00000000000E+00 0. -1.
         -6    2    1    2    0  503 -0.14739650387E+03  0.40832999840E+02 -0.13128537936E+03  0.26841699319E+03  0.17725340102E+03 0.  0.
        -24    2    3    3    0    0 -0.13774540905E+03  0.90344851554E+02 -0.10024418632E+03  0.20900139965E+03  0.80602098269E+02 0.  0.
          6    2    1    2  501    0  0.14739650387E+03 -0.40832999840E+02 -0.66733463632E+02  0.24064066620E+03  0.17338255919E+03 0.  0.
         24    2    5    5    0    0  0.67280495999E+02 -0.88488244641E+02 -0.31620517348E+02  0.14091802047E+03  0.80629999350E+02 0.  0.
          5    1    5    5  501    0  0.80116007869E+02  0.47655244801E+02 -0.35112946284E+02  0.99722645726E+02  0.47000000000E+01 0. -1.
        -13    1    6    6    0    0  0.23095132640E+01 -0.26425676592E+02 -0.42822304985E+02  0.50372611994E+02  0.00000000000E+00 0.  1.
         14    1    6    6    0    0  0.64970982735E+02 -0.62062568049E+02  0.11201787637E+02  0.90545408479E+02  0.00000000000E+00 0. -1.
         -5    1    3    3    0  503 -0.96510948130E+01 -0.49511851714E+02 -0.31041193032E+02  0.59415593543E+02  0.47000000000E+01 0.  1.
         13    1    4    4    0    0 -0.13260194713E+02  0.39135621885E+02 -0.25680584719E+00  0.41321853944E+02  0.00000000000E+00 0. -1.
        -14    1    4    4    0    0 -0.12448521434E+03  0.51209229669E+02 -0.99987380477E+02  0.16767954570E+03  0.00000000000E+00 0.  1.
</event>
<event>
12    1  0.9966151E-001  0.2657378E+03  0.7818608E-02  0.1104132E+00
         21   -1    0    0  501  502  0.00000000000E+00  0.00000000000E+00  0.25712923344E+03  0.25712923344E+03  0.00000000000E+00 0. -1.
         21   -1    0    0  502  503 -0.00000000000E+00 -0.00000000000E+00 -0.27215361819E+03  0.27215361819E+03  0.00000000000E+00 0. -1.
         -6    2    1    2    0  503 -0.17776436987E+03  0.93337479016E+02  0.44639298061E+00  0.26309505438E+03  0.17001985822E+03 0.  0.
        -24    2    3    3    0    0 -0.94733097686E+02  0.20975720215E+02  0.57093943730E+02  0.13915373236E+03  0.81790599610E+02 0.  0.
          6    2    1    2  501    0  0.17776436987E+03 -0.93337479016E+02 -0.15470777725E+02  0.26618779725E+03  0.17408199865E+03 0.  0.
         24    2    5    5    0    0  0.12139631621E+03  0.22610407303E+01  0.36581961314E+00  0.15398564813E+03  0.94706220026E+02 0.  0.
          5    1    5    5  501    0  0.56368053660E+02 -0.95598519747E+02 -0.15836597338E+02  0.11220214912E+03  0.47000000000E+01 0. -1.
        -11    1    6    6    0    0  0.10373596008E+03 -0.28064913744E+02  0.25952855721E+02  0.11055469016E+03  0.00000000000E+00 0.  1.
         12    1    6    6    0    0  0.17660356137E+02  0.30325954474E+02 -0.25587036108E+02  0.43430957973E+02  0.00000000000E+00 0. -1.
         -5    1    3    3    0  503 -0.83031272186E+02  0.72361758801E+02 -0.56647550749E+02  0.12394132202E+03  0.47000000000E+01 0.  1.
         13    1    4    4    0    0  0.56254646255E+01 -0.69721268178E+01 -0.11383476020E+02  0.14485852786E+02  0.00000000000E+00 0. -1.
        -14    1    4    4    0    0 -0.10035856231E+03  0.27947847033E+02  0.68477419750E+02  0.12466787958E+03  0.00000000000E+00 0.  1.
</event>
<event>
12    1  0.9966151E-001  0.2795095E+03  0.7818608E-02  0.1096038E+00
         21   -1    0    0  501  502  0.00000000000E+00  0.00000000000E+00  0.78481674769E+02  0.78481674769E+02  0.00000000000E+00 0.  1.
         21   -1    0    0  502  503 -0.00000000000E+00 -0.00000000000E+00 -0.10447558263E+04  0.10447558263E+04  0.00000000000E+00 0.  1.
         -6    2    1    2    0  503  0.67996619791E+02 -0.20935669601E+03 -0.35906971816E+03  0.45503474885E+03  0.17225502517E+03 0.  0.
        -24    2    3    3    0    0  0.10318125191E+03 -0.13257518255E+03 -0.29725548326E+03  0.35026620021E+03  0.78121948984E+02 0.  0.
          6    2    1    2  501    0 -0.67996619791E+02  0.20935669601E+03 -0.60720443337E+03  0.66820275222E+03  0.17130069382E+03 0.  0.
         24    2    5    5    0    0 -0.16956066749E+02  0.24879616752E+02 -0.21657041356E+03  0.23316946813E+03  0.80986130374E+02 0.  0.
          5    1    5    5  501    0 -0.51040553042E+02  0.18447707925E+03 -0.39063401981E+03  0.43503328408E+03  0.47000000000E+01 0. -1.
        -13    1    6    6    0    0 -0.37123779589E+02 -0.14656252945E+02 -0.12837368167E+03  0.13443505088E+03  0.00000000000E+00 0.  1.
         14    1    6    6    0    0  0.20167712840E+02  0.39535869697E+02 -0.88196731889E+02  0.98734417251E+02  0.00000000000E+00 0. -1.
         -5    1    3    3    0  503 -0.35184632121E+02 -0.76781513458E+02 -0.61814234905E+02  0.10476854864E+03  0.47000000000E+01 0.  1.
         13    1    4    4    0    0  0.46948264452E+02 -0.50790570765E+02 -0.54671566703E+02  0.88163494823E+02  0.00000000000E+00 0. -1.
        -14    1    4    4    0    0  0.56232987460E+02 -0.81784611782E+02 -0.24258391655E+03  0.26210270539E+03  0.00000000000E+00 0.  1.
</event>
<event>
12    1  0.9966151E-001  0.2029405E+03  0.7818608E-02  0.1148406E+00
         21   -1    0    0  501  502  0.00000000000E+00  0.00000000000E+00  0.17811138315E+03  0.17811138315E+03  0.00000000000E+00 0.  1.
         21   -1    0    0  502  503 -0.00000000000E+00 -0.00000000000E+00 -0.23319498235E+03  0.23319498235E+03  0.00000000000E+00 0.  1.
         -6    2    1    2    0  503 -0.10495603600E+02  0.96818898867E+02 -0.66046153283E+02  0.21341728155E+03  0.17804714215E+03 0.  0.
        -24    2    3    3    0    0 -0.23051219183E+02 -0.12655405996E+02  0.54567224434E+01  0.81975210111E+02  0.77450895709E+02 0.  0.
          6    2    1    2  501    0  0.10495603600E+02 -0.96818898867E+02  0.10962554079E+02  0.19788908395E+03  0.17191816391E+03 0.  0.
         24    2    5    5    0    0  0.27462100790E+02 -0.36287278630E+02  0.68731535595E+02  0.11238303562E+03  0.76387100615E+02 0.  0.
          5    1    5    5  501    0 -0.16966497190E+02 -0.60531620236E+02 -0.57768981516E+02  0.85506048328E+02  0.47000000000E+01 0. -1.
        -11    1    6    6    0    0  0.38839160217E+02  0.57946165985E+01  0.12453656915E+02  0.41196498862E+02  0.00000000000E+00 0.  1.
         12    1    6    6    0    0 -0.11377059428E+02 -0.42081895229E+02  0.56277878680E+02  0.71186536761E+02  0.00000000000E+00 0. -1.
         -5    1    3    3    0  503  0.12555615583E+02  0.10947430486E+03 -0.71502875726E+02  0.13144207144E+03  0.47000000000E+01 0.  1.
         11    1    4    4    0    0  0.10440389220E+02  0.56075594756E+01 -0.28523972990E+02  0.30887918115E+02  0.00000000000E+00 0. -1.
        -12    1    4    4    0    0 -0.33491608403E+02 -0.18262965472E+02  0.33980695434E+02  0.51087291995E+02  0.00000000000E+00 0.  1.
</event>
<event>
12    1  0.9966151E-001  0.2270489E+03  0.7818608E-02  0.1128882E+00
         21   -1    0    0  501  502  0.00000000000E+00  0.00000000000E+00  0.59880510036E+02  0.59880510036E+02  0.00000000000E+00 0. -1.
         21   -1    0    0  502  503 -0.00000000000E+00 -0.00000000000E+00 -0.10644186734E+04  0.10644186734E+04  0.00000000000E+00 0.  1.
         -6    2    1    2    0  503  0.14642274963E+03 -0.16879350677E+02 -0.25385426834E+03  0.34003039647E+03  0.17162210487E+03 0.  0.
        -24    2    3    3    0    0  0.37321513344E+02  0.14224932171E+01 -0.36734569008E+02  0.96307005949E+02  0.80812696957E+02 0.  0.
          6    2    1    2  501    0 -0.14642274963E+03  0.16879350677E+02 -0.75068389504E+03  0.78426878698E+03  0.17270404127E+03 0.  0.
         24    2    5    5    0    0 -0.74005500774E+02  0.22519889041E+02 -0.64517812562E+03  0.65609066488E+03  0.90643186253E+02 0.  0.
          5    1    5    5  501    0 -0.72417248858E+02 -0.56405383641E+01 -0.10550576942E+03  0.12817812211E+03  0.47000000000E+01 0. -1.
        -13    1    6    6    0    0  0.16262001613E+02 -0.76169455959E+01 -0.45622962126E+02  0.49029840198E+02  0.00000000000E+00 0.  1.
         14    1    6    6    0    0 -0.90267502387E+02  0.30136834637E+02 -0.59955516349E+03  0.60706082468E+03  0.00000000000E+00 0. -1.
         -5    1    3    3    0  503  0.10910123629E+03 -0.18301843894E+02 -0.21711969933E+03  0.24372339052E+03  0.47000000000E+01 0.  1.
         11    1    4    4    0    0  0.32931872979E+02  0.22323541051E+02  0.13264197489E+02  0.41937902642E+02  0.00000000000E+00 0. -1.
        -12    1    4    4    0    0  0.43896403647E+01 -0.20901047834E+02 -0.49998766498E+02  0.54369103307E+02  0.00000000000E+00 0.  1.
</event>
<event>
12    1  0.9966151E-001  0.1866775E+03  0.7818608E-02  0.1161809E+00
         21   -1    0    0  503  502  0.00000000000E+00  0.00000000000E+00  0.37501428279E+03  0.37501428279E+03  0.00000000000E+00 0. -1.
         21   -1    0    0  501  503 -0.00000000000E+00 -0.00000000000E+00 -0.96967197536E+02  0.96967197536E+02  0.00000000000E+00 0. -1.
          6    2    1    2  501    0 -0.68642815048E+02 -0.23231827513E+01  0.87442994921E+02  0.20614258056E+03  0.17358356179E+03 0.  0.
         24    2    3    3    0    0 -0.38882188601E+02  0.52670176613E+02  0.98551570859E+02  0.14246012678E+03  0.79350510447E+02 0.  0.
         -6    2    1    2    0  502  0.68642815048E+02  0.23231827513E+01  0.19060409033E+03  0.26583889976E+03  0.17211382321E+03 0.  0.
        -24    2    5    5    0    0  0.77275191700E+02 -0.24293211756E+02  0.20274396438E+03  0.23497764695E+03  0.86877868792E+02 0.  0.
          5    1    3    3  501    0 -0.29760626447E+02 -0.54993359364E+02 -0.11108575938E+02  0.63682453785E+02  0.47000000000E+01 0. -1.
        -13    1    4    4    0    0 -0.57705779181E+02  0.25322894875E+02  0.86755318311E+02  0.10722728762E+03  0.00000000000E+00 0.  1.
         14    1    4    4    0    0  0.18823590581E+02  0.27347281737E+02  0.11796252548E+02  0.35232839155E+02  0.00000000000E+00 0. -1.
         -5    1    5    5    0  502 -0.86323766524E+01  0.26616394507E+02 -0.12139874044E+02  0.30861252811E+02  0.47000000000E+01 0.  1.
         11    1    6    6    0    0  0.27291754585E+02  0.24148886802E+02  0.25281793599E+02  0.44352876904E+02  0.00000000000E+00 0. -1.
        -12    1    6    6    0    0  0.49983437115E+02 -0.48442098558E+02  0.17746217078E+03  0.19062477005E+03  0.00000000000E+00 0.  1.
</event>
<event>
12    1  0.9966151E-001  0.2122331E+03  0.7818608E-02  0.1140108E+00
         21   -1    0    0  503  502  0.00000000000E+00  0.00000000000E+00  0.85321024580E+02  0.85321024580E+02  0.00000000000E+00 0. -1.
         21   -1    0    0  501  503 -0.00000000000E+00 -0.00000000000E+00 -0.53198797164E+03  0.53198797164E+03  0.00000000000E+00 0. -1.
          6    2    1    2  501    0  0.20669803740E+02 -0.12147394681E+03 -0.18506847874E+03  0.28044603048E+03  0.17092827048E+03 0.  0.
         24    2    3    3    0    0  0.60925952540E+02 -0.22405421459E+02 -0.90256405420E+02  0.13745459900E+03  0.80830523087E+02 0.  0.
         -6    2    1    2    0  502 -0.20669803740E+02  0.12147394681E+03 -0.26159846832E+03  0.33686296574E+03  0.17279970636E+03 0.  0.
        -24    2    5    5    0    0  0.49377437784E+02  0.73971239281E+02 -0.18690121485E+03  0.22388114002E+03  0.85327751290E+02 0.  0.
          5    1    3    3  501    0 -0.40256148801E+02 -0.99068525347E+02 -0.94812073318E+02  0.14299143148E+03  0.47000000000E+01 0. -1.
        -13    1    4    4    0    0  0.54276961610E+02  0.12063868121E+02 -0.85556782182E+02  0.10203670150E+03  0.00000000000E+00 0.  1.
         14    1    4    4    0    0  0.66489909305E+01 -0.34469289580E+02 -0.46996232383E+01  0.35417897498E+02  0.00000000000E+00 0. -1.
         -5    1    5    5    0  502 -0.70047241523E+02  0.47502707525E+02 -0.74697253474E+02  0.11298182572E+03  0.47000000000E+01 0.  1.
         11    1    6    6    0    0  0.14504116840E+02 -0.16074050004E+02 -0.13818765555E+02  0.25684679681E+02  0.00000000000E+00 0. -1.
        -12    1    6    6    0    0  0.34873320944E+02  0.90045289285E+02 -0.17308244929E+03  0.19819646034E+03  0.00000000000E+00 0.  1.
</event>
<event>
12    1  0.9966151E-001  0.2459288E+03  0.7818608E-02  0.1115924E+00
         21   -1    0    0  503  502  0.00000000000E+00  0.00000000000E+00  0.82628376398E+02  0.82628376398E+02  0.00000000000E+00 0.  1.
         21   -1    0    0  501  503 -0.00000000000E+00 -0.00000000000E+00 -0.86797486777E+03  0.86797486777E+03  0.00000000000E+00 0.  1.
          6    2    1    2  501    0 -0.55194552306E+01 -0.17478087737E+03 -0.58113876220E+03  0.63103348552E+03  0.17292246653E+03 0.  0.
         24    2    3    3    0    0 -0.45849263655E+02 -0.11194087709E+03 -0.23022725338E+03  0.27223502383E+03  0.80463687844E+02 0.  0.
         -6    2    1    2    0  502  0.55194552306E+01  0.17478087737E+03 -0.20420772917E+03  0.31956975865E+03  0.17275767569E+03 0.  0.
        -24    2    5    5    0    0  0.43369934706E+02  0.10197229524E+03 -0.19273596766E+03  0.23657915833E+03  0.80890325103E+02 0.  0.
          5    1    3    3  501    0  0.40329808425E+02 -0.62840000279E+02 -0.35091150882E+03  0.35879846168E+03  0.47000000000E+01 0. -1.
        -13    1    4    4    0    0  0.12276769263E+02  0.49910695139E+01 -0.34384542556E+02  0.36850055701E+02  0.00000000000E+00 0.  1.
         14    1    4    4    0    0 -0.58126032919E+02 -0.11693194661E+03 -0.19584271082E+03  0.23538496813E+03  0.00000000000E+00 0. -1.
         -5    1    5    5    0  502 -0.37850479476E+02  0.72808582132E+02 -0.11471761512E+02  0.82990600316E+02  0.47000000000E+01 0.  1.
         11    1    6    6    0    0 -0.10917093629E+01  0.85318913515E+02 -0.15063799978E+03  0.17312514494E+03  0.00000000000E+00 0. -1.
        -12    1    6    6    0    0  0.44461644069E+02  0.16653381725E+02 -0.42097967881E+02  0.63454013395E+02  0.00000000000E+00 0.  1.
</event>
<event>
12    1  0.9966151E-001  0.1939090E+03  0.7818608E-02  0.1157110E+00
         21   -1    0    0  501  502  0.00000000000E+00  0.00000000000E+00  0.14789806662E+04  0.14789806662E+04  0.00000000000E+00 0.  1.
         21   -1    0    0  502  503 -0.00000000000E+00 -0.00000000000E+00 -0.42454862622E+02  0.42454862622E+02  0.00000000000E+00 0.  1.
         -6    2    1    2    0  503  0.82103863965E+01 -0.66026092462E+02  0.22975391673E+03  0.30064527591E+03  0.18213693843E+03 0.  0.
        -24    2    3    3    0    0  0.16890452307E+02 -0.10970464224E+03  0.11903912271E+03  0.18121741119E+03  0.79680872704E+02 0.  0.
          6    2    1    2  501    0 -0.82103863965E+01  0.66026092462E+02  0.12067718868E+04  0.12207902529E+04  0.17205696557E+03 0.  0.
         24    2    5    5    0    0  0.55617340439E+02  0.14043288718E+02  0.56842254047E+03  0.57713804200E+03  0.81814622740E+02 0.  0.
          5    1    5    5  501    0 -0.63827726835E+02  0.51982803744E+02  0.63834934634E+03  0.64365221088E+03  0.47000000000E+01 0. -1.
        -11    1    6    6    0    0  0.21176443770E+02  0.21065365488E+01  0.26482513028E+02  0.33973559768E+02  0.00000000000E+00 0.  1.
         12    1    6    6    0    0  0.34440896669E+02  0.11936752169E+02  0.54194002745E+03  0.54316448224E+03  0.00000000000E+00 0. -1.
         -5    1    3    3    0  503 -0.86800659105E+01  0.43678549781E+02  0.11071479402E+03  0.11942786471E+03  0.47000000000E+01 0.  1.
         13    1    4    4    0    0  0.45360338348E+02 -0.62076737264E+02  0.46365638532E+02  0.89782259054E+02  0.00000000000E+00 0. -1.
        -14    1    4    4    0    0 -0.28469886041E+02 -0.47627904978E+02  0.72673484180E+02  0.91435152139E+02  0.00000000000E+00 0.  1.
</event>
<event>
12    1  0.9966151E-001  0.2339259E+03  0.7818608E-02  0.1123994E+00
         21   -1    0    0  503  502  0.00000000000E+00  0.00000000000E+00  0.25686557647E+03  0.25686557647E+03  0.00000000000E+00 0. -1.
         21   -1    0    0  501  503 -0.00000000000E+00 -0.00000000000E+00 -0.22881247373E+03  0.22881247373E+03  0.00000000000E+00 0. -1.
          6    2    1    2  501    0 -0.15325304781E+03 -0.37399438029E+02 -0.50682216966E+02  0.23885707851E+03  0.17204302429E+03 0.  0.
         24    2    3    3    0    0 -0.89176712155E+02  0.42771883687E+02 -0.46339409520E+02  0.13602630688E+03  0.81079561319E+02 0.  0.
         -6    2    1    2    0  502  0.15325304781E+03  0.37399438029E+02  0.78735319701E+02  0.24682097169E+03  0.17273137199E+03 0.  0.
        -24    2    5    5    0    0  0.15093495188E+03  0.80169949800E+02  0.76978617453E+02  0.20369480506E+03  0.79732587513E+02 0.  0.
          5    1    3    3  501    0 -0.64076335657E+02 -0.80171321715E+02 -0.43428074462E+01  0.10283077163E+03  0.47000000000E+01 0. -1.
        -13    1    4    4    0    0 -0.94411716366E+02  0.25633727053E+02 -0.13690725640E+02  0.98783076072E+02  0.00000000000E+00 0.  1.
         14    1    4    4    0    0  0.52350042108E+01  0.17138156634E+02 -0.32648683880E+02  0.37243230807E+02  0.00000000000E+00 0. -1.
         -5    1    5    5    0  502  0.23180959289E+01 -0.42770511772E+02  0.17567022481E+01  0.43126166636E+02  0.47000000000E+01 0.  1.
         13    1    6    6    0    0  0.59989065425E+02  0.43673806946E+02  0.75253158563E+02  0.10568409179E+03  0.00000000000E+00 0. -1.
        -14    1    6    6    0    0  0.90945886458E+02  0.36496142855E+02  0.17254588897E+01  0.98010713268E+02  0.00000000000E+00 0.  1.
</event>
<event>
12    1  0.9966151E-001  0.2334991E+03  0.7818608E-02  0.1124300E+00
         21   -1    0    0  501  502  0.00000000000E+00  0.00000000000E+00  0.80326263735E+02  0.80326263735E+02  0.00000000000E+00 0. -1.
         21   -1    0    0  502  503 -0.00000000000E+00 -0.00000000000E+00 -0.74928426086E+03  0.74928426086E+03  0.00000000000E+00 0. -1.
         -6    2    1    2    0  503  0.56899505716E+02 -0.14628558500E+03 -0.46360030997E+03  0.51908292137E+03  0.17287222370E+03 0.  0.
        -24    2    3    3    0    0 -0.15507968051E+02 -0.16839886459E+02 -0.14263287188E+03  0.16547124532E+03  0.80700173715E+02 0.  0.
          6    2    1    2  501    0 -0.56899505716E+02  0.14628558500E+03 -0.20535768716E+03  0.31052760322E+03  0.17210051296E+03 0.  0.
         24    2    5    5    0    0  0.29820588229E+02  0.99354117593E+02 -0.14317366259E+03  0.19385764035E+03  0.79508357397E+02 0.  0.
          5    1    5    5  501    0 -0.86720093946E+02  0.46931467405E+02 -0.62184024564E+02  0.11666996288E+03  0.47000000000E+01 0. -1.
        -11    1    6    6    0    0  0.38935755706E+02  0.96073614097E+01 -0.37345005003E+02  0.54799122842E+02  0.00000000000E+00 0.  1.
         12    1    6    6    0    0 -0.91151674764E+01  0.89746756183E+02 -0.10582865759E+03  0.13905851750E+03  0.00000000000E+00 0. -1.
         -5    1    3    3    0  503  0.72407473767E+02 -0.12944569854E+03 -0.32096743809E+03  0.35361167605E+03  0.47000000000E+01 0.  1.
         13    1    4    4    0    0  0.14284275543E+01  0.26710115529E+02 -0.95206792660E+02  0.98892891784E+02  0.00000000000E+00 0. -1.
        -14    1    4    4    0    0 -0.16936395605E+02 -0.43550001988E+02 -0.47426079221E+02  0.66578353536E+02  0.00000000000E+00 0.  1.
</event>
<event>
12    1  0.9966151E-001  0.4876025E+03  0.7818608E-02  0.1017127E+00
         21   -1    0    0  503  502  0.00000000000E+00  0.00000000000E+00  0.40912114423E+03  0.40912114423E+03  0.00000000000E+00 0.  1.
         21   -1    0    0  501  503 -0.00000000000E+00 -0.00000000000E+00 -0.59075471911E+03  0.59075471911E+03  0.00000000000E+00 0.  1.
          6    2    1    2  501    0  0.82590518502E+02  0.44764351103E+03 -0.23671649954E+02  0.48817675385E+03  0.17478641046E+03 0.  0.
         24    2    3    3    0    0  0.39049095080E+02  0.89855366316E+02  0.10383872130E+02  0.12611311216E+03  0.78726574783E+02 0.  0.
         -6    2    1    2    0  502 -0.82590518502E+02 -0.44764351103E+03 -0.15796192493E+03  0.51169910949E+03  0.17227333577E+03 0.  0.
        -24    2    5    5    0    0 -0.35289040206E+02 -0.13664657877E+03 -0.28014371969E+01  0.16090944506E+03  0.77242459887E+02 0.  0.
          5    1    3    3  501    0  0.43541423422E+02  0.35778814471E+03 -0.34055522084E+02  0.36206364169E+03  0.47000000000E+01 0. -1.
        -13    1    4    4    0    0  0.21176161359E+02  0.85678752787E+02  0.35394983665E+02  0.95089869900E+02  0.00000000000E+00 0.  1.
         14    1    4    4    0    0  0.17872933721E+02  0.41766135290E+01 -0.25011111535E+02  0.31023242264E+02  0.00000000000E+00 0. -1.
         -5    1    5    5    0  502 -0.47301478297E+02 -0.31099693225E+03 -0.15516048773E+03  0.35078966443E+03  0.47000000000E+01 0.  1.
         11    1    6    6    0    0 -0.21329583078E+02 -0.53060868666E+02 -0.38515177297E+02  0.68947993300E+02  0.00000000000E+00 0. -1.
        -12    1    6    6    0    0 -0.13959457128E+02 -0.83585710109E+02  0.35713740100E+02  0.91961451759E+02  0.00000000000E+00 0.  1.
</event>
<event>
12    1  0.9966151E-001  0.1728134E+03  0.7818608E-02  0.1175300E+00
         21   -1    0    0  501  502  0.00000000000E+00  0.00000000000E+00  0.10201431156E+03  0.10201431156E+03  0.00000000000E+00 0.  1.
         21   -1    0    0  502  503 -0.00000000000E+00 -0.00000000000E+00 -0.29798882791E+03  0.29798882791E+03  0.00000000000E+00 0.  1.
         -6    2    1    2    0  503  0.97061018378E+01  0.20747973794E+02 -0.13027479258E+03  0.21641626195E+03  0.17128861616E+03 0.  0.
        -24    2    3    3    0    0  0.23115621085E+02 -0.49902258923E+02 -0.46732088368E+02  0.10608610281E+03  0.77754779547E+02 0.  0.
          6    2    1    2  501    0 -0.97061018378E+01 -0.20747973794E+02 -0.65699723770E+02  0.18358687752E+03  0.16989114475E+03 0.  0.
         24    2    5    5    0    0 -0.66956256370E+02 -0.38158769585E+02 -0.38165572659E+02  0.11754949809E+03  0.80137641602E+02 0.  0.
          5    1    5    5  501    0  0.57250154532E+02  0.17410795791E+02 -0.27534151111E+02  0.66037379426E+02  0.47000000000E+01 0. -1.
        -11    1    6    6    0    0 -0.42948263346E+02  0.18670085718E+02 -0.39317693249E+01  0.46995576762E+02  0.00000000000E+00 0.  1.
         12    1    6    6    0    0 -0.24007993024E+02 -0.56828855303E+02 -0.34233803335E+02  0.70553921328E+02  0.00000000000E+00 0. -1.
         -5    1    3    3    0  503 -0.13409519247E+02  0.70650232717E+02 -0.83542704211E+02  0.11033015914E+03  0.47000000000E+01 0.  1.
         13    1    4    4    0    0 -0.55923263978E+01 -0.47514728817E+02 -0.57971628569E+02  0.75164042520E+02  0.00000000000E+00 0. -1.
        -14    1    4    4    0    0  0.28707947483E+02 -0.23875301066E+01  0.11239540200E+02  0.30922060290E+02  0.00000000000E+00 0.  1.
</event>
<event>
12    1  0.9966151E-001  0.2279701E+03  0.7818608E-02  0.1128085E+00
         21   -1    0    0  503  502  0.00000000000E+00  0.00000000000E+00  0.25683611306E+03  0.25683611306E+03  0.00000000000E+00 0.  1.
         21   -1    0    0  501  503 -0.00000000000E+00 -0.00000000000E+00 -0.24162469823E+03  0.24162469823E+03  0.00000000000E+00 0.  1.
          6    2    1    2  501    0  0.32083279155E+02  0.14659480479E+03  0.10813902475E+03  0.25227812569E+03  0.17155416182E+03 0.  0.
         24    2    3    3    0    0  0.22647684786E+02  0.11469019354E+03  0.14455355676E+03  0.20272973721E+03  0.80850834607E+02 0.  0.
         -6    2    1    2    0  502 -0.32083279155E+02 -0.14659480479E+03 -0.92927609917E+02  0.24618268559E+03  0.17161293776E+03 0.  0.
        -24    2    5    5    0    0 -0.33817609355E+02 -0.64000023698E+02 -0.11699948898E+03  0.16000582601E+03  0.81690575957E+02 0.  0.
          5    1    3    3  501    0  0.94355943694E+01  0.31904611251E+02 -0.36414532009E+02  0.49548388486E+02  0.47000000000E+01 0. -1.
        -11    1    4    4    0    0  0.25803954807E+02  0.55441609013E+02  0.19286432394E+02  0.64121623250E+02  0.00000000000E+00 0.  1.
         12    1    4    4    0    0 -0.31562700214E+01  0.59248584529E+02  0.12526712436E+03  0.13860811396E+03  0.00000000000E+00 0. -1.
         -5    1    5    5    0  502  0.17343301991E+01 -0.82594781095E+02  0.24071879064E+02  0.86176859580E+02  0.47000000000E+01 0.  1.
         13    1    6    6    0    0 -0.33475382224E+01 -0.75317969430E+02 -0.70120747837E+02  0.10296077801E+03  0.00000000000E+00 0. -1.
        -14    1    6    6    0    0 -0.30470071132E+02  0.11317945731E+02 -0.46878741145E+02  0.57045048003E+02  0.00000000000E+00 0.  1.
</event>
<event>
12    1  0.9966151E-001  0.3309353E+03  0.7818608E-02  0.1070748E+00
         21   -1    0    0  503  502  0.00000000000E+00  0.00000000000E+00  0.22960270692E+04  0.22960270692E+04  0.00000000000E+00 0.  1.
         21   -1    0    0  501  503 -0.00000000000E+00 -0.00000000000E+00 -0.64969707003E+02  0.64969707003E+02  0.00000000000E+00 0. -1.
          6    2    1    2  501    0  0.12057746659E+03  0.25573147056E+03  0.17244572010E+04  0.17558836390E+04  0.17157273954E+03 0.  0.
         24    2    3    3    0    0  0.13814732552E+03  0.13526788817E+03  0.10607337035E+04  0.10810717054E+04  0.78599982146E+02 0.  0.
         -6    2    1    2    0  502 -0.12057746659E+03 -0.25573147056E+03  0.50660016114E+03  0.60511313720E+03  0.17199033422E+03 0.  0.
        -24    2    5    5    0    0 -0.12615164041E+03 -0.11289559487E+03  0.27523751138E+03  0.33311327599E+03  0.80926604082E+02 0.  0.
          5    1    3    3  501    0 -0.17569858926E+02  0.12046358239E+03  0.66372349749E+03  0.67481193361E+03  0.47000000000E+01 0. -1.
        -13    1    4    4    0    0  0.87975063127E+02  0.37218108956E+02  0.40198315226E+03  0.41317702509E+03  0.00000000000E+00 0.  1.
         14    1    4    4    0    0  0.50172262393E+02  0.98049779214E+02  0.65875055127E+03  0.66789468026E+03  0.00000000000E+00 0. -1.
         -5    1    5    5    0  502  0.55741738194E+01 -0.14283587569E+03  0.23136264976E+03  0.27199986122E+03  0.47000000000E+01 0.  1.
         13    1    6    6    0    0 -0.30928954791E+02 -0.91971257135E+01  0.11691349163E+02  0.34320183728E+02  0.00000000000E+00 0. -1.
        -14    1    6    6    0    0 -0.95222685622E+02 -0.10369846916E+03  0.26354616222E+03  0.29879309226E+03  0.00000000000E+00 0.  1.
</event>
<event>
12    1  0.9966151E-001  0.1780378E+03  0.7818608E-02  0.1169737E+00
         21   -1    0    0  503  502  0.00000000000E+00  0.00000000000E+00  0.10582793762E+03  0.10582793762E+03  0.00000000000E+00 0.  1.
         21   -1    0    0  501  503 -0.00000000000E+00 -0.00000000000E+00 -0.30964254351E+03  0.30964254351E+03  0.00000000000E+00 0.  1.
          6    2    1    2  501    0  0.12631721588E+02  0.38056546888E+02 -0.13976609373E+03  0.22634492587E+03  0.17346355052E+03 0.  0.
         24    2    3    3    0    0  0.18183826081E+02 -0.28164127955E+02 -0.13425745102E+03  0.15949854388E+03  0.79314895886E+02 0.  0.
         -6    2    1    2    0  502 -0.12631721588E+02 -0.38056546888E+02 -0.64048512163E+02  0.18912555527E+03  0.17337359255E+03 0.  0.
        -24    2    5    5    0    0  0.35530755122E+00 -0.38473306579E+02 -0.10964282847E+03  0.14148346994E+03  0.80719891411E+02 0.  0.
          5    1    3    3  501    0 -0.55521044933E+01  0.66220674843E+02 -0.55086427035E+01  0.66846381991E+02  0.47000000000E+01 0. -1.
        -13    1    4    4    0    0  0.12739357303E+02 -0.99900597065E+01 -0.13900251128E+03  0.13994209753E+03  0.00000000000E+00 0.  1.
         14    1    4    4    0    0  0.54444687785E+01 -0.18174068248E+02  0.47450602600E+01  0.19556446350E+02  0.00000000000E+00 0. -1.
         -5    1    5    5    0  502 -0.12987029139E+02  0.41675969098E+00  0.45594316310E+02  0.47642085326E+02  0.47000000000E+01 0.  1.
         13    1    6    6    0    0 -0.23274953994E+02 -0.26470450199E+02 -0.76039739667E+01  0.36058683244E+02  0.00000000000E+00 0. -1.
        -14    1    6    6    0    0  0.23630261546E+02 -0.12002856380E+02 -0.10203885451E+03  0.10542478670E+03  0.00000000000E+00 0.  1.
</event>
<event>
12    1  0.9966151E-001  0.1762439E+03  0.7818608E-02  0.1172192E+00
         21   -1    0    0  503  502  0.00000000000E+00  0.00000000000E+00  0.11229585500E+04  0.11229585500E+04  0.00000000000E+00 0.  1.
         21   -1    0    0  501  503 -0.00000000000E+00 -0.00000000000E+00 -0.28861561473E+02  0.28861561473E+02  0.00000000000E+00 0.  1.
          6    2    1    2  501    0 -0.27018594526E+02  0.80326586879E+01  0.41393336798E+03  0.44989191647E+03  0.17397521468E+03 0.  0.
         24    2    3    3    0    0 -0.16241859670E+02  0.72733646245E+02  0.28580950275E+03  0.30587743579E+03  0.79498129288E+02 0.  0.
         -6    2    1    2    0  502  0.27018594526E+02 -0.80326586879E+01  0.68016362052E+03  0.70192819497E+03  0.17113185608E+03 0.  0.
        -24    2    5    5    0    0  0.35629747437E+02 -0.67330267361E+02  0.39265080123E+03  0.40820031137E+03  0.81547524144E+02 0.  0.
          5    1    3    3  501    0 -0.10776734856E+02 -0.64700987557E+02  0.12812386523E+03  0.14401448068E+03  0.47000000000E+01 0. -1.
        -11    1    4    4    0    0  0.12959607597E+02  0.64287310960E+02  0.11500884346E+03  0.13239276360E+03  0.00000000000E+00 0.  1.
         12    1    4    4    0    0 -0.29201467267E+02  0.84463352848E+01  0.17080065929E+03  0.17348467219E+03  0.00000000000E+00 0. -1.
         -5    1    5    5    0  502 -0.86111529114E+01  0.59297608673E+02  0.28751281929E+03  0.29372788360E+03  0.47000000000E+01 0.  1.
         13    1    6    6    0    0  0.44416574110E+02 -0.18135447138E+01  0.18580183601E+03  0.19104565754E+03  0.00000000000E+00 0. -1.
        -14    1    6    6    0    0 -0.87868266723E+01 -0.65516722647E+02  0.20684896522E+03  0.21715465384E+03  0.00000000000E+00 0.  1.
</event>
<event>
12    1  0.9966151E-001  0.2107765E+03  0.7818608E-02  0.1141384E+00
         21   -1    0    0  503  502  0.00000000000E+00  0.00000000000E+00  0.29986926587E+02  0.29986926587E+02  0.00000000000E+00 0. -1.
         21   -1    0    0  501  503 -0.00000000000E+00 -0.00000000000E+00 -0.21163223388E+04  0.21163223388E+04  0.00000000000E+00 0. -1.
          6    2    1    2  501    0 -0.52131948544E+02 -0.10937906549E+03 -0.16416874826E+04  0.16551629949E+04  0.17246805326E+03 0.  0.
         24    2    3    3    0    0 -0.51926125817E+02 -0.54136525093E+02 -0.48924631355E+03  0.50138896218E+03  0.80011562826E+02 0.  0.
         -6    2    1    2    0  502  0.52131948544E+02  0.10937906549E+03 -0.44464792969E+03  0.49114627048E+03  0.16979799059E+03 0.  0.
        -24    2    5    5    0    0  0.93393763296E+02  0.43477684097E+02 -0.26435944697E+03  0.29474984376E+03  0.79867697860E+02 0.  0.
          5    1    3    3  501    0 -0.20582272762E+00 -0.55242540394E+02 -0.11524411690E+04  0.11537740328E+04  0.47000000000E+01 0. -1.
        -11    1    4    4    0    0  0.19600823944E+02 -0.26572609502E+02 -0.14889482938E+03  0.15251218342E+03  0.00000000000E+00 0.  1.
         12    1    4    4    0    0 -0.71526949760E+02 -0.27563915590E+02 -0.34035148417E+03  0.34887677876E+03  0.00000000000E+00 0. -1.
         -5    1    5    5    0  502 -0.41261814752E+02  0.65901381390E+02 -0.18028848272E+03  0.19639642672E+03  0.47000000000E+01 0.  1.
         13    1    6    6    0    0 -0.87737257396E+01 -0.35605794341E+01 -0.66374307013E+02  0.67046287151E+02  0.00000000000E+00 0. -1.
        -14    1    6    6    0    0  0.10216748904E+03  0.47038263531E+02 -0.19798513995E+03  0.22770355661E+03  0.00000000000E+00 0.  1.
</event>
<event>
12    1  0.9966151E-001  0.2263940E+03  0.7818608E-02  0.1129491E+00
         21   -1    0    0  501  502  0.00000000000E+00  0.00000000000E+00  0.15692693992E+03  0.15692693992E+03  0.00000000000E+00 0. -1.
         21   -1    0    0  502  503 -0.00000000000E+00 -0.00000000000E+00 -0.39487371045E+03  0.39487371045E+03  0.00000000000E+00 0. -1.
         -6    2    1    2    0  503 -0.19331204675E+02 -0.14579977297E+03 -0.26944982165E+01  0.22641008334E+03  0.17211332384E+03 0.  0.
        -24    2    3    3    0    0 -0.14295092568E+02 -0.99727860908E+02  0.65641848340E+02  0.14370621543E+03  0.78693253756E+02 0.  0.
          6    2    1    2  501    0  0.19331204675E+02  0.14579977297E+03 -0.23525227231E+03  0.32539056703E+03  0.17001211784E+03 0.  0.
         24    2    5    5    0    0  0.56677449989E+02  0.10031776789E+03 -0.83414821046E+02  0.16247937518E+03  0.78520870448E+02 0.  0.
          5    1    5    5  501    0 -0.37346245313E+02  0.45482005080E+02 -0.15183745126E+03  0.16291119185E+03  0.47000000000E+01 0. -1.
        -13    1    6    6    0    0  0.15318909254E+02  0.62112282357E+01  0.13394033307E+02  0.21275536777E+02  0.00000000000E+00 0.  1.
         14    1    6    6    0    0  0.41358540734E+02  0.94106539657E+02 -0.96808854354E+02  0.14120383840E+03  0.00000000000E+00 0. -1.
         -5    1    3    3    0  503 -0.50361121073E+01 -0.46071912065E+02 -0.68336346557E+02  0.82703867910E+02  0.47000000000E+01 0.  1.
         13    1    4    4    0    0 -0.46516313902E+02 -0.53930596331E+02  0.43739148332E+02  0.83578644260E+02  0.00000000000E+00 0. -1.
        -14    1    4    4    0    0  0.32221221334E+02 -0.45797264577E+02  0.21902700009E+02  0.60127571169E+02  0.00000000000E+00 0.  1.
</event>
<event>
12    1  0.9966151E-001  0.2230331E+03  0.7818608E-02  0.1131866E+00
         21   -1    0    0  503  502  0.00000000000E+00  0.00000000000E+00  0.34808633450E+03  0.34808633450E+03  0.00000000000E+00 0.  1.
         21   -1    0    0  501  503 -0.00000000000E+00 -0.00000000000E+00 -0.14296638640E+03  0.14296638640E+03  0.00000000000E+00 0.  1.
          6    2    1    2  501    0 -0.61231165434E+02 -0.12830058987E+03  0.12167269439E+03  0.25406299683E+03  0.17185303261E+03 0.  0.
         24    2    3    3    0    0  0.20477894600E+02 -0.90025452811E+02  0.30472647903E+02  0.12568505836E+03  0.79650645337E+02 0.  0.
         -6    2    1    2    0  502  0.61231165434E+02  0.12830058987E+03  0.83447253716E+02  0.23698972407E+03  0.17026564005E+03 0.  0.
        -24    2    5    5    0    0  0.39981762423E+02  0.13235089334E+03  0.10497749419E+02  0.16075546495E+03  0.81343816447E+02 0.  0.
          5    1    3    3  501    0 -0.81709060034E+02 -0.38275137056E+02  0.91200046483E+02  0.12837793847E+03  0.47000000000E+01 0. -1.
        -13    1    4    4    0    0  0.51144502907E+02 -0.51365777506E+02  0.20664689005E+02  0.75373952053E+02  0.00000000000E+00 0.  1.
         14    1    4    4    0    0 -0.30666608307E+02 -0.38659675305E+02  0.98079588982E+01  0.50311106303E+02  0.00000000000E+00 0. -1.
         -5    1    5    5    0  502  0.21249403011E+02 -0.40503034764E+01  0.72949504296E+02  0.76234259121E+02  0.47000000000E+01 0.  1.
         13    1    6    6    0    0  0.17857998902E+02  0.12212554664E+03  0.32811516960E+02  0.12771120903E+03  0.00000000000E+00 0. -1.
        -14    1    6    6    0    0  0.22123763521E+02  0.10225346702E+02 -0.22313767540E+02  0.33044255921E+02  0.00000000000E+00 0.  1.
</event>
<event>
12    1  0.9966151E-001  0.2262174E+03  0.7818608E-02  0.1129538E+00
         21   -1    0    0  501  502  0.00000000000E+00  0.00000000000E+00  0.85819212949E+03  0.85819212949E+03  0.00000000000E+00 0.  1.
         21   -1    0    0  502  503 -0.00000000000E+00 -0.00000000000E+00 -0.69824996671E+02  0.69824996671E+02  0.00000000000E+00 0.  1.
         -6    2    1    2    0  503 -0.98048125295E+02  0.10778303158E+03  0.57494757846E+03  0.61785031747E+03  0.17304242268E+03 0.  0.
        -24    2    3    3    0    0 -0.10340909396E+03  0.12423949837E+03  0.36047895119E+03  0.40263313096E+03  0.77714028514E+02 0.  0.
          6    2    1    2  501    0  0.98048125295E+02 -0.10778303158E+03  0.21341955436E+03  0.31016680870E+03  0.17153695306E+03 0.  0.
         24    2    5    5    0    0  0.12407129238E+02 -0.78431325851E+02  0.14475128839E+03  0.19644203749E+03  0.10644777533E+03 0.  0.
          5    1    5    5  501    0  0.85640996056E+02 -0.29351705725E+02  0.68668265972E+02  0.11372477121E+03  0.47000000000E+01 0. -1.
        -11    1    6    6    0    0  0.11622518603E+02  0.25440260844E+02  0.40973445802E+02  0.49609606644E+02  0.00000000000E+00 0.  1.
         12    1    6    6    0    0  0.78461063555E+00 -0.10387158669E+03  0.10377784259E+03  0.14683243085E+03  0.00000000000E+00 0. -1.
         -5    1    3    3    0  503  0.53609686660E+01 -0.16456466794E+02  0.21446862727E+03  0.21521718650E+03  0.47000000000E+01 0.  1.
         11    1    4    4    0    0 -0.27497318053E+02  0.93166621650E+02  0.20465760681E+03  0.22654107335E+03  0.00000000000E+00 0. -1.
        -12    1    4    4    0    0 -0.75911775908E+02  0.31072876720E+02  0.15582134438E+03  0.17609205761E+03  0.00000000000E+00 0.  1.
</event>
<event>
12    1  0.9966151E-001  0.2157473E+03  0.7818608E-02  0.1137784E+00
         21   -1    0    0  501  502  0.00000000000E+00  0.00000000000E+00  0.82280658144E+02  0.82280658144E+02  0.00000000000E+00 0. -1.
         21   -1    0    0  502  503 -0.00000000000E+00 -0.00000000000E+00 -0.60081953005E+03  0.60081953005E+03  0.00000000000E+00 0. -1.
         -6    2    1    2    0  503 -0.12290066947E+03 -0.41405238035E+02 -0.16435657692E+03  0.26838098918E+03  0.16791754727E+03 0.  0.
        -24    2    3    3    0    0 -0.15166540762E+03 -0.22649722743E+02 -0.11273172414E+03  0.20620064711E+03  0.79340150210E+02 0.  0.
          6    2    1    2  501    0  0.12290066947E+03  0.41405238035E+02 -0.35418229499E+03  0.41471919902E+03  0.17241794471E+03 0.  0.
         24    2    5    5    0    0  0.23044264367E+02 -0.12638004480E+02 -0.79915663972E+02  0.11784170140E+03  0.82519064244E+02 0.  0.
          5    1    5    5  501    0  0.99856405106E+02  0.54043242514E+02 -0.27426663102E+03  0.29687749762E+03  0.47000000000E+01 0. -1.
        -11    1    6    6    0    0  0.33815614366E+02  0.54055507160E+00  0.22853466171E+01  0.33897061582E+02  0.00000000000E+00 0.  1.
         12    1    6    6    0    0 -0.10771349998E+02 -0.13178559551E+02 -0.82201010589E+02  0.83944639820E+02  0.00000000000E+00 0. -1.
         -5    1    3    3    0  503  0.28764738144E+02 -0.18755515291E+02 -0.51624852782E+02  0.62180342063E+02  0.47000000000E+01 0.  1.
         13    1    4    4    0    0 -0.13286877414E+03  0.71322828987E+01 -0.10650763019E+03  0.17043724913E+03  0.00000000000E+00 0. -1.
        -14    1    4    4    0    0 -0.18796633475E+02 -0.29782005642E+02 -0.62240939454E+01  0.35763397985E+02  0.00000000000E+00 0.  1.
</event>
<event>
12    1  0.9966151E-001  0.2300535E+03  0.7818608E-02  0.1126629E+00
         21   -1    0    0  501  502  0.00000000000E+00  0.00000000000E+00  0.20285083456E+03  0.20285083456E+03  0.00000000000E+00 0. -1.
         21   -1    0    0  502  503 -0.00000000000E+00 -0.00000000000E+00 -0.52294555405E+03  0.52294555405E+03  0.00000000000E+00 0. -1.
         -6    2    1    2    0  503  0.62912307110E+02 -0.13874838716E+03  0.96952191125E+02  0.24950580097E+03  0.17217532932E+03 0.  0.
        -24    2    3    3    0    0 -0.13479575938E+02 -0.74866223571E+02 -0.12395299665E+01  0.10957598030E+03  0.78858789142E+02 0.  0.
          6    2    1    2  501    0 -0.62912307110E+02  0.13874838716E+03 -0.41704691062E+03  0.47629058764E+03  0.17238191580E+03 0.  0.
         24    2    5    5    0    0 -0.19060514059E+02  0.41635225966E+02 -0.31681968041E+03  0.32992961776E+03  0.79887718320E+02 0.  0.
          5    1    5    5  501    0 -0.43851793051E+02  0.97113161196E+02 -0.10022723021E+03  0.14636096989E+03  0.47000000000E+01 0. -1.
        -11    1    6    6    0    0 -0.46420339553E+02  0.16715933658E+02 -0.23509524097E+03  0.24021665781E+03  0.00000000000E+00 0.  1.
         12    1    6    6    0    0  0.27359825494E+02  0.24919292308E+02 -0.81724439445E+02  0.89712959949E+02  0.00000000000E+00 0. -1.
         -5    1    3    3    0  503  0.76391883048E+02 -0.63882163591E+02  0.98191721092E+02  0.13992982067E+03  0.47000000000E+01 0.  1.
         11    1    4    4    0    0 -0.21972339419E+02 -0.48759436915E+02  0.35145368660E+02  0.63995807098E+02  0.00000000000E+00 0. -1.
        -12    1    4    4    0    0  0.84927634816E+01 -0.26106786656E+02 -0.36384898627E+02  0.45580173202E+02  0.00000000000E+00 0.  1.
</event>
<event>
12    1  0.9966151E-001  0.2343736E+03  0.7818608E-02  0.1123791E+00
         21   -1    0    0  501  502  0.00000000000E+00  0.00000000000E+00  0.33871239235E+03  0.33871239235E+03  0.00000000000E+00 0.  1.
         21   -1    0    0  502  503 -0.00000000000E+00 -0.00000000000E+00 -0.22092014367E+03  0.22092014367E+03  0.00000000000E+00 0.  1.
         -6    2    1    2    0  503 -0.59492873885E+02 -0.14685380328E+03  0.20402821312E+03  0.30989743236E+03  0.17118254950E+03 0.  0.
        -24    2    3    3    0    0 -0.36235264218E+02 -0.17281438538E+03  0.19213142128E+03  0.27276938519E+03  0.79440847709E+02 0.  0.
          6    2    1    2  501    0  0.59492873885E+02  0.14685380328E+03 -0.86235964434E+02  0.24973510367E+03  0.17270072050E+03 0.  0.
         24    2    5    5    0    0  0.28471664763E+02  0.20597594850E+02  0.13323437002E+02  0.85914744748E+02  0.77258868640E+02 0.  0.
          5    1    5    5  501    0  0.31021209122E+02  0.12625620843E+03 -0.99559401437E+02  0.16382035892E+03  0.47000000000E+01 0. -1.
        -13    1    6    6    0    0  0.11199455988E+02 -0.29099948029E+02 -0.16125338973E+01  0.31222348651E+02  0.00000000000E+00 0.  1.
         14    1    6    6    0    0  0.17272208775E+02  0.49697542879E+02  0.14935970900E+02  0.54692396097E+02  0.00000000000E+00 0. -1.
         -5    1    3    3    0  503 -0.23257609667E+02  0.25960582101E+02  0.11896791831E+02  0.37128047165E+02  0.47000000000E+01 0.  1.
         11    1    4    4    0    0 -0.32020436734E+01  0.62435445937E+01  0.23757299732E+02  0.24771843358E+02  0.00000000000E+00 0. -1.
        -12    1    4    4    0    0 -0.33033220545E+02 -0.17905792998E+03  0.16837412155E+03  0.24799754183E+03  0.00000000000E+00 0.  1.
</event>
<event>
12    1  0.9966151E-001  0.1815744E+03  0.7818608E-02  0.1166725E+00
         21   -1    0    0  501  502  0.00000000000E+00  0.00000000000E+00  0.95614918810E+02  0.95614918810E+02  0.00000000000E+00 0. -1.
         21   -1    0    0  502  503 -0.00000000000E+00 -0.00000000000E+00 -0.34341171622E+03  0.34341171622E+03  0.00000000000E+00 0. -1.
         -6    2    1    2    0  503 -0.48105455616E+02  0.27907289709E+02 -0.14019479642E+03  0.22796399731E+03  0.17093873594E+03 0.  0.
        -24    2    3    3    0    0 -0.11510506248E+02  0.80858960511E+02 -0.10095466666E+03  0.15243289415E+03  0.79832820633E+02 0.  0.
          6    2    1    2  501    0  0.48105455616E+02 -0.27907289709E+02 -0.10760200098E+03  0.21106263772E+03  0.17284760556E+03 0.  0.
         24    2    5    5    0    0 -0.23099111569E+02 -0.22318438998E+02 -0.57286787530E+01  0.86557258630E+02  0.80172686038E+02 0.  0.
          5    1    5    5  501    0  0.71204567185E+02 -0.55888507105E+01 -0.10187332223E+03  0.12450537909E+03  0.47000000000E+01 0. -1.
        -11    1    6    6    0    0  0.18736769340E+02 -0.24920535206E+02 -0.25436932581E+02  0.40238503195E+02  0.00000000000E+00 0.  1.
         12    1    6    6    0    0 -0.41835880909E+02  0.26020962078E+01  0.19708253828E+02  0.46318755435E+02  0.00000000000E+00 0. -1.
         -5    1    3    3    0  503 -0.36594949368E+02 -0.52951670802E+02 -0.39240129767E+02  0.75531103157E+02  0.47000000000E+01 0.  1.
         11    1    4    4    0    0  0.34069067049E+02  0.26001084082E+02 -0.36200646224E+02  0.56100307397E+02  0.00000000000E+00 0. -1.
        -12    1    4    4    0    0 -0.45579573297E+02  0.54857876429E+02 -0.64754020434E+02  0.96332586753E+02  0.00000000000E+00 0.  1.
</event>
<event>
12    1  0.9966151E-001  0.2000532E+03  0.7818608E-02  0.1149751E+00
         21   -1    0    0  503  502  0.00000000000E+00  0.00000000000E+00  0.51210698779E+03  0.51210698779E+03  0.00000000000E+00 0.  1.
         21   -1    0    0  501  503 -0.00000000000E+00 -0.00000000000E+00 -0.13104886547E+03  0.13104886547E+03  0.00000000000E+00 0.  1.
          6    2    1    2  501    0 -0.31137716693E+01  0.10293309593E+03  0.39496665135E+03  0.44261974110E+03  0.17119772698E+03 0.  0.
         24    2    3    3    0    0 -0.26441047467E+02 -0.46225200188E+00  0.21557511290E+03  0.23420147454E+03  0.87626244394E+02 0.  0.
         -6    2    1    2    0  502  0.31137716693E+01 -0.10293309593E+03 -0.13908529036E+02  0.20053611216E+03  0.17151200334E+03 0.  0.
        -24    2    5    5    0    0 -0.55257021386E+02 -0.66460643846E+02 -0.36691092886E+02  0.12788265761E+03  0.86818098499E+02 0.  0.
          5    1    3    3  501    0  0.23327275798E+02  0.10339534793E+03  0.17939153845E+03  0.20841826657E+03  0.47000000000E+01 0. -1.
        -13    1    4    4    0    0 -0.18805830281E+02  0.40792583693E+02  0.74247840951E+02  0.86778084922E+02  0.00000000000E+00 0.  1.
         14    1    4    4    0    0 -0.76352171861E+01 -0.41254835695E+02  0.14132727194E+03  0.14742338961E+03  0.00000000000E+00 0. -1.
         -5    1    5    5    0  502  0.58370793055E+02 -0.36472452083E+02  0.22782563849E+02  0.72653454552E+02  0.47000000000E+01 0.  1.
         11    1    6    6    0    0  0.15262461692E+02 -0.22201880160E+02  0.14045999204E+02  0.30383487508E+02  0.00000000000E+00 0. -1.
        -12    1    6    6    0    0 -0.70519483077E+02 -0.44258763687E+02 -0.50737092090E+02  0.97499170100E+02  0.00000000000E+00 0.  1.
</event>
<event>
12    1  0.9966151E-001  0.3190163E+03  0.7818608E-02  0.1076145E+00
         21   -1    0    0  503  502  0.00000000000E+00  0.00000000000E+00  0.17641660126E+03  0.17641660126E+03  0.00000000000E+00 0.  1.
         21   -1    0    0  501  503 -0.00000000000E+00 -0.00000000000E+00 -0.63805879399E+03  0.63805879399E+03  0.00000000000E+00 0.  1.
          6    2    1    2  501    0  0.25114977985E+03 -0.93942102418E+02 -0.10416960769E+03  0.33559308516E+03  0.17282963031E+03 0.  0.
         24    2    3    3    0    0  0.15798965176E+03 -0.23136140295E+02  0.24568158181E+01  0.17721512606E+03  0.76831984933E+02 0.  0.
         -6    2    1    2    0  502 -0.25114977985E+03  0.93942102418E+02 -0.35747258505E+03  0.47888231009E+03  0.17216354821E+03 0.  0.
        -24    2    5    5    0    0 -0.26771150304E+03  0.94029980618E+02 -0.30746020091E+03  0.42598971170E+03  0.80152187814E+02 0.  0.
          5    1    3    3  501    0  0.93160128085E+02 -0.70805962124E+02 -0.10662642351E+03  0.15837795909E+03  0.47000000000E+01 0. -1.
        -13    1    4    4    0    0  0.23910949884E+01  0.30887707484E+01 -0.17712624287E+02  0.18138216536E+02  0.00000000000E+00 0.  1.
         14    1    4    4    0    0  0.15559855678E+03 -0.26224911043E+02  0.20169440105E+02  0.15907690952E+03  0.00000000000E+00 0. -1.
         -5    1    5    5    0  502  0.16561723194E+02 -0.87878199274E-01 -0.50012384139E+02  0.52892598395E+02  0.47000000000E+01 0.  1.
         11    1    6    6    0    0 -0.22315909588E+03  0.85700829615E+02 -0.29356578783E+03  0.37858352586E+03  0.00000000000E+00 0. -1.
        -12    1    6    6    0    0 -0.44552407166E+02  0.83291510026E+01 -0.13894413082E+02  0.47406185837E+02  0.00000000000E+00 0.  1.
</event>
<event>
12    1  0.9966151E-001  0.1749447E+03  0.7818608E-02  0.1173369E+00
         21   -1    0    0  501  502  0.00000000000E+00  0.00000000000E+00  0.65680196431E+02  0.65680196431E+02  0.00000000000E+00 0.  1.
         21   -1    0    0  502  503 -0.00000000000E+00 -0.00000000000E+00 -0.46041024558E+03  0.46041024558E+03  0.00000000000E+00 0.  1.
         -6    2    1    2    0  503  0.29246820216E+02  0.96687744527E+01 -0.18970973273E+03  0.25806087719E+03  0.17221141644E+03 0.  0.
        -24    2    3    3    0    0 -0.16562368927E+02  0.58473716360E+02 -0.83770479944E+02  0.13265904528E+03  0.82990610410E+02 0.  0.
          6    2    1    2  501    0 -0.29246820216E+02 -0.96687744527E+01 -0.20502031641E+03  0.26802956481E+03  0.16987541253E+03 0.  0.
         24    2    5    5    0    0 -0.37022944464E+02  0.60886052118E+02 -0.91375578279E+02  0.13395619622E+03  0.67208306338E+02 0.  0.
          5    1    5    5  501    0  0.77761242480E+01 -0.70554826571E+02 -0.11364473813E+03  0.13407336859E+03  0.47000000000E+01 0. -1.
        -11    1    6    6    0    0 -0.23166741926E+02  0.63595165946E+02 -0.35706132339E+02  0.76524316069E+02  0.00000000000E+00 0.  1.
         12    1    6    6    0    0 -0.13856202539E+02 -0.27091138280E+01 -0.55669445940E+02  0.57431880152E+02  0.00000000000E+00 0. -1.
         -5    1    3    3    0  503  0.45809189144E+02 -0.48804941907E+02 -0.10593925279E+03  0.12540183191E+03  0.47000000000E+01 0.  1.
         11    1    4    4    0    0  0.29740060244E+02  0.43069696375E+02 -0.31210168812E+02  0.60938859248E+02  0.00000000000E+00 0. -1.
        -12    1    4    4    0    0 -0.46302429171E+02  0.15404019985E+02 -0.52560311132E+02  0.71720186037E+02  0.00000000000E+00 0.  1.
</event>
<event>
12    1  0.9966151E-001  0.1982822E+03  0.7818608E-02  0.1151265E+00
         21   -1    0    0  503  502  0.00000000000E+00  0.00000000000E+00  0.80812919887E+02  0.80812919887E+02  0.00000000000E+00 0.  1.
         21   -1    0    0  501  503 -0.00000000000E+00 -0.00000000000E+00 -0.53432426862E+03  0.53432426862E+03  0.00000000000E+00 0.  1.
          6    2    1    2  501    0 -0.61665260512E+02  0.73541839566E+02 -0.13415603723E+03  0.23940275294E+03  0.17350743289E+03 0.  0.
         24    2    3    3    0    0  0.54270712098E+01 -0.53622189645E+01 -0.14825446354E+02  0.81323306626E+02  0.79595727566E+02 0.  0.
         -6    2    1    2    0  502  0.61665260512E+02 -0.73541839566E+02 -0.31935531150E+03  0.37573443556E+03  0.17314024537E+03 0.  0.
        -24    2    5    5    0    0 -0.18208457813E+02 -0.61204799739E+02 -0.10506718108E+03  0.14666347217E+03  0.79959277652E+02 0.  0.
          5    1    3    3  501    0 -0.67092331721E+02  0.78904058530E+02 -0.11933059088E+03  0.15807944631E+03  0.47000000000E+01 0. -1.
        -13    1    4    4    0    0  0.36899194458E+02 -0.14606957227E+02  0.91096236074E+01  0.40717305821E+02  0.00000000000E+00 0.  1.
         14    1    4    4    0    0 -0.31472123248E+02  0.92447382621E+01 -0.23935069962E+02  0.40606000805E+02  0.00000000000E+00 0. -1.
         -5    1    5    5    0  502  0.79873718324E+02 -0.12337039827E+02 -0.21428813042E+03  0.22907096339E+03  0.47000000000E+01 0.  1.
         11    1    6    6    0    0  0.22152700413E+02 -0.36133385196E+01 -0.29007614237E+01  0.22632118056E+02  0.00000000000E+00 0. -1.
        -12    1    6    6    0    0 -0.40361158226E+02 -0.57591461219E+02 -0.10216641966E+03  0.12403135412E+03  0.00000000000E+00 0.  1.
</event>
<event>
12    1  0.9966151E-001  0.3284650E+03  0.7818608E-02  0.1071871E+00
         21   -1    0    0  503  502  0.00000000000E+00  0.00000000000E+00  0.70250925287E+02  0.70250925287E+02  0.00000000000E+00 0.  1.
         21   -1    0    0  501  503 -0.00000000000E+00 -0.00000000000E+00 -0.16602822676E+04  0.16602822676E+04  0.00000000000E+00 0.  1.
          6    2    1    2  501    0 -0.26049837108E+03 -0.10076536134E+03 -0.55649274147E+03  0.64619921572E+03  0.17284731905E+03 0.  0.
         24    2    3    3    0    0 -0.14997340044E+03 -0.10690458736E+03 -0.25197533029E+03  0.32215230099E+03  0.79811818172E+02 0.  0.
         -6    2    1    2    0  502  0.26049837108E+03  0.10076536134E+03 -0.10335386009E+04  0.10843339772E+04  0.17194497735E+03 0.  0.
        -24    2    5    5    0    0  0.21056226312E+03  0.28618945372E+02 -0.86308712491E+03  0.89256715037E+03  0.81247904871E+02 0.  0.
          5    1    3    3  501    0 -0.11052497064E+03  0.61392260193E+01 -0.30451741118E+03  0.32404691473E+03  0.47000000000E+01 0. -1.
        -13    1    4    4    0    0 -0.63650127055E+02 -0.59330201891E+02 -0.18056584547E+03  0.20043811035E+03  0.00000000000E+00 0.  1.
         14    1    4    4    0    0 -0.86323273387E+02 -0.47574385473E+02 -0.71409484820E+02  0.12171419064E+03  0.00000000000E+00 0. -1.
         -5    1    5    5    0  502  0.49936107959E+02  0.72146415973E+02 -0.17045147598E+03  0.19176682685E+03  0.47000000000E+01 0.  1.
         13    1    6    6    0    0  0.89031435946E+02  0.34502600228E+02 -0.25196190187E+03  0.26944726015E+03  0.00000000000E+00 0. -1.
        -14    1    6    6    0    0  0.12153082718E+03 -0.58836548560E+01 -0.61112522304E+03  0.62311989021E+03  0.00000000000E+00 0.  1.
</event>
<event>
12    1  0.9966151E-001  0.4453725E+03  0.7818608E-02  0.1029124E+00
         21   -1    0    0  501  502  0.00000000000E+00  0.00000000000E+00  0.21900342789E+03  0.21900342789E+03  0.00000000000E+00 0. -1.
         21   -1    0    0  502  503 -0.00000000000E+00 -0.00000000000E+00 -0.22254225897E+04  0.22254225897E+04  0.00000000000E+00 0.  1.
         -6    2    1    2    0  503 -0.21138104075E+03  0.35197733589E+03 -0.61971911825E+02  0.44966336622E+03  0.17258805202E+03 0.  0.
        -24    2    3    3    0    0 -0.20810116354E+03  0.36750608278E+03 -0.58718906347E+02  0.43279411552E+03  0.74135155772E+02 0.  0.
          6    2    1    2  501    0  0.21138104075E+03 -0.35197733589E+03 -0.19444472500E+04  0.19947626513E+04  0.17214220265E+03 0.  0.
         24    2    5    5    0    0  0.31579757831E+02 -0.10413408017E+03 -0.47725159326E+03  0.49594979918E+03  0.79724101027E+02 0.  0.
          5    1    5    5  501    0  0.17980128292E+03 -0.24784325572E+03 -0.14671956567E+04  0.14988128522E+04  0.47000000000E+01 0. -1.
        -13    1    6    6    0    0  0.43456303633E+01 -0.33379328676E+02 -0.40479392161E+02  0.52646417502E+02  0.00000000000E+00 0.  1.
         14    1    6    6    0    0  0.27234127468E+02 -0.70754751497E+02 -0.43677220110E+03  0.44330338168E+03  0.00000000000E+00 0. -1.
         -5    1    3    3    0  503 -0.32798772117E+01 -0.15528746891E+02 -0.32530054774E+01  0.16869250700E+02  0.47000000000E+01 0.  1.
         13    1    4    4    0    0 -0.12135225948E+03  0.24856601933E+03 -0.67934490564E+01  0.27669041869E+03  0.00000000000E+00 0. -1.
        -14    1    4    4    0    0 -0.86748904060E+02  0.11894006345E+03 -0.51925457291E+02  0.15610369683E+03  0.00000000000E+00 0.  1.
</event>
<event>
12    1  0.9966151E-001  0.2843293E+03  0.7818608E-02  0.1093471E+00
         21   -1    0    0  501  502  0.00000000000E+00  0.00000000000E+00  0.89497663009E+02  0.89497663009E+02  0.00000000000E+00 0. -1.
         21   -1    0    0  502  503 -0.00000000000E+00 -0.00000000000E+00 -0.14794437681E+04  0.14794437681E+04  0.00000000000E+00 0. -1.
         -6    2    1    2    0  503 -0.74771005451E+02  0.21290767361E+03 -0.11864374744E+04  0.12200315674E+04  0.17298197650E+03 0.  0.
        -24    2    3    3    0    0 -0.20747617179E+02  0.32944832959E+02 -0.51506266119E+03  0.52284337170E+03  0.80992720278E+02 0.  0.
          6    2    1    2  501    0  0.74771005451E+02 -0.21290767361E+03 -0.20350863066E+03  0.34890986363E+03  0.17146996659E+03 0.  0.
         24    2    5    5    0    0  0.75399067869E+02 -0.18215243516E+03 -0.22596964130E+03  0.31053192527E+03  0.80642846862E+02 0.  0.
          5    1    5    5  501    0 -0.62806241743E+00 -0.30755238444E+02  0.22461010633E+02  0.38377938360E+02  0.47000000000E+01 0. -1.
        -11    1    6    6    0    0  0.33486027759E+02 -0.52559806481E+02 -0.23690023104E+02  0.66671316974E+02  0.00000000000E+00 0.  1.
         12    1    6    6    0    0  0.41913040110E+02 -0.12959262868E+03 -0.20227961819E+03  0.24386060829E+03  0.00000000000E+00 0. -1.
         -5    1    3    3    0  503 -0.54023388272E+02  0.17996284065E+03 -0.67137481320E+03  0.69718819575E+03  0.47000000000E+01 0.  1.
         11    1    4    4    0    0 -0.44761573211E+02  0.18906441040E+02 -0.44203168541E+03  0.44469434767E+03  0.00000000000E+00 0. -1.
        -12    1    4    4    0    0  0.24013956032E+02  0.14038391919E+02 -0.73030975782E+02  0.78149024022E+02  0.00000000000E+00 0.  1.
</event>
<event>
12    1  0.9966151E-001  0.1751679E+03  0.7818608E-02  0.1172564E+00
         21   -1    0    0  501  502  0.00000000000E+00  0.00000000000E+00  0.84009704740E+02  0.84009704740E+02  0.00000000000E+00 0.  1.
         21   -1    0    0  502  503 -0.00000000000E+00 -0.00000000000E+00 -0.43684832070E+03  0.43684832070E+03  0.00000000000E+00 0.  1.
         -6    2    1    2    0  503 -0.29660932122E+02  0.15347302835E+02 -0.70971785481E+02  0.18899552291E+03  0.17195058228E+03 0.  0.
        -24    2    3    3    0    0 -0.48491165428E+00  0.73593935495E+02 -0.53285407427E+02  0.12132863030E+03  0.80405220008E+02 0.  0.
          6    2    1    2  501    0  0.29660932122E+02 -0.15347302835E+02 -0.28186683048E+03  0.33186250253E+03  0.17195493556E+03 0.  0.
         24    2    5    5    0    0  0.60988510388E+02  0.36602311275E+02 -0.16698234583E+03  0.20185975495E+03  0.88345510690E+02 0.  0.
          5    1    5    5  501    0 -0.31327578266E+02 -0.51949614109E+02 -0.11488448464E+03  0.13000274758E+03  0.47000000000E+01 0. -1.
        -11    1    6    6    0    0  0.65623509005E+02  0.31792748262E+02 -0.59347387869E+02  0.94017744192E+02  0.00000000000E+00 0.  1.
         12    1    6    6    0    0 -0.46349986166E+01  0.48095630127E+01 -0.10763495797E+03  0.10784201076E+03  0.00000000000E+00 0. -1.
         -5    1    3    3    0  503 -0.29176020468E+02 -0.58246632661E+02 -0.17686378054E+02  0.67666892609E+02  0.47000000000E+01 0.  1.
         11    1    4    4    0    0 -0.32428889468E+02  0.10894060731E+02 -0.20257416703E+01  0.34269768903E+02  0.00000000000E+00 0. -1.
        -12    1    4    4    0    0  0.31943977814E+02  0.62699874764E+02 -0.51259665757E+02  0.87058861395E+02  0.00000000000E+00 0.  1.
</event>
<event>
12    1  0.9966151E-001  0.2008230E+03  0.7818608E-02  0.1149244E+00
         21   -1    0    0  501  502  0.00000000000E+00  0.00000000000E+00  0.84063782975E+03  0.84063782975E+03  0.00000000000E+00 0.  1.
         21   -1    0    0  502  503 -0.00000000000E+00 -0.00000000000E+00 -0.10341470959E+03  0.10341470959E+03  0.00000000000E+00 0.  1.
         -6    2    1    2    0  503 -0.90596193807E+02 -0.46657569240E+02  0.71451859633E+03  0.74195019941E+03  0.17195544422E+03 0.  0.
        -24    2    3    3    0    0  0.70402904860E+01  0.15245292427E+02  0.34835012720E+03  0.35793680754E+03  0.80554096361E+02 0.  0.
          6    2    1    2  501    0  0.90596193807E+02  0.46657569240E+02  0.22704523827E+02  0.20210233992E+03  0.17304699160E+03 0.  0.
         24    2    5    5    0    0  0.82500069476E+02 -0.31850203390E+02  0.77112609098E+01  0.12162932876E+03  0.83147658719E+02 0.  0.
          5    1    5    5  501    0  0.80961243318E+01  0.78507772630E+02  0.14993262918E+02  0.80473011162E+02  0.47000000000E+01 0. -1.
        -11    1    6    6    0    0  0.60272291250E+02  0.20937797129E+02 -0.22003356464E+00  0.63805868507E+02  0.00000000000E+00 0.  1.
         12    1    6    6    0    0  0.22227778226E+02 -0.52788000520E+02  0.79312944744E+01  0.57823460254E+02  0.00000000000E+00 0. -1.
         -5    1    3    3    0  503 -0.97636484293E+02 -0.61902861667E+02  0.36616846913E+03  0.38401339187E+03  0.47000000000E+01 0.  1.
         13    1    4    4    0    0  0.34991151600E+02 -0.66146458450E+01  0.84297788315E+02  0.91510935657E+02  0.00000000000E+00 0. -1.
        -14    1    4    4    0    0 -0.27950861114E+02  0.21859938272E+02  0.26405233888E+03  0.26642587188E+03  0.00000000000E+00 0.  1.
</event>
<event>
12    1  0.1051567E+000  0.1808785E+03  0.7818608E-02  0.1168669E+00
         21   -1    0    0  501  502  0.00000000000E+00  0.00000000000E+00  0.52918304757E+03  0.52918304757E+03  0.00000000000E+00 0. -1.
         21   -1    0    0  502  503 -0.00000000000E+00 -0.00000000000E+00 -0.16162694022E+03  0.16162694022E+03  0.00000000000E+00 0. -1.
         -6    2    1    2    0  503 -0.21690636789E+02 -0.19362965420E+02  0.45970101311E+03  0.49400613896E+03  0.17852628859E+03 0.  0.
        -24    2    3    3    0    0 -0.31162109031E+02  0.52217869959E+02  0.17113349479E+03  0.19650516852E+03  0.75032161332E+02 0.  0.
          6    2    1    2  501    0  0.21690636789E+02  0.19362965420E+02 -0.92144905766E+02  0.19680384883E+03  0.17145163488E+03 0.  0.
         24    2    5    5    0    0  0.50709783474E+02  0.50229861794E+02 -0.14651238107E+02  0.10836045059E+03  0.80204783632E+02 0.  0.
          5    1    5    5  501    0 -0.29019146685E+02 -0.30866896374E+02 -0.77493667659E+02  0.88443398246E+02  0.47000000000E+01 0. -1.
        -11    1    6    6    0    0  0.32314531083E+02 -0.47284444076E+00 -0.37742792531E+02  0.49688740063E+02  0.00000000000E+00 0.  1.
         12    1    6    6    0    0  0.18395252391E+02  0.50702706235E+02  0.23091554424E+02  0.58671710524E+02  0.00000000000E+00 0. -1.
         -5    1    3    3    0  503  0.94714722417E+01 -0.71580835380E+02  0.28856751832E+03  0.29750097044E+03  0.47000000000E+01 0.  1.
         13    1    4    4    0    0  0.13424523451E+02  0.26510464348E+02  0.17512771837E+02  0.34492314032E+02  0.00000000000E+00 0. -1.
        -14    1    4    4    0    0 -0.44586632482E+02  0.25707405611E+02  0.15362072295E+03  0.16201285449E+03  0.00000000000E+00 0.  1.
</event>
<event>
12    1  0.9966151E-001  0.1874317E+03  0.7818608E-02  0.1163588E+00
         21   -1    0    0  501  502  0.00000000000E+00  0.00000000000E+00  0.12981360277E+03  0.12981360277E+03  0.00000000000E+00 0.  1.
         21   -1    0    0  502  503 -0.00000000000E+00 -0.00000000000E+00 -0.29083272504E+03  0.29083272504E+03  0.00000000000E+00 0.  1.
         -6    2    1    2    0  503  0.64327333478E+02  0.14651206991E+02 -0.15311526580E+03  0.23304804628E+03  0.16283256296E+03 0.  0.
        -24    2    3    3    0    0  0.10308791127E+03  0.28710203350E+02 -0.12540884848E+03  0.18315041778E+03  0.79782849229E+02 0.  0.
          6    2    1    2  501    0 -0.64327333478E+02 -0.14651206991E+02 -0.79038564730E+01  0.18759828152E+03  0.17543654290E+03 0.  0.
         24    2    5    5    0    0 -0.10074133349E+03 -0.36257521384E+01  0.30905962475E+02  0.13304709365E+03  0.81144243548E+02 0.  0.
          5    1    5    5  501    0  0.36414000007E+02 -0.11025454853E+02 -0.38809818948E+02  0.54551187870E+02  0.47000000000E+01 0. -1.
        -13    1    6    6    0    0 -0.89058662939E+02 -0.34210087598E+02  0.30980406284E+02  0.10030733329E+03  0.00000000000E+00 0.  1.
         14    1    6    6    0    0 -0.11682670546E+02  0.30584335460E+02 -0.74443809117E-01  0.32739760361E+02  0.00000000000E+00 0. -1.
         -5    1    3    3    0  503 -0.38760577793E+02 -0.14058996359E+02 -0.27706417318E+02  0.49897628501E+02  0.47000000000E+01 0.  1.
         11    1    4    4    0    0  0.47101304789E+02  0.84279539121E+00 -0.10862249085E+03  0.11839800984E+03  0.00000000000E+00 0. -1.
        -12    1    4    4    0    0  0.55986606483E+02  0.27867407958E+02 -0.16786357632E+02  0.64752407942E+02  0.00000000000E+00 0.  1.
</event>
<event>
12    1  0.9966151E-001  0.2434872E+03  0.7818608E-02  0.1117519E+00
         21   -1    0    0  501  502  0.00000000000E+00  0.00000000000E+00  0.11057259632E+04  0.11057259632E+04  0.00000000000E+00 0.  1.
         21   -1    0    0  502  503 -0.00000000000E+00 -0.00000000000E+00 -0.57999411235E+02  0.57999411235E+02  0.00000000000E+00 0.  1.
         -6    2    1    2    0  503  0.14567511627E+03  0.92564686383E+02  0.68465497300E+03  0.72666253286E+03  0.17174557910E+03 0.  0.
        -24    2    3    3    0    0  0.17995103691E+02  0.55781533452E+00  0.31217404676E+03  0.32227215174E+03  0.77990828940E+02 0.  0.
          6    2    1    2  501    0 -0.14567511627E+03 -0.92564686383E+02  0.36307157898E+03  0.43706284159E+03  0.17150363077E+03 0.  0.
         24    2    5    5    0    0 -0.41599142780E+02 -0.19327279869E+02  0.25137056662E+03  0.26766764646E+03  0.79716841193E+02 0.  0.
          5    1    5    5  501    0 -0.10407597349E+03 -0.73237406514E+02  0.11170101236E+03  0.16939519513E+03  0.47000000000E+01 0. -1.
        -13    1    6    6    0    0 -0.48469497305E+02 -0.18006847903E+02  0.25471722370E+03  0.25991229827E+03  0.00000000000E+00 0.  1.
         14    1    6    6    0    0  0.68703545244E+01 -0.13204319658E+01 -0.33466570839E+01  0.77553481872E+01  0.00000000000E+00 0. -1.
         -5    1    3    3    0  503  0.12768001258E+03  0.92006871049E+02  0.37248092624E+03  0.40439038112E+03  0.47000000000E+01 0.  1.
         13    1    4    4    0    0  0.25235038084E+02  0.29948007146E+02  0.25080783026E+03  0.25384691843E+03  0.00000000000E+00 0. -1.
        -14    1    4    4    0    0 -0.72399343930E+01 -0.29390191811E+02  0.61366216504E+02  0.68425233304E+02  0.00000000000E+00 0.  1.
</event>
<event>
12    1  0.9966151E-001  0.1742347E+03  0.7818608E-02  0.1174004E+00
         21   -1    0    0  503  502  0.00000000000E+00  0.00000000000E+00  0.85125565935E+02  0.85125565935E+02  0.00000000000E+00 0.  1.
         21   -1    0    0  501  503 -0.00000000000E+00 -0.00000000000E+00 -0.46842649918E+03  0.46842649918E+03  0.00000000000E+00 0.  1.
          6    2    1    2  501    0 -0.13124879554E+02  0.11557734762E+02 -0.54841185348E+02  0.18266170146E+03  0.17335483228E+03 0.  0.
         24    2    3    3    0    0  0.41222441090E+02 -0.40488989743E+02 -0.39056753633E+02  0.10563098631E+03  0.79333645598E+02 0.  0.
         -6    2    1    2    0  502  0.13124879554E+02 -0.11557734762E+02 -0.32845974790E+03  0.37089036365E+03  0.17137097819E+03 0.  0.
        -24    2    5    5    0    0  0.42221902197E+02 -0.63240955450E+02 -0.18510066850E+03  0.21567532677E+03  0.80445519635E+02 0.  0.
          5    1    3    3  501    0 -0.54347320645E+02  0.52046724504E+02 -0.15784431715E+02  0.77030715156E+02  0.47000000000E+01 0. -1.
        -13    1    4    4    0    0 -0.72011742907E+01  0.17239572689E+02  0.36274882061E+01  0.19032037419E+02  0.00000000000E+00 0.  1.
         14    1    4    4    0    0  0.48423615381E+02 -0.57728562431E+02 -0.42684241839E+02  0.86598948887E+02  0.00000000000E+00 0. -1.
         -5    1    5    5    0  502 -0.29097022643E+02  0.51683220688E+02 -0.14335907940E+03  0.15521503688E+03  0.47000000000E+01 0.  1.
         13    1    6    6    0    0  0.18041506811E+02 -0.58479379141E+02 -0.51986467389E+02  0.80298982212E+02  0.00000000000E+00 0. -1.
        -14    1    6    6    0    0  0.24180395386E+02 -0.47615763088E+01 -0.13311420111E+03  0.13537634456E+03  0.00000000000E+00 0.  1.
</event>
<event>
12    1  0.9966151E-001  0.4746637E+03  0.7818608E-02  0.1020619E+00
         21   -1    0    0  503  502  0.00000000000E+00  0.00000000000E+00  0.96886146559E+03  0.96886146559E+03  0.00000000000E+00 0.  1.
         21   -1    0    0  501  503 -0.00000000000E+00 -0.00000000000E+00 -0.39359823019E+03  0.39359823019E+03  0.00000000000E+00 0.  1.
          6    2    1    2  501    0 -0.54923696547E+02 -0.43944865097E+03  0.72347589751E+03  0.86528781726E+03  0.17080369765E+03 0.  0.
         24    2    3    3    0    0  0.14939955066E+02 -0.26897186827E+03  0.35001330107E+03  0.44882693770E+03  0.79794992985E+02 0.  0.
         -6    2    1    2    0  502  0.54923696547E+02  0.43944865097E+03 -0.14821266211E+03  0.49717187852E+03  0.17053197442E+03 0.  0.
        -24    2    5    5    0    0  0.34705764084E+02  0.13143838226E+03 -0.81365633494E+01  0.15816967519E+03  0.80441929942E+02 0.  0.
          5    1    3    3  501    0 -0.69863651613E+02 -0.17047678270E+03  0.37346259645E+03  0.41646087956E+03  0.47000000000E+01 0. -1.
        -11    1    4    4    0    0  0.41864435682E+02 -0.17601035758E+03  0.25929909187E+03  0.31617763361E+03  0.00000000000E+00 0.  1.
         12    1    4    4    0    0 -0.26924480616E+02 -0.92961510688E+02  0.90714209200E+02  0.13264930409E+03  0.00000000000E+00 0. -1.
         -5    1    5    5    0  502  0.20217932462E+02  0.30801026870E+03 -0.14007609876E+03  0.33900220333E+03  0.47000000000E+01 0.  1.
         11    1    6    6    0    0  0.38332917239E+01  0.12559074562E+03 -0.13208435296E+02  0.12634156985E+03  0.00000000000E+00 0. -1.
        -12    1    6    6    0    0  0.30872472360E+02  0.58476366452E+01  0.50718719470E+01  0.31828105332E+02  0.00000000000E+00 0.  1.
</event>
<event>
12    1  0.9966151E-001  0.1902551E+03  0.7818608E-02  0.1158350E+00
         21   -1    0    0  503  502  0.00000000000E+00  0.00000000000E+00  0.36648615768E+03  0.36648615768E+03  0.00000000000E+00 0.  1.
         21   -1    0    0  501  503 -0.00000000000E+00 -0.00000000000E+00 -0.12415419786E+03  0.12415419786E+03  0.00000000000E+00 0.  1.
          6    2    1    2  501    0 -0.75147589810E+02  0.31652746324E+02  0.95057167859E+01  0.18996598714E+03  0.17131159043E+03 0.  0.
         24    2    3    3    0    0 -0.72013111566E+02  0.58403134637E+01 -0.54407291205E+02  0.12080625005E+03  0.80087447312E+02 0.  0.
         -6    2    1    2    0  502  0.75147589810E+02 -0.31652746324E+02  0.23282624303E+03  0.30067436840E+03  0.17189519994E+03 0.  0.
        -24    2    5    5    0    0  0.20392257149E+02  0.47697886993E+02  0.12616178714E+03  0.15682004760E+03  0.77361477612E+02 0.  0.
          5    1    3    3  501    0 -0.31344782433E+01  0.25812432861E+02  0.63913007991E+02  0.69159737091E+02  0.47000000000E+01 0. -1.
        -11    1    4    4    0    0 -0.13029104239E+01 -0.24569253596E+02 -0.32528263009E+02  0.40785214137E+02  0.00000000000E+00 0.  1.
         12    1    4    4    0    0 -0.70710201142E+02  0.30409567059E+02 -0.21879028196E+02  0.80021035916E+02  0.00000000000E+00 0. -1.
         -5    1    5    5    0  502  0.54755332661E+02 -0.79350633317E+02  0.10666445589E+03  0.14385432080E+03  0.47000000000E+01 0.  1.
         13    1    6    6    0    0  0.32830172137E+02  0.38193145917E+00  0.90520065809E+02  0.96290437678E+02  0.00000000000E+00 0. -1.
        -14    1    6    6    0    0 -0.12437914988E+02  0.47315955534E+02  0.35641721331E+02  0.60529609918E+02  0.00000000000E+00 0.  1.
</event>
<event>
12    1  0.9966151E-001  0.2069380E+03  0.7818608E-02  0.1144114E+00
         21   -1    0    0  501  502  0.00000000000E+00  0.00000000000E+00  0.11597294087E+03  0.11597294087E+03  0.00000000000E+00 0.  1.
         21   -1    0    0  502  503 -0.00000000000E+00 -0.00000000000E+00 -0.75807761484E+03  0.75807761484E+03  0.00000000000E+00 0.  1.
         -6    2    1    2    0  503  0.87031941573E+02  0.75585012003E+02 -0.75241617115E+01  0.20658089297E+03  0.17126412187E+03 0.  0.
        -24    2    3    3    0    0  0.56201199589E+02  0.38600055206E+02 -0.74213485910E+02  0.12419170896E+03  0.72576855717E+02 0.  0.
          6    2    1    2  501    0 -0.87031941573E+02 -0.75585012003E+02 -0.63458051226E+03  0.66746966274E+03  0.17185945203E+03 0.  0.
         24    2    5    5    0    0 -0.48618791379E+02  0.20413961267E+02 -0.39636239178E+03  0.40773646136E+03  0.79783203838E+02 0.  0.
          5    1    5    5  501    0 -0.38413150194E+02 -0.95998973270E+02 -0.23821812048E+03  0.25973320139E+03  0.47000000000E+01 0. -1.
        -13    1    6    6    0    0  0.15397135358E+02 -0.14558980602E+02 -0.12282624050E+03  0.12464076800E+03  0.00000000000E+00 0.  1.
         14    1    6    6    0    0 -0.64015926738E+02  0.34972941869E+02 -0.27353615128E+03  0.28309569335E+03  0.00000000000E+00 0. -1.
         -5    1    3    3    0  503  0.30830741985E+02  0.36984956797E+02  0.66689324199E+02  0.82389184015E+02  0.47000000000E+01 0.  1.
         11    1    4    4    0    0  0.70632230571E+02  0.36579129704E+02 -0.44613416417E+02  0.91199241498E+02  0.00000000000E+00 0. -1.
        -12    1    4    4    0    0 -0.14431030982E+02  0.20209255023E+01 -0.29600069493E+02  0.32992467460E+02  0.00000000000E+00 0.  1.
</event>
<event>
12    1  0.9966151E-001  0.1748835E+03  0.7818608E-02  0.1173645E+00
         21   -1    0    0  501  502  0.00000000000E+00  0.00000000000E+00  0.53394277824E+03  0.53394277824E+03  0.00000000000E+00 0.  1.
         21   -1    0    0  502  503 -0.00000000000E+00 -0.00000000000E+00 -0.92680996147E+02  0.92680996147E+02  0.00000000000E+00 0.  1.
         -6    2    1    2    0  503  0.37609328303E+02  0.39294516216E+01  0.41582966840E+03  0.44990071141E+03  0.16753039975E+03 0.  0.
        -24    2    3    3    0    0  0.65403827160E+02 -0.32269484211E+02  0.18174343320E+03  0.21136066733E+03  0.79521544015E+02 0.  0.
          6    2    1    2  501    0 -0.37609328303E+02 -0.39294516216E+01  0.25432113697E+02  0.17672306298E+03  0.17074643896E+03 0.  0.
         24    2    5    5    0    0  0.30480745456E+02 -0.30112383614E+02  0.45038108069E+02  0.10103760145E+03  0.79651329162E+02 0.  0.
          5    1    5    5  501    0 -0.68090073759E+02  0.26182931993E+02 -0.19605994372E+02  0.75685461533E+02  0.47000000000E+01 0. -1.
        -11    1    6    6    0    0  0.12676869636E+02 -0.56200572017E+02  0.20902752426E+02  0.61287293771E+02  0.00000000000E+00 0.  1.
         12    1    6    6    0    0  0.17803875820E+02  0.26088188403E+02  0.24135355642E+02  0.39750307676E+02  0.00000000000E+00 0. -1.
         -5    1    3    3    0  503 -0.27794498858E+02  0.36198935833E+02  0.23408623519E+03  0.23854004408E+03  0.47000000000E+01 0.  1.
         11    1    4    4    0    0 -0.95530861316E+01 -0.28814004090E+02  0.74738398692E+02  0.80668063851E+02  0.00000000000E+00 0. -1.
        -12    1    4    4    0    0  0.74956913292E+02 -0.34554801210E+01  0.10700503451E+03  0.13069260348E+03  0.00000000000E+00 0.  1.
</event>
<event>
12    1  0.9966151E-001  0.2303913E+03  0.7818608E-02  0.1126669E+00
         21   -1    0    0  503  502  0.00000000000E+00  0.00000000000E+00  0.91854725259E+02  0.91854725259E+02  0.00000000000E+00 0.  1.
         21   -1    0    0  501  503 -0.00000000000E+00 -0.00000000000E+00 -0.66118555329E+03  0.66118555329E+03  0.00000000000E+00 0.  1.
          6    2    1    2  501    0  0.14481384793E+03 -0.47678757577E+02 -0.42267259971E+03  0.48138578919E+03  0.17273053296E+03 0.  0.
         24    2    3    3    0    0  0.52090071976E+01 -0.25016989296E+02 -0.11961162004E+03  0.14691439326E+03  0.81387442460E+02 0.  0.
         -6    2    1    2    0  502 -0.14481384793E+03  0.47678757577E+02 -0.14665822832E+03  0.27165448936E+03  0.17042068882E+03 0.  0.
        -24    2    5    5    0    0 -0.81929472729E+02 -0.34742067544E+02 -0.48529689267E+02  0.12882964126E+03  0.79514124327E+02 0.  0.
          5    1    3    3  501    0  0.13960484073E+03 -0.22661768282E+02 -0.30306097967E+03  0.33447139592E+03  0.47000000000E+01 0. -1.
        -13    1    4    4    0    0 -0.12018801549E+02 -0.51241519285E+02 -0.62130092143E+02  0.81426612597E+02  0.00000000000E+00 0.  1.
         14    1    4    4    0    0  0.17227808747E+02  0.26224529989E+02 -0.57481527897E+02  0.65487780667E+02  0.00000000000E+00 0. -1.
         -5    1    5    5    0  502 -0.62884375196E+02  0.82420825122E+02 -0.98128539057E+02  0.14282484810E+03  0.47000000000E+01 0.  1.
         11    1    6    6    0    0 -0.45713947975E+02 -0.24495619165E+01 -0.63290930313E+02  0.78112145361E+02  0.00000000000E+00 0. -1.
        -12    1    6    6    0    0 -0.36215524755E+02 -0.32292505628E+02  0.14761241045E+02  0.50717495898E+02  0.00000000000E+00 0.  1.
</event>
<event>
12    1  0.9966151E-001  0.3256840E+03  0.7818608E-02  0.1073227E+00
         21   -1    0    0  503  502  0.00000000000E+00  0.00000000000E+00  0.11555443099E+03  0.11555443099E+03  0.00000000000E+00 0.  1.
         21   -1    0    0  501  503 -0.00000000000E+00 -0.00000000000E+00 -0.10748990096E+04  0.10748990096E+04  0.00000000000E+00 0.  1.
          6    2    1    2  501    0  0.24981447803E+03 -0.11480682467E+03 -0.70917016486E+03  0.77977436978E+03  0.17186583317E+03 0.  0.
         24    2    3    3    0    0  0.11750046104E+03 -0.12722251767E+02 -0.44383664271E+03  0.46616278343E+03  0.79677858947E+02 0.  0.
         -6    2    1    2    0  502 -0.24981447803E+03  0.11480682467E+03 -0.25017441371E+03  0.41067907077E+03  0.17459147021E+03 0.  0.
        -24    2    5    5    0    0 -0.19403972797E+03  0.14709722192E+03 -0.16861395096E+03  0.30662287641E+03  0.79359404957E+02 0.  0.
          5    1    3    3  501    0  0.13231401699E+03 -0.10208457290E+03 -0.26533352215E+03  0.31361158635E+03  0.47000000000E+01 0. -1.
        -13    1    4    4    0    0  0.26203152197E+02 -0.32976856540E+02 -0.78949058166E+02  0.89482020750E+02  0.00000000000E+00 0.  1.
         14    1    4    4    0    0  0.91297308840E+02  0.20254604774E+02 -0.36488758455E+03  0.37668076268E+03  0.00000000000E+00 0. -1.
         -5    1    5    5    0  502 -0.55774750060E+02 -0.32290397254E+02 -0.81560462755E+02  0.10405619436E+03  0.47000000000E+01 0.  1.
         13    1    6    6    0    0 -0.72841204695E+02  0.11127138560E+02 -0.54990339985E+02  0.91943416325E+02  0.00000000000E+00 0. -1.
        -14    1    6    6    0    0 -0.12119852327E+03  0.13597008336E+03 -0.11362361097E+03  0.21467946009E+03  0.00000000000E+00 0.  1.
</event>
<event>
12    1  0.9966151E-001  0.2815060E+03  0.7818608E-02  0.1094916E+00
         21   -1    0    0  501  502  0.00000000000E+00  0.00000000000E+00  0.58381802800E+03  0.58381802800E+03  0.00000000000E+00 0.  1.
         21   -1    0    0  502  503 -0.00000000000E+00 -0.00000000000E+00 -0.13799298953E+03  0.13799298953E+03  0.00000000000E+00 0.  1.
         -6    2    1    2    0  503 -0.89783801904E+02 -0.20334207902E+03  0.17496129285E+03  0.33115411373E+03  0.17216986049E+03 0.  0.
        -24    2    3    3    0    0 -0.92052658332E+02 -0.14573676964E+03  0.54588556431E+02  0.19760560175E+03  0.79719291392E+02 0.  0.
          6    2    1    2  501    0  0.89783801904E+02  0.20334207902E+03  0.27086374562E+03  0.39065690379E+03  0.17273249725E+03 0.  0.
         24    2    5    5    0    0  0.30779914428E+02  0.27026491212E+02  0.50882445832E+02  0.10259005826E+03  0.79106652061E+02 0.  0.
          5    1    5    5  501    0  0.59003887476E+02  0.17631558781E+03  0.21998129978E+03  0.28806684554E+03  0.47000000000E+01 0. -1.
        -11    1    6    6    0    0  0.51950284808E+02  0.32525676057E+01  0.47691783327E+02  0.70596865969E+02  0.00000000000E+00 0.  1.
         12    1    6    6    0    0 -0.21170370380E+02  0.23773923607E+02  0.31906625050E+01  0.31993192290E+02  0.00000000000E+00 0. -1.
         -5    1    3    3    0  503  0.22688564276E+01 -0.57605309382E+02  0.12037273642E+03  0.13354851198E+03  0.47000000000E+01 0.  1.
         13    1    4    4    0    0 -0.27438383832E+01 -0.57732811396E+02 -0.64468122680E+01  0.58156405917E+02  0.00000000000E+00 0. -1.
        -14    1    4    4    0    0 -0.89308819949E+02 -0.88003958246E+02  0.61035368699E+02  0.13944919584E+03  0.00000000000E+00 0.  1.
</event>
<event>
12    1  0.9966151E-001  0.1929573E+03  0.7818608E-02  0.1155903E+00
         21   -1    0    0  503  502  0.00000000000E+00  0.00000000000E+00  0.46415706328E+02  0.46415706328E+02  0.00000000000E+00 0.  1.
         21   -1    0    0  501  503 -0.00000000000E+00 -0.00000000000E+00 -0.83768527797E+03  0.83768527797E+03  0.00000000000E+00 0.  1.
          6    2    1    2  501    0 -0.76666584202E+02 -0.41425032022E+02 -0.30299343422E+03  0.35921795084E+03  0.17215898644E+03 0.  0.
         24    2    3    3    0    0 -0.27924019094E+02 -0.22258015623E+02 -0.29267533741E+03  0.30562909666E+03  0.80468139637E+02 0.  0.
         -6    2    1    2    0  502  0.76666584202E+02  0.41425032022E+02 -0.48827613741E+03  0.52488303345E+03  0.17174054276E+03 0.  0.
        -24    2    5    5    0    0  0.76846375086E+02  0.38299386760E+02 -0.49906101364E+03  0.51270906375E+03  0.80227678003E+02 0.  0.
          5    1    3    3  501    0 -0.48742565108E+02 -0.19167016399E+02 -0.10318096819E+02  0.53588854186E+02  0.47000000000E+01 0. -1.
        -11    1    4    4    0    0  0.25339486011E+02  0.82528105883E+01 -0.87468256581E+02  0.91437926175E+02  0.00000000000E+00 0.  1.
         12    1    4    4    0    0 -0.53263505105E+02 -0.30510826211E+02 -0.20520708082E+03  0.21419117048E+03  0.00000000000E+00 0. -1.
         -5    1    5    5    0  502 -0.17979088307E+00  0.31256452621E+01  0.10784876231E+02  0.12173969705E+02  0.47000000000E+01 0.  1.
         13    1    6    6    0    0  0.62229535705E+02  0.14605024321E+02 -0.15695058191E+03  0.16946771673E+03  0.00000000000E+00 0. -1.
        -14    1    6    6    0    0  0.14616839381E+02  0.23694362439E+02 -0.34211043173E+03  0.34324134702E+03  0.00000000000E+00 0.  1.
</event>
<event>
12    1  0.9966151E-001  0.3277385E+03  0.7818608E-02  0.1072240E+00
         21   -1    0    0  503  502  0.00000000000E+00  0.00000000000E+00  0.68729918886E+03  0.68729918886E+03  0.00000000000E+00 0. -1.
         21   -1    0    0  501  503 -0.00000000000E+00 -0.00000000000E+00 -0.15973284136E+03  0.15973284136E+03  0.00000000000E+00 0.  1.
          6    2    1    2  501    0 -0.11831735786E+03  0.25192414716E+03  0.32934824546E+03  0.46401379036E+03  0.17138774099E+03 0.  0.
         24    2    3    3    0    0  0.25264097158E+00  0.14730862370E+03  0.17973831160E+03  0.24627891791E+03  0.81532510724E+02 0.  0.
         -6    2    1    2    0  502  0.11831735786E+03 -0.25192414716E+03  0.19821810203E+03  0.38301823985E+03  0.17305427759E+03 0.  0.
        -24    2    5    5    0    0  0.40561195205E+01 -0.12315061950E+03  0.13747383791E+03  0.20039784768E+03  0.77959695077E+02 0.  0.
          5    1    3    3  501    0 -0.11856999883E+03  0.10461552346E+03  0.14960993386E+03  0.21773487245E+03  0.47000000000E+01 0. -1.
        -13    1    4    4    0    0  0.29137539699E+02  0.35317697686E+02  0.85910106249E+02  0.97349280148E+02  0.00000000000E+00 0.  1.
         14    1    4    4    0    0 -0.28884898727E+02  0.11199092601E+03  0.93828205355E+02  0.14892963776E+03  0.00000000000E+00 0. -1.
         -5    1    5    5    0  502  0.11426123834E+03 -0.12877352766E+03  0.60744264123E+02  0.18262039217E+03  0.47000000000E+01 0.  1.
         13    1    6    6    0    0  0.80993910594E+01 -0.12983189568E+03  0.10551086138E+03  0.16749466601E+03  0.00000000000E+00 0. -1.
        -14    1    6    6    0    0 -0.40432715389E+01  0.66812761732E+01  0.31962976525E+02  0.32903181676E+02  0.00000000000E+00 0.  1.
</event>
<event>
12    1  0.9966151E-001  0.2116653E+03  0.7818608E-02  0.1140278E+00
         21   -1    0    0  503  502  0.00000000000E+00  0.00000000000E+00  0.35793710052E+03  0.35793710052E+03  0.00000000000E+00 0.  1.
         21   -1    0    0  501  503 -0.00000000000E+00 -0.00000000000E+00 -0.12985306220E+03  0.12985306220E+03  0.00000000000E+00 0.  1.
          6    2    1    2  501    0 -0.15479901590E+02 -0.12191934414E+03  0.16075468586E+03  0.26578990743E+03  0.17233180797E+03 0.  0.
         24    2    3    3    0    0 -0.60267423428E+02 -0.10291124083E+03  0.16328722306E+03  0.21684367317E+03  0.78329914863E+02 0.  0.
         -6    2    1    2    0  502  0.15479901590E+02  0.12191934414E+03  0.67329352460E+02  0.22200025529E+03  0.17218280349E+03 0.  0.
        -24    2    5    5    0    0  0.40505960238E+02  0.13674646427E+03  0.16166240541E+02  0.16295873495E+03  0.77161348207E+02 0.  0.
          5    1    3    3  501    0  0.44787521838E+02 -0.19008103301E+02 -0.25325372020E+01  0.48946234259E+02  0.47000000000E+01 0. -1.
        -13    1    4    4    0    0 -0.20937927378E+02 -0.79601986076E+01  0.84293881751E+02  0.87219378955E+02  0.00000000000E+00 0.  1.
         14    1    4    4    0    0 -0.39329496051E+02 -0.94951042227E+02  0.78993341311E+02  0.12962429422E+03  0.00000000000E+00 0. -1.
         -5    1    5    5    0  502 -0.25026058647E+02 -0.14827120137E+02  0.51163111919E+02  0.59041520341E+02  0.47000000000E+01 0.  1.
         11    1    6    6    0    0  0.51767906685E+02  0.54706478898E+02  0.25747813728E+02  0.79596890063E+02  0.00000000000E+00 0. -1.
        -12    1    6    6    0    0 -0.11261946447E+02  0.82039985374E+02 -0.95815731871E+01  0.83361844885E+02  0.00000000000E+00 0.  1.
</event>
<event>
12    1  0.9966151E-001  0.2434430E+03  0.7818608E-02  0.1117639E+00
         21   -1    0    0  501  502  0.00000000000E+00  0.00000000000E+00  0.44256672924E+03  0.44256672924E+03  0.00000000000E+00 0.  1.
         21   -1    0    0  502  503 -0.00000000000E+00 -0.00000000000E+00 -0.16506172361E+03  0.16506172361E+03  0.00000000000E+00 0.  1.
         -6    2    1    2    0  503  0.16815192316E+03  0.35588102934E+02  0.27174881456E+03  0.36484505389E+03  0.17240334334E+03 0.  0.
        -24    2    3    3    0    0  0.11051071287E+03  0.90963495471E+02  0.17504143549E+03  0.23929287194E+03  0.78323682619E+02 0.  0.
          6    2    1    2  501    0 -0.16815192316E+03 -0.35588102934E+02  0.57561910607E+01  0.24278339897E+03  0.17137404338E+03 0.  0.
         24    2    5    5    0    0 -0.61290789292E+02 -0.54434841849E+02  0.50861625174E+02  0.12517773717E+03  0.79767462720E+02 0.  0.
          5    1    5    5  501    0 -0.10686113387E+03  0.18846738915E+02 -0.45105434113E+02  0.11760566180E+03  0.47000000000E+01 0. -1.
        -13    1    6    6    0    0 -0.26435346421E+02  0.18813105777E+02  0.21433755112E+02  0.38886583131E+02  0.00000000000E+00 0.  1.
         14    1    6    6    0    0 -0.34855442871E+02 -0.73247947627E+02  0.29427870062E+02  0.86291154040E+02  0.00000000000E+00 0. -1.
         -5    1    3    3    0  503  0.57641210295E+02 -0.55375392537E+02  0.96707379078E+02  0.12555218194E+03  0.47000000000E+01 0.  1.
         13    1    4    4    0    0  0.10512777559E+03  0.43049351998E+02  0.13635081656E+03  0.17747293057E+03  0.00000000000E+00 0. -1.
        -14    1    4    4    0    0  0.53829372750E+01  0.47914143473E+02  0.38690618923E+02  0.61819941371E+02  0.00000000000E+00 0.  1.
</event>
<event>
12    1  0.9966151E-001  0.2612279E+03  0.7818608E-02  0.1106420E+00
         21   -1    0    0  501  502  0.00000000000E+00  0.00000000000E+00  0.59152295692E+02  0.59152295692E+02  0.00000000000E+00 0. -1.
         21   -1    0    0  502  503 -0.00000000000E+00 -0.00000000000E+00 -0.11638695683E+04  0.11638695683E+04  0.00000000000E+00 0. -1.
         -6    2    1    2    0  503  0.17630048789E+03  0.89156874659E+02 -0.49395089597E+03  0.55873609693E+03  0.17078562017E+03 0.  0.
        -24    2    3    3    0    0  0.57649194468E+02  0.30482530206E+02 -0.34123564057E+03  0.35658554076E+03  0.80367102816E+02 0.  0.
          6    2    1    2  501    0 -0.17630048789E+03 -0.89156874659E+02 -0.61076637666E+03  0.66428576708E+03  0.17090700149E+03 0.  0.
         24    2    5    5    0    0 -0.81219892576E+02 -0.82134648211E+00 -0.40733892337E+03  0.42293891316E+03  0.79718129778E+02 0.  0.
          5    1    5    5  501    0 -0.95080595316E+02 -0.88335528177E+02 -0.20342745329E+03  0.24134685392E+03  0.47000000000E+01 0. -1.
        -13    1    6    6    0    0 -0.95568289298E+01 -0.33472497889E+02 -0.13805987497E+03  0.14238072261E+03  0.00000000000E+00 0.  1.
         14    1    6    6    0    0 -0.71663063646E+02  0.32651151407E+02 -0.26927904840E+03  0.28055819055E+03  0.00000000000E+00 0. -1.
         -5    1    3    3    0  503  0.11865129342E+03  0.58674344454E+02 -0.15271525540E+03  0.20215055617E+03  0.47000000000E+01 0.  1.
         11    1    4    4    0    0 -0.62375652278E+01 -0.27551607490E+01 -0.17846529643E+03  0.17859552111E+03  0.00000000000E+00 0. -1.
        -12    1    4    4    0    0  0.63886759695E+02  0.33237690955E+02 -0.16277034414E+03  0.17799001965E+03  0.00000000000E+00 0.  1.
</event>
<event>
12    1  0.9966151E-001  0.1978048E+03  0.7818608E-02  0.1151987E+00
         21   -1    0    0  501  502  0.00000000000E+00  0.00000000000E+00  0.12885067830E+03  0.12885067830E+03  0.00000000000E+00 0. -1.
         21   -1    0    0  502  503 -0.00000000000E+00 -0.00000000000E+00 -0.46224730756E+03  0.46224730756E+03  0.00000000000E+00 0. -1.
         -6    2    1    2    0  503  0.77540248091E+02  0.57880770618E+02 -0.34079948355E+03  0.39315474449E+03  0.17048076563E+03 0.  0.
        -24    2    3    3    0    0  0.23068748515E+02 -0.24923819158E+02 -0.97373451094E+02  0.13028202314E+03  0.79614399808E+02 0.  0.
          6    2    1    2  501    0 -0.77540248091E+02 -0.57880770618E+02  0.74028542838E+01  0.19794324137E+03  0.17252260974E+03 0.  0.
         24    2    5    5    0    0 -0.67836125505E+02  0.29865519404E+02  0.48437011616E+01  0.10949992238E+03  0.80455468356E+02 0.  0.
          5    1    5    5  501    0 -0.97041225852E+01 -0.87746290022E+02  0.25591531222E+01  0.88443318982E+02  0.47000000000E+01 0. -1.
        -13    1    6    6    0    0 -0.55694784052E+02  0.14212988055E+01  0.35412547425E+02  0.66014979937E+02  0.00000000000E+00 0.  1.
         14    1    6    6    0    0 -0.12141341453E+02  0.28444220599E+02 -0.30568846264E+02  0.43484942448E+02  0.00000000000E+00 0. -1.
         -5    1    3    3    0  503  0.54471499576E+02  0.82804589776E+02 -0.24342603245E+03  0.26287272135E+03  0.47000000000E+01 0.  1.
         13    1    4    4    0    0  0.50458956503E+02 -0.29696413572E+02 -0.70112631273E+02  0.91344207996E+02  0.00000000000E+00 0. -1.
        -14    1    4    4    0    0 -0.27390207988E+02  0.47725944138E+01 -0.27260819821E+02  0.38937815146E+02  0.00000000000E+00 0.  1.
</event>
<event>
12    1  0.9966151E-001  0.1878741E+03  0.7818608E-02  0.1160465E+00
         21   -1    0    0  501  502  0.00000000000E+00  0.00000000000E+00  0.27301963679E+03  0.27301963679E+03  0.00000000000E+00 0. -1.
         21   -1    0    0  502  503 -0.00000000000E+00 -0.00000000000E+00 -0.12911050349E+03  0.12911050349E+03  0.00000000000E+00 0. -1.
         -6    2    1    2    0  503  0.12485920900E+02 -0.70943874219E+02  0.68180693758E+02  0.19956784958E+03  0.17317559896E+03 0.  0.
        -24    2    3    3    0    0 -0.50998523709E+02 -0.43000715711E+02  0.75604982727E+02  0.12965143604E+03  0.81507487283E+02 0.  0.
          6    2    1    2  501    0 -0.12485920900E+02  0.70943874219E+02  0.75728439545E+02  0.20256229071E+03  0.17351585965E+03 0.  0.
         24    2    5    5    0    0 -0.46384735351E+02  0.99679791853E+02  0.79503624774E+02  0.15771561182E+03  0.80410094411E+02 0.  0.
          5    1    5    5  501    0  0.33898814451E+02 -0.28735917634E+02 -0.37751852294E+01  0.44846678885E+02  0.47000000000E+01 0. -1.
        -11    1    6    6    0    0 -0.17132785852E+02  0.36367171359E+02  0.78236520431E+02  0.87960540203E+02  0.00000000000E+00 0.  1.
         12    1    6    6    0    0 -0.29251949499E+02  0.63312620494E+02  0.12671043436E+01  0.69755071620E+02  0.00000000000E+00 0. -1.
         -5    1    3    3    0  503  0.63484444609E+02 -0.27943158507E+02 -0.74242889684E+01  0.69916413533E+02  0.47000000000E+01 0.  1.
         13    1    4    4    0    0  0.17703071470E+02 -0.30598692922E+02  0.28852360947E+02  0.45630444664E+02  0.00000000000E+00 0. -1.
        -14    1    4    4    0    0 -0.68701595179E+02 -0.12402022789E+02  0.46752621779E+02  0.84020991381E+02  0.00000000000E+00 0.  1.
</event>
<event>
12    1  0.9966151E-001  0.2098530E+03  0.7818608E-02  0.1141758E+00
         21   -1    0    0  503  502  0.00000000000E+00  0.00000000000E+00  0.24053171942E+03  0.24053171942E+03  0.00000000000E+00 0.  1.
         21   -1    0    0  501  503 -0.00000000000E+00 -0.00000000000E+00 -0.18341106768E+03  0.18341106768E+03  0.00000000000E+00 0.  1.
          6    2    1    2  501    0 -0.21595999008E+02  0.11802778954E+03  0.41230451402E+02  0.21348903225E+03  0.17169936077E+03 0.  0.
         24    2    3    3    0    0  0.19866442178E+02  0.32904802982E+02 -0.30365581267E+02  0.94690300082E+02  0.81035688556E+02 0.  0.
         -6    2    1    2    0  502  0.21595999008E+02 -0.11802778954E+03  0.15890200335E+02  0.21045375486E+03  0.17216660010E+03 0.  0.
        -24    2    5    5    0    0 -0.34401985767E+01 -0.14229514668E+03  0.39505419186E+02  0.16808059858E+03  0.80191431832E+02 0.  0.
          5    1    3    3  501    0 -0.41462441186E+02  0.85122986559E+02  0.71596032669E+02  0.11879873216E+03  0.47000000000E+01 0. -1.
        -11    1    4    4    0    0  0.45373118579E+01  0.79100800852E+01  0.27959967539E+02  0.29409460224E+02  0.00000000000E+00 0.  1.
         12    1    4    4    0    0  0.15329130321E+02  0.24994722896E+02 -0.58325548806E+02  0.65280839858E+02  0.00000000000E+00 0. -1.
         -5    1    5    5    0  502  0.25036197585E+02  0.24267357134E+02 -0.23615218851E+02  0.42373156280E+02  0.47000000000E+01 0.  1.
         13    1    6    6    0    0 -0.37587433015E+02 -0.44722268737E+02  0.31725929778E+01  0.58506083340E+02  0.00000000000E+00 0. -1.
        -14    1    6    6    0    0  0.34147234438E+02 -0.97572877939E+02  0.36332826208E+02  0.10957451524E+03  0.00000000000E+00 0.  1.
</event>
<event>
12    1  0.9966151E-001  0.2888240E+03  0.7818608E-02  0.1091217E+00
         21   -1    0    0  503  502  0.00000000000E+00  0.00000000000E+00  0.54492521478E+03  0.54492521478E+03  0.00000000000E+00 0.  1.
         21   -1    0    0  501  503 -0.00000000000E+00 -0.00000000000E+00 -0.51657360806E+03  0.51657360806E+03  0.00000000000E+00 0. -1.
          6    2    1    2  501    0  0.24727162120E+02 -0.23023052290E+03 -0.43167202328E+03  0.51832202234E+03  0.16940914068E+03 0.  0.
         24    2    3    3    0    0  0.30001349928E+02 -0.40439807427E+02 -0.13692016879E+03  0.16768106858E+03  0.82670122265E+02 0.  0.
         -6    2    1    2    0  502 -0.24727162120E+02  0.23023052290E+03  0.46002363000E+03  0.54317680050E+03  0.17263189224E+03 0.  0.
        -24    2    5    5    0    0 -0.18133353796E+02  0.17867841036E+03  0.20797857304E+03  0.28578624249E+03  0.78510487843E+02 0.  0.
          5    1    3    3  501    0 -0.52741878079E+01 -0.18979071547E+03 -0.29475185449E+03  0.35064095377E+03  0.47000000000E+01 0. -1.
        -11    1    4    4    0    0 -0.15491310041E+02 -0.18582828474E+02 -0.27703895932E+01  0.24351124397E+02  0.00000000000E+00 0.  1.
         12    1    4    4    0    0  0.45492659970E+02 -0.21856978953E+02 -0.13414977920E+03  0.14332994418E+03  0.00000000000E+00 0. -1.
         -5    1    5    5    0  502 -0.65938083241E+01  0.51552112539E+02  0.25204505696E+03  0.25739055801E+03  0.47000000000E+01 0.  1.
         11    1    6    6    0    0 -0.38734132063E+02  0.15124338196E+03  0.14027325080E+03  0.20988444074E+03  0.00000000000E+00 0. -1.
        -12    1    6    6    0    0  0.20600778267E+02  0.27435028393E+02  0.67705322245E+02  0.75901801747E+02  0.00000000000E+00 0.  1.
</event>
<event>
12    1  0.9966151E-001  0.2293964E+03  0.7818608E-02  0.1127237E+00
         21   -1    0    0  501  502  0.00000000000E+00  0.00000000000E+00  0.26545671491E+04  0.26545671491E+04  0.00000000000E+00 0. -1.
         21   -1    0    0  502  503 -0.00000000000E+00 -0.00000000000E+00 -0.20100564989E+02  0.20100564989E+02  0.00000000000E+00 0. -1.
         -6    2    1    2    0  503 -0.12105528387E+03 -0.91507743723E+02  0.14936455481E+04  0.15110116861E+04  0.17073735215E+03 0.  0.
        -24    2    3    3    0    0 -0.72926339499E+02  0.16153235009E+02  0.80656297793E+03  0.81386619929E+03  0.79089664180E+02 0.  0.
          6    2    1    2  501    0  0.12105528387E+03  0.91507743723E+02  0.11408210360E+04  0.11636560280E+04  0.17203100369E+03 0.  0.
         24    2    5    5    0    0  0.14255044381E+03  0.93657412214E+02  0.78396702862E+03  0.80611786834E+03  0.78290330181E+02 0.  0.
          5    1    5    5  501    0 -0.21495159943E+02 -0.21496684909E+01  0.35685400743E+03  0.35753815964E+03  0.47000000000E+01 0. -1.
        -11    1    6    6    0    0  0.95403698670E+02  0.25180277316E+02  0.32377270664E+03  0.33847404280E+03  0.00000000000E+00 0.  1.
         12    1    6    6    0    0  0.47146745143E+02  0.68477134898E+02  0.46019432198E+03  0.46764382553E+03  0.00000000000E+00 0. -1.
         -5    1    3    3    0  503 -0.48128944370E+02 -0.10766097873E+03  0.68708257016E+03  0.69714548686E+03  0.47000000000E+01 0.  1.
         13    1    4    4    0    0 -0.63500782720E+02 -0.20701659166E+01  0.28920702180E+03  0.29610359074E+03  0.00000000000E+00 0. -1.
        -14    1    4    4    0    0 -0.94255567791E+01  0.18223400926E+02  0.51735595613E+03  0.51776260855E+03  0.00000000000E+00 0.  1.
</event>
<event>
12    1  0.9966151E-001  0.1773616E+03  0.7818608E-02  0.1170707E+00
         21   -1    0    0  503  502  0.00000000000E+00  0.00000000000E+00  0.59101021507E+03  0.59101021507E+03  0.00000000000E+00 0. -1.
         21   -1    0    0  501  503 -0.00000000000E+00 -0.00000000000E+00 -0.60351999583E+02  0.60351999583E+02  0.00000000000E+00 0. -1.
          6    2    1    2  501    0 -0.19497216563E+02 -0.34531461222E+02  0.37942741578E+03  0.41827875296E+03  0.17152080942E+03 0.  0.
         24    2    3    3    0    0 -0.42065586374E+02  0.10184709974E+02  0.34619926741E+03  0.35798723510E+03  0.80172849908E+02 0.  0.
         -6    2    1    2    0  502  0.19497216563E+02  0.34531461222E+02  0.15123079970E+03  0.23308346169E+03  0.17287157680E+03 0.  0.
        -24    2    5    5    0    0  0.50428956008E+02  0.79913402350E+02  0.97075728705E+02  0.15581021405E+03  0.76966838448E+02 0.  0.
          5    1    3    3  501    0  0.22568369811E+02 -0.44716171196E+02  0.33228148375E+02  0.60291517867E+02  0.47000000000E+01 0. -1.
        -13    1    4    4    0    0 -0.36768777733E+02 -0.18532204623E+02  0.77980718261E+02  0.88183774271E+02  0.00000000000E+00 0.  1.
         14    1    4    4    0    0 -0.52968086409E+01  0.28716914596E+02  0.26821854915E+03  0.26980346082E+03  0.00000000000E+00 0. -1.
         -5    1    5    5    0  502 -0.30931739444E+02 -0.45381941128E+02  0.54155070998E+02  0.77273247637E+02  0.47000000000E+01 0.  1.
         13    1    6    6    0    0  0.18600970444E+02 -0.77795585837E+01 -0.13379724095E+01  0.20206627709E+02  0.00000000000E+00 0. -1.
        -14    1    6    6    0    0  0.31827985563E+02  0.87692960934E+02  0.98413701114E+02  0.13560358634E+03  0.00000000000E+00 0.  1.
</event>
<event>
12    1  0.9966151E-001  0.2991292E+03  0.7818608E-02  0.1085981E+00
         21   -1    0    0  503  502  0.00000000000E+00  0.00000000000E+00  0.19845598383E+03  0.19845598383E+03  0.00000000000E+00 0.  1.
         21   -1    0    0  501  503 -0.00000000000E+00 -0.00000000000E+00 -0.57608676080E+03  0.57608676080E+03  0.00000000000E+00 0.  1.
          6    2    1    2  501    0 -0.16583627931E+03 -0.17661832468E+03 -0.37137281683E+03  0.47534805890E+03  0.17129595404E+03 0.  0.
         24    2    3    3    0    0 -0.14012692907E+03 -0.52451574542E+02 -0.22383303971E+03  0.28074993875E+03  0.79577474971E+02 0.  0.
         -6    2    1    2    0  502  0.16583627931E+03  0.17661832468E+03 -0.62579601445E+01  0.29919468573E+03  0.17544969010E+03 0.  0.
        -24    2    5    5    0    0  0.18821048680E+03  0.17055442821E+03  0.16368846574E+02  0.26646185231E+03  0.78879523801E+02 0.  0.
          5    1    3    3  501    0 -0.25709350232E+02 -0.12416675014E+03 -0.14753977713E+03  0.19459812015E+03  0.47000000000E+01 0. -1.
        -11    1    4    4    0    0 -0.76597560343E+01 -0.93073540654E+01  0.48329588267E+01  0.12986769930E+02  0.00000000000E+00 0.  1.
         12    1    4    4    0    0 -0.13246717304E+03 -0.43144220477E+02 -0.22866599853E+03  0.26776316882E+03  0.00000000000E+00 0. -1.
         -5    1    5    5    0  502 -0.22374207493E+02  0.60638964752E+01 -0.22626806719E+02  0.32732833420E+02  0.47000000000E+01 0.  1.
         11    1    6    6    0    0  0.31753110102E+02 -0.31660031116E+01  0.57988874334E+01  0.32433172406E+02  0.00000000000E+00 0. -1.
        -12    1    6    6    0    0  0.15645737670E+03  0.17372043132E+03  0.10569959141E+02  0.23402867990E+03  0.00000000000E+00 0.  1.
</event>
<event>
12    1  0.9966151E-001  0.1786108E+03  0.7818608E-02  0.1169510E+00
         21   -1    0    0  503  502  0.00000000000E+00  0.00000000000E+00  0.52280472518E+02  0.52280472518E+02  0.00000000000E+00 0.  1.
         21   -1    0    0  501  503 -0.00000000000E+00 -0.00000000000E+00 -0.60559892490E+03  0.60559892490E+03  0.00000000000E+00 0.  1.
          6    2    1    2  501    0 -0.43348460573E+02 -0.18997535541E+02 -0.26775806098E+03  0.32106112843E+03  0.17072162597E+03 0.  0.
         24    2    3    3    0    0  0.20670749034E+02 -0.51738625804E+02 -0.19981999946E+03  0.22202523396E+03  0.79139162633E+02 0.  0.
         -6    2    1    2    0  502  0.43348460573E+02  0.18997535541E+02 -0.28556039140E+03  0.33681826899E+03  0.17222605436E+03 0.  0.
        -24    2    5    5    0    0 -0.12969246889E+02  0.62829700798E+02 -0.13469380264E+03  0.16985791295E+03  0.81200476942E+02 0.  0.
          5    1    3    3  501    0 -0.64019209607E+02  0.32741090263E+02 -0.67938061522E+02  0.99035894471E+02  0.47000000000E+01 0. -1.
        -11    1    4    4    0    0  0.26873033866E+02 -0.16145631560E+02 -0.16987005666E+02  0.35656692628E+02  0.00000000000E+00 0.  1.
         12    1    4    4    0    0 -0.62022848325E+01 -0.35592994243E+02 -0.18283299380E+03  0.18636854133E+03  0.00000000000E+00 0. -1.
         -5    1    5    5    0  502  0.56317707463E+02 -0.43832165258E+02 -0.15086658876E+03  0.16696035604E+03  0.47000000000E+01 0.  1.
         13    1    6    6    0    0  0.23061009264E+02 -0.30692487703E+01 -0.58101912881E+02  0.62586441956E+02  0.00000000000E+00 0. -1.
        -14    1    6    6    0    0 -0.36030256154E+02  0.65898949569E+02 -0.76591889756E+02  0.10727147099E+03  0.00000000000E+00 0.  1.
</event>
<event>
12    1  0.9966151E-001  0.2184047E+03  0.7818608E-02  0.1135789E+00
         21   -1    0    0  501  502  0.00000000000E+00  0.00000000000E+00  0.50010310509E+03  0.50010310509E+03  0.00000000000E+00 0.  1.
         21   -1    0    0  502  503 -0.00000000000E+00 -0.00000000000E+00 -0.98639217569E+02  0.98639217569E+02  0.00000000000E+00 0.  1.
         -6    2    1    2    0  503  0.10098544672E+03 -0.78918447763E+02  0.26570679920E+03  0.34158362903E+03  0.17220072774E+03 0.  0.
        -24    2    3    3    0    0 -0.14584847153E+02 -0.29329259015E+02  0.12616757015E+03  0.15367709133E+03  0.81396986688E+02 0.  0.
          6    2    1    2  501    0 -0.10098544672E+03  0.78918447763E+02  0.13575708832E+03  0.25715869363E+03  0.17684576566E+03 0.  0.
         24    2    5    5    0    0 -0.90785698918E+02  0.74428238264E+02  0.22734398379E+02  0.14349068899E+03  0.79316575682E+02 0.  0.
          5    1    5    5  501    0 -0.10199747801E+02  0.44902094994E+01  0.11302268994E+03  0.11366800464E+03  0.47000000000E+01 0. -1.
        -13    1    6    6    0    0  0.13268260663E+02  0.17043140111E+02 -0.32829398030E+01  0.21847037777E+02  0.00000000000E+00 0.  1.
         14    1    6    6    0    0 -0.10405395958E+03  0.57385098153E+02  0.26017338182E+02  0.12164365121E+03  0.00000000000E+00 0. -1.
         -5    1    3    3    0  503  0.11557029387E+03 -0.49589188748E+02  0.13953922905E+03  0.18790653770E+03  0.47000000000E+01 0.  1.
         13    1    4    4    0    0  0.17004467582E+01 -0.81717006848E+01 -0.11071346857E+02  0.13865169760E+02  0.00000000000E+00 0. -1.
        -14    1    4    4    0    0 -0.16285293911E+02 -0.21157558330E+02  0.13723891701E+03  0.13981192157E+03  0.00000000000E+00 0.  1.
</event>
<event>
12    1  0.9966151E-001  0.2831909E+03  0.7818608E-02  0.1094116E+00
         21   -1    0    0  501  502  0.00000000000E+00  0.00000000000E+00  0.57238790944E+03  0.57238790944E+03  0.00000000000E+00 0.  1.
         21   -1    0    0  502  503 -0.00000000000E+00 -0.00000000000E+00 -0.14940203453E+03  0.14940203453E+03  0.00000000000E+00 0.  1.
         -6    2    1    2    0  503 -0.25396617694E+02 -0.22330425011E+03  0.11915285244E+03  0.30723682319E+03  0.17229999121E+03 0.  0.
        -24    2    3    3    0    0  0.97743678472E+01 -0.17828912386E+03  0.14586776465E+03  0.24399809811E+03  0.79844330816E+02 0.  0.
          6    2    1    2  501    0  0.25396617694E+02  0.22330425011E+03  0.30383302247E+03  0.41455312079E+03  0.17038194772E+03 0.  0.
         24    2    5    5    0    0  0.39314099232E+02  0.17843007333E+03  0.13928076004E+03  0.24336046585E+03  0.80263919396E+02 0.  0.
          5    1    5    5  501    0 -0.13917481538E+02  0.44874176780E+02  0.16455226243E+03  0.17119265494E+03  0.47000000000E+01 0. -1.
        -11    1    6    6    0    0  0.42706888318E+02  0.10664612438E+03  0.12558597264E+03  0.17020314533E+03  0.00000000000E+00 0.  1.
         12    1    6    6    0    0 -0.33927890859E+01  0.71783948949E+02  0.13694787396E+02  0.73157320524E+02  0.00000000000E+00 0. -1.
         -5    1    3    3    0  503 -0.35170985541E+02 -0.45015126249E+02 -0.26714912211E+02  0.63238725079E+02  0.47000000000E+01 0.  1.
         11    1    4    4    0    0  0.33446354081E+02 -0.48450258907E+02  0.71103608848E+02  0.92313646774E+02  0.00000000000E+00 0. -1.
        -12    1    4    4    0    0 -0.23671986234E+02 -0.12983886495E+03  0.74764155806E+02  0.15168445134E+03  0.00000000000E+00 0.  1.
</event>
<event>
12    1  0.9966151E-001  0.3459237E+03  0.7818608E-02  0.1064559E+00
         21   -1    0    0  501  502  0.00000000000E+00  0.00000000000E+00  0.42124137070E+03  0.42124137070E+03  0.00000000000E+00 0.  1.
         21   -1    0    0  502  503 -0.00000000000E+00 -0.00000000000E+00 -0.28254052793E+03  0.28254052793E+03  0.00000000000E+00 0.  1.
         -6    2    1    2    0  503  0.26315500762E+03  0.14428420606E+03  0.54372769447E+02  0.34772790426E+03  0.16700241673E+03 0.  0.
        -24    2    3    3    0    0  0.19269159182E+03  0.13378165497E+03  0.95064508717E+02  0.26554941443E+03  0.80322163352E+02 0.  0.
          6    2    1    2  501    0 -0.26315500762E+03 -0.14428420606E+03  0.84328073318E+02  0.35605399436E+03  0.17203119717E+03 0.  0.
         24    2    5    5    0    0 -0.62170770920E+02 -0.43462980596E+01  0.27444978579E+02  0.10458817568E+03  0.79381134913E+02 0.  0.
          5    1    5    5  501    0 -0.20098423670E+03 -0.13993790800E+03  0.56883094738E+02  0.25146581868E+03  0.47000000000E+01 0. -1.
        -13    1    6    6    0    0 -0.41755892848E+02 -0.14729791843E+02 -0.22481915493E+02  0.49658411971E+02  0.00000000000E+00 0.  1.
         14    1    6    6    0    0 -0.20414878072E+02  0.10383493784E+02  0.49926894072E+02  0.54929763713E+02  0.00000000000E+00 0. -1.
         -5    1    3    3    0  503  0.70463415799E+02  0.10502551096E+02 -0.40691739271E+02  0.82178489828E+02  0.47000000000E+01 0.  1.
         13    1    4    4    0    0  0.46612619766E+02  0.22919705693E+02  0.59083435273E+02  0.78669571972E+02  0.00000000000E+00 0. -1.
        -14    1    4    4    0    0  0.14607897205E+03  0.11086194927E+03  0.35981073444E+02  0.18687984246E+03  0.00000000000E+00 0.  1.
</event>
<event>
12    1  0.9966151E-001  0.2460057E+03  0.7818608E-02  0.1116094E+00
         21   -1    0    0  503  502  0.00000000000E+00  0.00000000000E+00  0.56608581789E+03  0.56608581789E+03  0.00000000000E+00 0.  1.
         21   -1    0    0  501  503 -0.00000000000E+00 -0.00000000000E+00 -0.11841700630E+03  0.11841700630E+03  0.00000000000E+00 0.  1.
          6    2    1    2  501    0 -0.68925086632E+01 -0.17456292238E+03  0.33406088048E+03  0.41486800370E+03  0.17320239053E+03 0.  0.
         24    2    3    3    0    0 -0.63092967789E+02 -0.72587272351E+02  0.13167297711E+03  0.18132897434E+03  0.79327103459E+02 0.  0.
         -6    2    1    2    0  502  0.68925086632E+01  0.17456292238E+03  0.11360793111E+03  0.26963482048E+03  0.17110363486E+03 0.  0.
        -24    2    5    5    0    0 -0.22781735702E+02  0.12688656366E+03  0.14097256495E+03  0.20698891763E+03  0.79699061679E+02 0.  0.
          5    1    3    3  501    0  0.56200459126E+02 -0.10197565003E+03  0.20238790337E+03  0.23353902936E+03  0.47000000000E+01 0. -1.
        -13    1    4    4    0    0 -0.35188278345E+02 -0.21746711937E+02  0.45669360493E+01  0.41617199784E+02  0.00000000000E+00 0.  1.
         14    1    4    4    0    0 -0.27904689444E+02 -0.50840560413E+02  0.12710604106E+03  0.13971177456E+03  0.00000000000E+00 0. -1.
         -5    1    5    5    0  502  0.29674244365E+02  0.47676358714E+02 -0.27364633846E+02  0.62645902854E+02  0.47000000000E+01 0.  1.
         13    1    6    6    0    0 -0.56297952228E+01  0.62861230997E+02  0.15350923901E+02  0.64952904641E+02  0.00000000000E+00 0. -1.
        -14    1    6    6    0    0 -0.17151940479E+02  0.64025332667E+02  0.12562164105E+03  0.14203601299E+03  0.00000000000E+00 0.  1.
</event>
<event>
12    1  0.9966151E-001  0.3368098E+03  0.7818608E-02  0.1068209E+00
         21   -1    0    0  503  502  0.00000000000E+00  0.00000000000E+00  0.27411847179E+03  0.27411847179E+03  0.00000000000E+00 0. -1.
         21   -1    0    0  501  503 -0.00000000000E+00 -0.00000000000E+00 -0.69645304727E+03  0.69645304727E+03  0.00000000000E+00 0. -1.
          6    2    1    2  501    0 -0.28327747120E+03  0.58683675587E+02  0.98331985671E+02  0.35046307044E+03  0.17165455096E+03 0.  0.
         24    2    3    3    0    0 -0.23157742322E+03 -0.78369404201E+00  0.20428846211E+02  0.23955656860E+03  0.57803933083E+02 0.  0.
         -6    2    1    2    0  502  0.28327747120E+03 -0.58683675587E+02 -0.52066656115E+03  0.62010844863E+03  0.17248455203E+03 0.  0.
        -24    2    5    5    0    0  0.12671217257E+03 -0.93153369592E+02 -0.27440673003E+03  0.32622607936E+03  0.79942957338E+02 0.  0.
          5    1    3    3  501    0 -0.51700047974E+02  0.59467369629E+02  0.77903139459E+02  0.11090650183E+03  0.47000000000E+01 0. -1.
        -11    1    4    4    0    0 -0.13818898752E+03 -0.23602849581E+02 -0.44246138854E+01  0.14026000138E+03  0.00000000000E+00 0.  1.
         12    1    4    4    0    0 -0.93388435704E+02  0.22819155539E+02  0.24853460097E+02  0.99296567219E+02  0.00000000000E+00 0. -1.
         -5    1    5    5    0  502  0.15656529863E+03  0.34469694005E+02 -0.24625983113E+03  0.29388236927E+03  0.47000000000E+01 0.  1.
         11    1    6    6    0    0  0.17117075052E+02  0.11186237172E+02 -0.63062912208E+02  0.66295226499E+02  0.00000000000E+00 0. -1.
        -12    1    6    6    0    0  0.10959509752E+03 -0.10433960676E+03 -0.21134381782E+03  0.25993085286E+03  0.00000000000E+00 0.  1.
</event>
<event>
12    1  0.1135409E+000  0.1984795E+03  0.7818608E-02  0.1151092E+00
         21   -1    0    0  503  502  0.00000000000E+00  0.00000000000E+00  0.57703599258E+03  0.57703599258E+03  0.00000000000E+00 0.  1.
         21   -1    0    0  501  503 -0.00000000000E+00 -0.00000000000E+00 -0.16479981910E+03  0.16479981910E+03  0.00000000000E+00 0.  1.
          6    2    1    2  501    0  0.34510165537E+02  0.92522080503E+02  0.49020946225E+03  0.52886618384E+03  0.17217095175E+03 0.  0.
         24    2    3    3    0    0 -0.43128488499E+02  0.76016414065E+02  0.28583821834E+03  0.30957210512E+03  0.80578157573E+02 0.  0.
         -6    2    1    2    0  502 -0.34510165537E+02 -0.92522080503E+02 -0.77973288771E+02  0.21296962784E+03  0.17182823317E+03 0.  0.
        -24    2    5    5    0    0  0.24916388340E+02 -0.46190593335E+02  0.10540060360E+02  0.96630361107E+02  0.80448346749E+02 0.  0.
          5    1    3    3  501    0  0.77638654036E+02  0.16505666438E+02  0.20437124391E+03  0.21929407872E+03  0.47000000000E+01 0. -1.
        -11    1    4    4    0    0 -0.43766763434E+01  0.15853653260E+02  0.18605113720E+03  0.18677665612E+03  0.00000000000E+00 0.  1.
         12    1    4    4    0    0 -0.38751812156E+02  0.60162760804E+02  0.99787081133E+02  0.12279544900E+03  0.00000000000E+00 0. -1.
         -5    1    5    5    0  502 -0.59426553877E+02 -0.46331487168E+02 -0.88513349131E+02  0.11633926673E+03  0.47000000000E+01 0.  1.
         11    1    6    6    0    0 -0.25000890066E+02 -0.37185751344E+02  0.99682535720E+01  0.45904146723E+02  0.00000000000E+00 0. -1.
        -12    1    6    6    0    0  0.49917278406E+02 -0.90048419910E+01  0.57180678782E+00  0.50726214384E+02  0.00000000000E+00 0.  1.
</event>
<event>
12    1  0.9966151E-001  0.2131563E+03  0.7818608E-02  0.1139155E+00
         21   -1    0    0  503  502  0.00000000000E+00  0.00000000000E+00  0.27058289241E+03  0.27058289241E+03  0.00000000000E+00 0. -1.
         21   -1    0    0  501  503 -0.00000000000E+00 -0.00000000000E+00 -0.20195618648E+03  0.20195618648E+03  0.00000000000E+00 0. -1.
          6    2    1    2  501    0  0.33093800000E+02 -0.12081304688E+03  0.13166114000E+03  0.25025780621E+03  0.17205615911E+03 0.  0.
         24    2    3    3    0    0  0.73285254507E+02 -0.79152124819E+02  0.40366947509E+02  0.14205565732E+03  0.83153664577E+02 0.  0.
         -6    2    1    2    0  502 -0.33093800000E+02  0.12081304688E+03 -0.63034434077E+02  0.22228127268E+03  0.17246632254E+03 0.  0.
        -24    2    5    5    0    0 -0.28647961361E+02  0.67072720443E+02 -0.10791906059E+03  0.15196407803E+03  0.78275806313E+02 0.  0.
          5    1    3    3  501    0 -0.40191454507E+02 -0.41660922058E+02  0.91294192496E+02  0.10820214890E+03  0.47000000000E+01 0. -1.
        -13    1    4    4    0    0 -0.79364774955E+01  0.75495687615E+01 -0.82264561510E+01  0.13698840985E+02  0.00000000000E+00 0.  1.
         14    1    4    4    0    0  0.81221732003E+02 -0.86701693581E+02  0.48593403660E+02  0.12835681633E+03  0.00000000000E+00 0. -1.
         -5    1    5    5    0  502 -0.44458386382E+01  0.53740326435E+02  0.44884626517E+02  0.70317194655E+02  0.47000000000E+01 0.  1.
         13    1    6    6    0    0 -0.51998271565E+02  0.29087369265E+02 -0.44165076237E+02  0.74165013690E+02  0.00000000000E+00 0. -1.
        -14    1    6    6    0    0  0.23350310204E+02  0.37985351178E+02 -0.63753984356E+02  0.77799064339E+02  0.00000000000E+00 0.  1.
</event>
<event>
12    1  0.9966151E-001  0.2354856E+03  0.7818608E-02  0.1123241E+00
         21   -1    0    0  503  502  0.00000000000E+00  0.00000000000E+00  0.70358346612E+02  0.70358346612E+02  0.00000000000E+00 0. -1.
         21   -1    0    0  501  503 -0.00000000000E+00 -0.00000000000E+00 -0.78443590237E+03  0.78443590237E+03  0.00000000000E+00 0. -1.
          6    2    1    2  501    0  0.13091485645E+03 -0.93411543582E+02 -0.32777538749E+03  0.40359652766E+03  0.17201464002E+03 0.  0.
         24    2    3    3    0    0  0.14502435918E+03 -0.79688287178E+02 -0.33494776674E+03  0.38212704099E+03  0.80304303380E+02 0.  0.
         -6    2    1    2    0  502 -0.13091485645E+03  0.93411543582E+02 -0.38630216827E+03  0.45119772133E+03  0.16877678278E+03 0.  0.
        -24    2    5    5    0    0 -0.53382658850E+02  0.11586375547E+03 -0.22803234276E+03  0.27347104592E+03  0.80706539472E+02 0.  0.
          5    1    3    3  501    0 -0.14109502732E+02 -0.13723256404E+02  0.71723792513E+01  0.21469486668E+02  0.47000000000E+01 0. -1.
        -11    1    4    4    0    0  0.12380085475E+02 -0.27997621571E+02 -0.20186273084E+02  0.36669046225E+02  0.00000000000E+00 0.  1.
         12    1    4    4    0    0  0.13264427371E+03 -0.51690665607E+02 -0.31476149365E+03  0.34545799476E+03  0.00000000000E+00 0. -1.
         -5    1    5    5    0  502 -0.77532197602E+02 -0.22452211890E+02 -0.15826982551E+03  0.17772667541E+03  0.47000000000E+01 0.  1.
         11    1    6    6    0    0 -0.18649115424E+01  0.44811215694E+02 -0.22911624308E+02  0.50363334634E+02  0.00000000000E+00 0. -1.
        -12    1    6    6    0    0 -0.51517747308E+02  0.71052539778E+02 -0.20512071845E+03  0.22310771129E+03  0.00000000000E+00 0.  1.
</event>
<event>
12    1  0.9966151E-001  0.2466482E+03  0.7818608E-02  0.1115812E+00
         21   -1    0    0  503  502  0.00000000000E+00  0.00000000000E+00  0.98763339111E+02  0.98763339111E+02  0.00000000000E+00 0. -1.
         21   -1    0    0  501  503 -0.00000000000E+00 -0.00000000000E+00 -0.11010928467E+04  0.11010928467E+04  0.00000000000E+00 0.  1.
          6    2    1    2  501    0  0.15811814760E+03  0.73613869592E+02 -0.90041386393E+03  0.93298143513E+03  0.17113994724E+03 0.  0.
         24    2    3    3    0    0  0.42149870726E+02  0.71884131366E+02 -0.28843820749E+03  0.31009466587E+03  0.77576815605E+02 0.  0.
         -6    2    1    2    0  502 -0.15811814760E+03 -0.73613869592E+02 -0.10191564362E+03  0.26687475064E+03  0.17439892121E+03 0.  0.
        -24    2    5    5    0    0 -0.60535740365E+02 -0.10106516950E+03 -0.39891506226E+02  0.14794206511E+03  0.80104793943E+02 0.  0.
          5    1    3    3  501    0  0.11596827688E+03  0.17297382258E+01 -0.61197565644E+03  0.62288676925E+03  0.47000000000E+01 0. -1.
        -13    1    4    4    0    0 -0.12629016533E+02  0.55142004248E+02 -0.14258432556E+03  0.15339629261E+03  0.00000000000E+00 0.  1.
         14    1    4    4    0    0  0.54778887259E+02  0.16742127118E+02 -0.14585388193E+03  0.15669837326E+03  0.00000000000E+00 0. -1.
         -5    1    5    5    0  502 -0.97582407239E+02  0.27451299903E+02 -0.62024137392E+02  0.11893268553E+03  0.47000000000E+01 0.  1.
         11    1    6    6    0    0 -0.19369331971E+02 -0.95834260988E+02 -0.41954489505E+02  0.10639340106E+03  0.00000000000E+00 0. -1.
        -12    1    6    6    0    0 -0.41166408395E+02 -0.52309085075E+01  0.20629832790E+01  0.41548664045E+02  0.00000000000E+00 0.  1.
</event>
<event>
12    1  0.9966151E-001  0.1990274E+03  0.7818608E-02  0.1150717E+00
         21   -1    0    0  503  502  0.00000000000E+00  0.00000000000E+00  0.11297828542E+03  0.11297828542E+03  0.00000000000E+00 0. -1.
         21   -1    0    0  501  503 -0.00000000000E+00 -0.00000000000E+00 -0.35010325037E+03  0.35010325037E+03  0.00000000000E+00 0.  1.
          6    2    1    2  501    0  0.33005869121E+02  0.92800302598E+02 -0.12920969938E+03  0.23668013896E+03  0.17210769363E+03 0.  0.
         24    2    3    3    0    0 -0.41351698032E+02  0.83063485320E+02 -0.69034977201E+02  0.14041518899E+03  0.79630971986E+02 0.  0.
         -6    2    1    2    0  502 -0.33005869121E+02 -0.92800302598E+02 -0.10791526556E+03  0.22640139683E+03  0.17294682531E+03 0.  0.
        -24    2    5    5    0    0 -0.18049722078E+02 -0.53422161934E+02 -0.14190808027E+03  0.17206976932E+03  0.79311931095E+02 0.  0.
          5    1    3    3  501    0  0.74357567153E+02  0.97368172783E+01 -0.60174722180E+02  0.96264949972E+02  0.47000000000E+01 0. -1.
        -11    1    4    4    0    0 -0.61998374715E+02  0.75360339066E+02 -0.66813251902E+02  0.11826660476E+03  0.00000000000E+00 0.  1.
         12    1    4    4    0    0  0.20646676684E+02  0.77031462539E+01 -0.22217252989E+01  0.22148584235E+02  0.00000000000E+00 0. -1.
         -5    1    5    5    0  502 -0.14956147044E+02 -0.39378140664E+02  0.33992814706E+02  0.54331627513E+02  0.47000000000E+01 0.  1.
         11    1    6    6    0    0  0.24020431941E+02 -0.47198761588E+02 -0.94914433637E+02  0.10868971413E+03  0.00000000000E+00 0. -1.
        -12    1    6    6    0    0 -0.42070154019E+02 -0.62234003459E+01 -0.46993646634E+02  0.63380055183E+02  0.00000000000E+00 0.  1.
</event>
<event>
12    1  0.9966151E-001  0.4290231E+03  0.7818608E-02  0.1034180E+00
         21   -1    0    0  503  502  0.00000000000E+00  0.00000000000E+00  0.42354420526E+03  0.42354420526E+03  0.00000000000E+00 0. -1.
         21   -1    0    0  501  503 -0.00000000000E+00 -0.00000000000E+00 -0.52173739644E+03  0.52173739644E+03  0.00000000000E+00 0.  1.
          6    2    1    2  501    0 -0.19246849387E+03 -0.34227001922E+03  0.14425720707E+03  0.45249051810E+03  0.17246634452E+03 0.  0.
         24    2    3    3    0    0 -0.15214962736E+03 -0.14755212652E+03  0.46716745159E+02  0.23095744959E+03  0.78979428308E+02 0.  0.
         -6    2    1    2    0  502  0.19246849387E+03  0.34227001922E+03 -0.24245039825E+03  0.49279108359E+03  0.17282352058E+03 0.  0.
        -24    2    5    5    0    0  0.21123757031E+03  0.33256265740E+03 -0.21222504940E+03  0.45561349872E+03  0.85585959218E+02 0.  0.
          5    1    3    3  501    0 -0.40318866502E+02 -0.19471789270E+03  0.97540461910E+02  0.22153306851E+03  0.47000000000E+01 0. -1.
        -11    1    4    4    0    0 -0.56510857613E+02 -0.66959605539E+02  0.58473198793E+02  0.10533841075E+03  0.00000000000E+00 0.  1.
         12    1    4    4    0    0 -0.95638769750E+02 -0.80592520984E+02 -0.11756453634E+02  0.12561903884E+03  0.00000000000E+00 0. -1.
         -5    1    5    5    0  502 -0.18769076441E+02  0.97073618259E+01 -0.30225348850E+02  0.37177584876E+02  0.47000000000E+01 0.  1.
         13    1    6    6    0    0  0.81707380860E+02  0.60298961085E+02 -0.58199687341E+02  0.11704385674E+03  0.00000000000E+00 0. -1.
        -14    1    6    6    0    0  0.12953018945E+03  0.27226369631E+03 -0.15402536206E+03  0.33856964197E+03  0.00000000000E+00 0.  1.
</event>
<event>
12    1  0.9966151E-001  0.2092525E+03  0.7818608E-02  0.1142214E+00
         21   -1    0    0  503  502  0.00000000000E+00  0.00000000000E+00  0.63196737974E+03  0.63196737974E+03  0.00000000000E+00 0.  1.
         21   -1    0    0  501  503 -0.00000000000E+00 -0.00000000000E+00 -0.71522947100E+02  0.71522947100E+02  0.00000000000E+00 0.  1.
          6    2    1    2  501    0  0.62979096055E+02 -0.10236283496E+03  0.21658490159E+03  0.30096581567E+03  0.17095872626E+03 0.  0.
         24    2    3    3    0    0  0.10645754281E+03 -0.55081785947E+02  0.14611449943E+03  0.20549833164E+03  0.80702576148E+02 0.  0.
         -6    2    1    2    0  502 -0.62979096055E+02  0.10236283496E+03  0.34385953105E+03  0.40252451117E+03  0.17129532532E+03 0.  0.
        -24    2    5    5    0    0  0.23747111251E+02  0.74640091356E+02  0.24483709565E+03  0.26792318035E+03  0.75515287388E+02 0.  0.
          5    1    3    3  501    0 -0.43478446754E+02 -0.47281049013E+02  0.70470402160E+02  0.95467484038E+02  0.47000000000E+01 0. -1.
        -13    1    4    4    0    0 -0.50032866671E+00 -0.19572000887E+02 -0.16657282670E+01  0.19649127160E+02  0.00000000000E+00 0.  1.
         14    1    4    4    0    0  0.10695787148E+03 -0.35509785060E+02  0.14778022770E+03  0.18584920448E+03  0.00000000000E+00 0. -1.
         -5    1    5    5    0  502 -0.86726207306E+02  0.27722743604E+02  0.99022435396E+02  0.13460133082E+03  0.47000000000E+01 0.  1.
         11    1    6    6    0    0 -0.63888273678E+01  0.71231934688E+02  0.12218168508E+03  0.14157390227E+03  0.00000000000E+00 0. -1.
        -12    1    6    6    0    0  0.30135938619E+02  0.34081566684E+01  0.12265541057E+03  0.12634927808E+03  0.00000000000E+00 0.  1.
</event>
<event>
12    1  0.9966151E-001  0.1798946E+03  0.7818608E-02  0.1169383E+00
         21   -1    0    0  501  502  0.00000000000E+00  0.00000000000E+00  0.57724904810E+02  0.57724904810E+02  0.00000000000E+00 0. -1.
         21   -1    0    0  502  503 -0.00000000000E+00 -0.00000000000E+00 -0.76403911732E+03  0.76403911732E+03  0.00000000000E+00 0. -1.
         -6    2    1    2    0  503 -0.51781898538E+02 -0.40120404540E+01 -0.12748806385E+03  0.21562725958E+03  0.16596519866E+03 0.  0.
        -24    2    3    3    0    0 -0.13329570891E+02 -0.76849443621E+01 -0.15029938066E+03  0.17052162912E+03  0.79063179412E+02 0.  0.
          6    2    1    2  501    0  0.51781898538E+02  0.40120404540E+01 -0.57882614867E+03  0.60613676255E+03  0.17223415181E+03 0.  0.
         24    2    5    5    0    0  0.13851502869E+01 -0.52350532332E+02 -0.22615077465E+03  0.24541722983E+03  0.79642620168E+02 0.  0.
          5    1    5    5  501    0  0.50396748251E+02  0.56362572786E+02 -0.35267537402E+03  0.36071953272E+03  0.47000000000E+01 0. -1.
        -11    1    6    6    0    0  0.36516263844E+02 -0.21713436160E+02 -0.15205555492E+03  0.15787907593E+03  0.00000000000E+00 0.  1.
         12    1    6    6    0    0 -0.35131113557E+02 -0.30637096172E+02 -0.74095219731E+02  0.87538153902E+02  0.00000000000E+00 0. -1.
         -5    1    3    3    0  503 -0.38452327647E+02  0.36729039081E+01  0.22811316819E+02  0.45105630465E+02  0.47000000000E+01 0.  1.
         13    1    4    4    0    0  0.16037015819E+02  0.27625410821E+02 -0.41068343506E+02  0.52028434896E+02  0.00000000000E+00 0. -1.
        -14    1    4    4    0    0 -0.29366586710E+02 -0.35310355183E+02 -0.10923103716E+03  0.11849319422E+03  0.00000000000E+00 0.  1.
</event>
<event>
12    1  0.9966151E-001  0.1830595E+03  0.7818608E-02  0.1164940E+00
         21   -1    0    0  503  502  0.00000000000E+00  0.00000000000E+00  0.26293802909E+04  0.26293802909E+04  0.00000000000E+00 0.  1.
         21   -1    0    0  501  503 -0.00000000000E+00 -0.00000000000E+00 -0.73480557337E+02  0.73480557337E+02  0.00000000000E+00 0.  1.
          6    2    1    2  501    0 -0.63732483139E+02  0.52755491283E+01  0.25069671718E+04  0.25136418182E+04  0.17152588494E+03 0.  0.
         24    2    3    3    0    0 -0.95983488205E+02 -0.24852991061E+02  0.14171197479E+04  0.14228909972E+04  0.80993264265E+02 0.  0.
         -6    2    1    2    0  502  0.63732483139E+02 -0.52755491283E+01  0.48932561748E+02  0.18921902996E+03  0.17123021017E+03 0.  0.
        -24    2    5    5    0    0  0.40460574234E+02  0.18430337749E+02  0.95144642378E+02  0.13211213710E+03  0.80152220044E+02 0.  0.
          5    1    3    3  501    0  0.32251005067E+02  0.30128540190E+02  0.10898474239E+04  0.10907508210E+04  0.47000000000E+01 0. -1.
        -13    1    4    4    0    0  0.12636293294E+02 -0.86656486931E+01  0.96041857764E+02  0.97256402453E+02  0.00000000000E+00 0.  1.
         14    1    4    4    0    0 -0.10861978150E+03 -0.16187342368E+02  0.13210778902E+04  0.13256345948E+04  0.00000000000E+00 0. -1.
         -5    1    5    5    0  502  0.23271908905E+02 -0.23705886877E+02 -0.46212080629E+02  0.57106892866E+02  0.47000000000E+01 0.  1.
         11    1    6    6    0    0  0.41467887617E+02  0.10996376651E+02  0.67846902896E+01  0.43434295496E+02  0.00000000000E+00 0. -1.
        -12    1    6    6    0    0 -0.10073133831E+01  0.74339610976E+01  0.88359952088E+02  0.88677841600E+02  0.00000000000E+00 0.  1.
</event>
<event>
12    1  0.9966151E-001  0.2935666E+03  0.7818608E-02  0.1088508E+00
         21   -1    0    0  503  502  0.00000000000E+00  0.00000000000E+00  0.10801885130E+03  0.10801885130E+03  0.00000000000E+00 0. -1.
         21   -1    0    0  501  503 -0.00000000000E+00 -0.00000000000E+00 -0.81466032669E+03  0.81466032669E+03  0.00000000000E+00 0. -1.
          6    2    1    2  501    0  0.22109110701E+03 -0.87494108359E+02 -0.28678777383E+03  0.41040047492E+03  0.17217672897E+03 0.  0.
         24    2    3    3    0    0  0.35276269398E+02 -0.18657126631E+02 -0.52331276968E+02  0.10338643151E+03  0.79735112177E+02 0.  0.
         -6    2    1    2    0  502 -0.22109110701E+03  0.87494108359E+02 -0.41985370155E+03  0.51227870308E+03  0.17209254000E+03 0.  0.
        -24    2    5    5    0    0 -0.18242293131E+03  0.22468392815E+02 -0.21450111719E+03  0.29338296215E+03  0.79245685417E+02 0.  0.
          5    1    3    3  501    0  0.18581483761E+03 -0.68836981728E+02 -0.23445649686E+03  0.30701404341E+03  0.47000000000E+01 0. -1.
        -11    1    4    4    0    0  0.56366143133E+02 -0.21314749289E+01 -0.51807739788E+02  0.76588035482E+02  0.00000000000E+00 0.  1.
         12    1    4    4    0    0 -0.21089873735E+02 -0.16525651702E+02 -0.52353718068E+00  0.26798396025E+02  0.00000000000E+00 0. -1.
         -5    1    5    5    0  502 -0.38668175690E+02  0.65025715544E+02 -0.20535258436E+03  0.21889574093E+03  0.47000000000E+01 0.  1.
         13    1    6    6    0    0 -0.58879205929E+02 -0.20874170291E+02 -0.36283958646E+02  0.72242768020E+02  0.00000000000E+00 0. -1.
        -14    1    6    6    0    0 -0.12354372539E+03  0.43342563107E+02 -0.17821715855E+03  0.22114019413E+03  0.00000000000E+00 0.  1.
</event>
<event>
12    1  0.9966151E-001  0.3343114E+03  0.7818608E-02  0.1069331E+00
         21   -1    0    0  501  502  0.00000000000E+00  0.00000000000E+00  0.68676941575E+03  0.68676941575E+03  0.00000000000E+00 0. -1.
         21   -1    0    0  502  503 -0.00000000000E+00 -0.00000000000E+00 -0.19096719831E+03  0.19096719831E+03  0.00000000000E+00 0. -1.
         -6    2    1    2    0  503  0.29529328950E+02 -0.28505251642E+03  0.41752282582E+03  0.53438291881E+03  0.17062495551E+03 0.  0.
        -24    2    3    3    0    0  0.30196639554E+02 -0.52955792346E+02  0.14004543446E+03  0.17260242273E+03  0.80391041996E+02 0.  0.
          6    2    1    2  501    0 -0.29529328950E+02  0.28505251642E+03  0.78279391618E+02  0.34335369525E+03  0.17215451926E+03 0.  0.
         24    2    5    5    0    0 -0.57083686246E+02  0.17524792028E+03  0.10492094352E+03  0.22695715652E+03  0.80813153060E+02 0.  0.
          5    1    5    5  501    0  0.27554357296E+02  0.10980459614E+03 -0.26641551906E+02  0.11639653873E+03  0.47000000000E+01 0. -1.
        -11    1    6    6    0    0 -0.14514315743E+02  0.14003709464E+03  0.50944412341E+02  0.14972102854E+03  0.00000000000E+00 0.  1.
         12    1    6    6    0    0 -0.42569370503E+02  0.35210825638E+02  0.53976531183E+02  0.77236127983E+02  0.00000000000E+00 0. -1.
         -5    1    3    3    0  503 -0.66731060423E+00 -0.23209672408E+03  0.27747739135E+03  0.36178049608E+03  0.47000000000E+01 0.  1.
         13    1    4    4    0    0 -0.18351243601E+02 -0.16858428348E+02  0.92094967427E+02  0.95406801505E+02  0.00000000000E+00 0. -1.
        -14    1    4    4    0    0  0.48547883156E+02 -0.36097363999E+02  0.47950467036E+02  0.77195621220E+02  0.00000000000E+00 0.  1.
</event>
<event>
12    1  0.9966151E-001  0.1987690E+03  0.7818608E-02  0.1151170E+00
         21   -1    0    0  501  502  0.00000000000E+00  0.00000000000E+00  0.69072767300E+02  0.69072767300E+02  0.00000000000E+00 0.  1.
         21   -1    0    0  502  503 -0.00000000000E+00 -0.00000000000E+00 -0.58105503887E+03  0.58105503887E+03  0.00000000000E+00 0.  1.
         -6    2    1    2    0  503  0.92822787387E+02 -0.18098480808E+02 -0.30579685546E+03  0.36373379879E+03  0.17276265426E+03 0.  0.
        -24    2    3    3    0    0  0.75178419698E+01 -0.38610350884E+02 -0.23790931053E+03  0.25270011344E+03  0.75559447783E+02 0.  0.
          6    2    1    2  501    0 -0.92822787387E+02  0.18098480808E+02 -0.20618541610E+03  0.28639400738E+03  0.17482985095E+03 0.  0.
         24    2    5    5    0    0  0.84270459974E+01  0.17942612662E+02 -0.14724398254E+03  0.16914326902E+03  0.80843692434E+02 0.  0.
          5    1    5    5  501    0 -0.10124983338E+03  0.15586814521E+00 -0.58941433564E+02  0.11725073836E+03  0.47000000000E+01 0. -1.
        -11    1    6    6    0    0  0.12919861074E+02 -0.31131725552E+02 -0.53419917014E+02  0.63164821538E+02  0.00000000000E+00 0.  1.
         12    1    6    6    0    0 -0.44928150770E+01  0.49074338215E+02 -0.93824065527E+02  0.10597844748E+03  0.00000000000E+00 0. -1.
         -5    1    3    3    0  503  0.85304945417E+02  0.20511870076E+02 -0.67887544930E+02  0.11103368535E+03  0.47000000000E+01 0.  1.
         11    1    4    4    0    0 -0.18576863523E+02  0.14509858284E+02 -0.97861865392E+02  0.10066071996E+03  0.00000000000E+00 0. -1.
        -12    1    4    4    0    0  0.26094705493E+02 -0.53120209168E+02 -0.14004744514E+03  0.15203939347E+03  0.00000000000E+00 0.  1.
</event>
<event>
12    1  0.9966151E-001  0.2312463E+03  0.7818608E-02  0.1125809E+00
         21   -1    0    0  501  502  0.00000000000E+00  0.00000000000E+00  0.13459063213E+04  0.13459063213E+04  0.00000000000E+00 0.  1.
         21   -1    0    0  502  503 -0.00000000000E+00 -0.00000000000E+00 -0.48085302700E+02  0.48085302700E+02  0.00000000000E+00 0.  1.
         -6    2    1    2    0  503  0.40306433512E+02 -0.14834575362E+03  0.35736616276E+03  0.42552366512E+03  0.17242025428E+03 0.  0.
        -24    2    3    3    0    0  0.10510275544E+02 -0.16581972395E+03  0.34073180493E+03  0.38689799322E+03  0.77364381496E+02 0.  0.
          6    2    1    2  501    0 -0.40306433512E+02  0.14834575362E+03  0.94045485587E+03  0.96846795892E+03  0.17275352477E+03 0.  0.
         24    2    5    5    0    0 -0.65037821778E+02  0.54030925240E+02  0.68911422544E+03  0.69883648650E+03  0.79654001808E+02 0.  0.
          5    1    5    5  501    0  0.24731388266E+02  0.94314828377E+02  0.25134063043E+03  0.26963147243E+03  0.47000000000E+01 0. -1.
        -13    1    6    6    0    0 -0.15371447659E+01  0.10354190401E+02  0.38386947978E+03  0.38401217374E+03  0.00000000000E+00 0.  1.
         14    1    6    6    0    0 -0.63500677013E+02  0.43676734839E+02  0.30524474566E+03  0.31482431275E+03  0.00000000000E+00 0. -1.
         -5    1    3    3    0  503  0.29796157968E+02  0.17473970331E+02  0.16634357828E+02  0.38625671892E+02  0.47000000000E+01 0.  1.
         11    1    4    4    0    0  0.32537280408E+02 -0.10772555126E+03  0.27137803745E+03  0.29378479917E+03  0.00000000000E+00 0. -1.
        -12    1    4    4    0    0 -0.22027004864E+02 -0.58094172684E+02  0.69353767486E+02  0.93113194058E+02  0.00000000000E+00 0.  1.
</event>
<event>
12    1  0.9966151E-001  0.2809270E+03  0.7818608E-02  0.1095218E+00
         21   -1    0    0  503  502  0.00000000000E+00  0.00000000000E+00  0.14730650186E+04  0.14730650186E+04  0.00000000000E+00 0.  1.
         21   -1    0    0  501  503 -0.00000000000E+00 -0.00000000000E+00 -0.55984061819E+02  0.55984061819E+02  0.00000000000E+00 0.  1.
          6    2    1    2  501    0 -0.18852610746E+03  0.11619703672E+03  0.54869523729E+03  0.61643039643E+03  0.17284711650E+03 0.  0.
         24    2    3    3    0    0 -0.16814997870E+03  0.10978320524E+03  0.55336178738E+03  0.59406545630E+03  0.79860698376E+02 0.  0.
         -6    2    1    2    0  502  0.18852610746E+03 -0.11619703672E+03  0.86838571945E+03  0.91261868395E+03  0.17243914871E+03 0.  0.
        -24    2    5    5    0    0  0.18684168501E+03 -0.64857307924E+02  0.79304595853E+03  0.82131274435E+03  0.80724507002E+02 0.  0.
          5    1    3    3  501    0 -0.20376128762E+02  0.64138314821E+01 -0.46665500851E+01  0.22364940137E+02  0.47000000000E+01 0. -1.
        -13    1    4    4    0    0 -0.14679019397E+03  0.11480393762E+03  0.42817309435E+03  0.46696841849E+03  0.00000000000E+00 0.  1.
         14    1    4    4    0    0 -0.21359784726E+02 -0.50207323874E+01  0.12518869303E+03  0.12709703781E+03  0.00000000000E+00 0. -1.
         -5    1    5    5    0  502  0.16844224550E+01 -0.51339728795E+02  0.75339760916E+02  0.91305939602E+02  0.47000000000E+01 0.  1.
         11    1    6    6    0    0  0.48656945462E+02  0.18109449104E+02  0.21885964963E+03  0.22493331617E+03  0.00000000000E+00 0. -1.
        -12    1    6    6    0    0  0.13818473954E+03 -0.82966757028E+02  0.57418630891E+03  0.59637942817E+03  0.00000000000E+00 0.  1.
</event>
<event>
12    1  0.9966151E-001  0.1853739E+03  0.7818608E-02  0.1163691E+00
         21   -1    0    0  503  502  0.00000000000E+00  0.00000000000E+00  0.56127835182E+03  0.56127835182E+03  0.00000000000E+00 0.  1.
         21   -1    0    0  501  503 -0.00000000000E+00 -0.00000000000E+00 -0.10415038695E+03  0.10415038695E+03  0.00000000000E+00 0.  1.
          6    2    1    2  501    0 -0.49451281992E+02  0.29782707516E+02  0.44405683231E+03  0.47959460499E+03  0.17173257075E+03 0.  0.
         24    2    3    3    0    0 -0.90512920974E+02  0.48449644271E+02  0.27449669409E+03  0.30407468248E+03  0.81074167074E+02 0.  0.
         -6    2    1    2    0  502  0.49451281992E+02 -0.29782707516E+02  0.13071132561E+02  0.18583413378E+03  0.17615627101E+03 0.  0.
        -24    2    5    5    0    0  0.91381916469E+02 -0.38346376617E+02 -0.23047571560E+02  0.12963657758E+03  0.80332760650E+02 0.  0.
          5    1    3    3  501    0  0.41061638983E+02 -0.18666936755E+02  0.16956013822E+03  0.17551992251E+03  0.47000000000E+01 0. -1.
        -13    1    4    4    0    0 -0.11674079358E+02 -0.11413903228E+02  0.51600623780E+01  0.17122720564E+02  0.00000000000E+00 0.  1.
         14    1    4    4    0    0 -0.78838841616E+02  0.59863547499E+02  0.26933663171E+03  0.28695196192E+03  0.00000000000E+00 0. -1.
         -5    1    5    5    0  502 -0.41930634478E+02  0.85636691013E+01  0.36118704122E+02  0.56197556206E+02  0.47000000000E+01 0.  1.
         11    1    6    6    0    0  0.51851095051E+02 -0.35238026248E+02  0.24865787696E+02  0.67443027435E+02  0.00000000000E+00 0. -1.
        -12    1    6    6    0    0  0.39530821418E+02 -0.31083503692E+01 -0.47913359256E+02  0.62193550142E+02  0.00000000000E+00 0.  1.
</event>
<event>
12    1  0.9966151E-001  0.2973495E+03  0.7818608E-02  0.1087230E+00
         21   -1    0    0  501  502  0.00000000000E+00  0.00000000000E+00  0.14899302126E+04  0.14899302126E+04  0.00000000000E+00 0.  1.
         21   -1    0    0  502  503 -0.00000000000E+00 -0.00000000000E+00 -0.58632293189E+02  0.58632293189E+02  0.00000000000E+00 0.  1.
         -6    2    1    2    0  503 -0.16921059156E+03 -0.17329258694E+03  0.65284075103E+03  0.71524847861E+03  0.16345273008E+03 0.  0.
        -24    2    3    3    0    0 -0.76205154032E+02 -0.23813133684E+02  0.28765018863E+03  0.30981000582E+03  0.82857213628E+02 0.  0.
          6    2    1    2  501    0  0.16921059156E+03  0.17329258694E+03  0.77845716838E+03  0.83331402717E+03  0.17249394162E+03 0.  0.
         24    2    5    5    0    0  0.62533166572E+02  0.17008136693E+02  0.33508190701E+03  0.35122626049E+03  0.82947742687E+02 0.  0.
          5    1    5    5  501    0  0.10667742499E+03  0.15628445025E+03  0.44337526137E+03  0.48208776668E+03  0.47000000000E+01 0. -1.
        -13    1    6    6    0    0  0.78668467525E+02  0.21239897627E+01  0.21059745927E+03  0.22482110436E+03  0.00000000000E+00 0.  1.
         14    1    6    6    0    0 -0.16135300953E+02  0.14884146931E+02  0.12448444774E+03  0.12640515613E+03  0.00000000000E+00 0. -1.
         -5    1    3    3    0  503 -0.93005437532E+02 -0.14947945326E+03  0.36519056240E+03  0.40543847279E+03  0.47000000000E+01 0.  1.
         13    1    4    4    0    0 -0.15704743615E+02 -0.34902031070E+02  0.19419147139E+03  0.19792705299E+03  0.00000000000E+00 0. -1.
        -14    1    4    4    0    0 -0.60500410416E+02  0.11088897386E+02  0.93458717246E+02  0.11188295283E+03  0.00000000000E+00 0.  1.
</event>
<event>
12    1  0.9966151E-001  0.4680671E+03  0.7818608E-02  0.1022486E+00
         21   -1    0    0  501  502  0.00000000000E+00  0.00000000000E+00  0.43609752475E+03  0.43609752475E+03  0.00000000000E+00 0. -1.
         21   -1    0    0  502  503 -0.00000000000E+00 -0.00000000000E+00 -0.50303444504E+03  0.50303444504E+03  0.00000000000E+00 0.  1.
         -6    2    1    2    0  503 -0.28385096530E+03 -0.32931448022E+03 -0.13194700344E+02  0.46825300626E+03  0.17339948205E+03 0.  0.
        -24    2    3    3    0    0 -0.88367274212E+02 -0.74280244815E+02  0.24089923770E+02  0.14472778637E+03  0.83901595931E+02 0.  0.
          6    2    1    2  501    0  0.28385096530E+03  0.32931448022E+03 -0.53742219945E+02  0.47087896353E+03  0.17268287323E+03 0.  0.
         24    2    5    5    0    0  0.20469412241E+03  0.30210978597E+03 -0.46881766606E+01  0.37374868850E+03  0.80598366161E+02 0.  0.
          5    1    5    5  501    0  0.79156842883E+02  0.27204694252E+02 -0.49054043284E+02  0.97130275028E+02  0.47000000000E+01 0. -1.
        -13    1    6    6    0    0  0.31054704687E+02  0.10249805978E+03  0.16379803677E+02  0.10834456567E+03  0.00000000000E+00 0.  1.
         14    1    6    6    0    0  0.17363941773E+03  0.19961172619E+03 -0.21067980338E+02  0.26540412283E+03  0.00000000000E+00 0. -1.
         -5    1    3    3    0  503 -0.19548369108E+03 -0.25503423541E+03 -0.37284624114E+02  0.32352521989E+03  0.47000000000E+01 0.  1.
         13    1    4    4    0    0 -0.88430834025E+02 -0.83501523908E+02  0.38541162635E+02  0.12758502310E+03  0.00000000000E+00 0. -1.
        -14    1    4    4    0    0  0.63559813323E-01  0.92212790937E+01 -0.14451238866E+02  0.17142763276E+02  0.00000000000E+00 0.  1.
</event>
<event>
12    1  0.9966151E-001  0.1772501E+03  0.7818608E-02  0.1174355E+00
         21   -1    0    0  503  502  0.00000000000E+00  0.00000000000E+00  0.62109796560E+03  0.62109796560E+03  0.00000000000E+00 0.  1.
         21   -1    0    0  501  503 -0.00000000000E+00 -0.00000000000E+00 -0.57191058025E+02  0.57191058025E+02  0.00000000000E+00 0.  1.
          6    2    1    2  501    0  0.21807428618E+02  0.41917796302E+02  0.43913044102E+03  0.47355374055E+03  0.17083598968E+03 0.  0.
         24    2    3    3    0    0  0.74851169303E+01  0.73866495502E+02  0.16407333647E+03  0.19623740718E+03  0.77953666381E+02 0.  0.
         -6    2    1    2    0  502 -0.21807428618E+02 -0.41917796302E+02  0.12477646655E+03  0.20473528307E+03  0.15528909794E+03 0.  0.
        -24    2    5    5    0    0 -0.71448081515E+02 -0.24113030835E+02  0.92241455595E+02  0.14259173126E+03  0.78343149581E+02 0.  0.
          5    1    3    3  501    0  0.14322311688E+02 -0.31948699200E+02  0.27505710455E+03  0.27731633338E+03  0.47000000000E+01 0. -1.
        -13    1    4    4    0    0 -0.68584935684E+00 -0.12954588043E+02  0.33783689449E+01  0.13405413736E+02  0.00000000000E+00 0.  1.
         14    1    4    4    0    0  0.81709662871E+01  0.86821083545E+02  0.16069496752E+03  0.18283199344E+03  0.00000000000E+00 0. -1.
         -5    1    5    5    0  502  0.49640652897E+02 -0.17804765467E+02  0.32535010959E+02  0.62143551809E+02  0.47000000000E+01 0.  1.
         11    1    6    6    0    0 -0.14562747050E+02 -0.45267086859E+02  0.47315803513E+02  0.67081800933E+02  0.00000000000E+00 0. -1.
        -12    1    6    6    0    0 -0.56885334465E+02  0.21154056025E+02  0.44925652083E+02  0.75509930331E+02  0.00000000000E+00 0.  1.
</event>
<event>
12    1  0.9966151E-001  0.2116667E+03  0.7818608E-02  0.1140337E+00
         21   -1    0    0  501  502  0.00000000000E+00  0.00000000000E+00  0.43921659086E+03  0.43921659086E+03  0.00000000000E+00 0. -1.
         21   -1    0    0  502  503 -0.00000000000E+00 -0.00000000000E+00 -0.10973760653E+03  0.10973760653E+03  0.00000000000E+00 0. -1.
         -6    2    1    2    0  503 -0.11233406943E+03  0.51105734973E+02  0.91072782834E+02  0.23042795675E+03  0.17196526445E+03 0.  0.
        -24    2    3    3    0    0 -0.13022445939E+02 -0.22310428939E+02  0.17913348885E+02  0.86806494360E+02  0.80914399565E+02 0.  0.
          6    2    1    2  501    0  0.11233406943E+03 -0.51105734973E+02  0.23840620150E+03  0.31852624064E+03  0.17143718896E+03 0.  0.
         24    2    5    5    0    0  0.12570222874E+02 -0.67739892983E+02  0.15626481483E+03  0.18814672653E+03  0.78954383972E+02 0.  0.
          5    1    5    5  501    0  0.99763846559E+02  0.16634158010E+02  0.82141386676E+02  0.13037951410E+03  0.47000000000E+01 0. -1.
        -11    1    6    6    0    0  0.17379076019E+02 -0.44133707571E+02  0.15703632534E+03  0.16404335982E+03  0.00000000000E+00 0.  1.
         12    1    6    6    0    0 -0.48088531452E+01 -0.23606185412E+02 -0.77151051070E+00  0.24103366710E+02  0.00000000000E+00 0. -1.
         -5    1    3    3    0  503 -0.99311623494E+02  0.73416163913E+02  0.73159433949E+02  0.14362146239E+03  0.47000000000E+01 0.  1.
         11    1    4    4    0    0  0.26080138312E+02 -0.91350019217E+01  0.32846754361E+02  0.42924714868E+02  0.00000000000E+00 0. -1.
        -12    1    4    4    0    0 -0.39102584251E+02 -0.13175427018E+02 -0.14933405476E+02  0.43881779491E+02  0.00000000000E+00 0.  1.
</event>
<event>
12    1  0.9966151E-001  0.3040267E+03  0.7818608E-02  0.1083410E+00
         21   -1    0    0  503  502  0.00000000000E+00  0.00000000000E+00  0.19962899424E+03  0.19962899424E+03  0.00000000000E+00 0.  1.
         21   -1    0    0  501  503 -0.00000000000E+00 -0.00000000000E+00 -0.63461585187E+03  0.63461585187E+03  0.00000000000E+00 0.  1.
          6    2    1    2  501    0  0.42904819051E+02 -0.24574460275E+03  0.10409761135E+01  0.30268817119E+03  0.17142873757E+03 0.  0.
         24    2    3    3    0    0  0.36770407463E+02 -0.12142440522E+03 -0.63173528989E+02  0.16254989952E+03  0.79596645794E+02 0.  0.
         -6    2    1    2    0  502 -0.42904819051E+02  0.24574460275E+03 -0.43602783375E+03  0.53155667492E+03  0.17378433062E+03 0.  0.
        -24    2    5    5    0    0 -0.10304786430E+03  0.17401032622E+03 -0.29101984068E+03  0.35889399692E+03  0.56691246119E+02 0.  0.
          5    1    3    3  501    0  0.61344115882E+01 -0.12432019753E+03  0.64214505103E+02  0.14013827167E+03  0.47000000000E+01 0. -1.
        -11    1    4    4    0    0 -0.22517908945E+02 -0.43013673870E+02 -0.36357563770E+02  0.60655624688E+02  0.00000000000E+00 0.  1.
         12    1    4    4    0    0  0.59288316408E+02 -0.78410731353E+02 -0.26815965220E+02  0.10189427484E+03  0.00000000000E+00 0. -1.
         -5    1    5    5    0  502  0.60143045246E+02  0.71734276532E+02 -0.14500799307E+03  0.17266267800E+03  0.47000000000E+01 0.  1.
         11    1    6    6    0    0  0.39997013794E+01  0.33832364685E+00 -0.72172588398E+00  0.40783528864E+01  0.00000000000E+00 0. -1.
        -12    1    6    6    0    0 -0.10704756568E+03  0.17367200257E+03 -0.29029811479E+03  0.35481564403E+03  0.00000000000E+00 0.  1.
</event>
<event>
12    1  0.9966151E-001  0.2005400E+03  0.7818608E-02  0.1149745E+00
         21   -1    0    0  501  502  0.00000000000E+00  0.00000000000E+00  0.36897662314E+03  0.36897662314E+03  0.00000000000E+00 0. -1.
         21   -1    0    0  502  503 -0.00000000000E+00 -0.00000000000E+00 -0.11334207162E+03  0.11334207162E+03  0.00000000000E+00 0. -1.
         -6    2    1    2    0  503  0.51612103237E+02 -0.83831562719E+02  0.73884107696E+02  0.21167223156E+03  0.17220549391E+03 0.  0.
        -24    2    3    3    0    0  0.25614439768E+02 -0.80043891083E+02  0.11560643881E+03  0.16214377634E+03  0.76567822796E+02 0.  0.
          6    2    1    2  501    0 -0.51612103237E+02  0.83831562719E+02  0.18175044383E+03  0.27064646320E+03  0.17471331977E+03 0.  0.
         24    2    5    5    0    0 -0.96821508242E+02  0.32959645538E+02  0.13548319913E+03  0.18821715901E+03  0.81297349318E+02 0.  0.
          5    1    5    5  501    0  0.45209405005E+02  0.50871917181E+02  0.46267244698E+02  0.82429304197E+02  0.47000000000E+01 0. -1.
        -13    1    6    6    0    0 -0.57483847056E+02  0.16854114031E+02  0.13272924216E+03  0.14562110271E+03  0.00000000000E+00 0.  1.
         14    1    6    6    0    0 -0.39337661186E+02  0.16105531507E+02  0.27539569727E+01  0.42596056293E+02  0.00000000000E+00 0. -1.
         -5    1    3    3    0  503  0.25997663469E+02 -0.37876716355E+01 -0.41722331114E+02  0.49528455214E+02  0.47000000000E+01 0.  1.
         13    1    4    4    0    0  0.12414830194E+02  0.47419920001E+01 -0.49386234720E+01  0.14177605534E+02  0.00000000000E+00 0. -1.
        -14    1    4    4    0    0  0.13199609575E+02 -0.84785883083E+02  0.12054506228E+03  0.14796617081E+03  0.00000000000E+00 0.  1.
</event>
<event>
12    1  0.9966151E-001  0.5311915E+03  0.7818608E-02  0.1005958E+00
         21   -1    0    0  501  502  0.00000000000E+00  0.00000000000E+00  0.63573515135E+03  0.63573515135E+03  0.00000000000E+00 0. -1.
         21   -1    0    0  502  503 -0.00000000000E+00 -0.00000000000E+00 -0.83465629786E+03  0.83465629786E+03  0.00000000000E+00 0. -1.
         -6    2    1    2    0  503 -0.16142869940E+03  0.47613820170E+03 -0.60265691226E+03  0.80318308638E+03  0.17070707148E+03 0.  0.
        -24    2    3    3    0    0 -0.64555224480E+02  0.11511673323E+03 -0.86262667519E+02  0.16568322220E+03  0.50896395089E+02 0.  0.
          6    2    1    2  501    0  0.16142869940E+03 -0.47613820170E+03  0.40373576574E+03  0.66720836283E+03  0.17145733809E+03 0.  0.
         24    2    5    5    0    0  0.14637046900E+03 -0.23954891254E+03  0.25333717906E+03  0.38641828657E+03  0.79569907689E+02 0.  0.
          5    1    5    5  501    0  0.15058230398E+02 -0.23658928916E+03  0.15039858668E+03  0.28079007625E+03  0.47000000000E+01 0. -1.
        -13    1    6    6    0    0  0.14095739408E+03 -0.22606418827E+03  0.20560252437E+03  0.33652102786E+03  0.00000000000E+00 0.  1.
         14    1    6    6    0    0  0.54130749164E+01 -0.13484724270E+02  0.47734654690E+02  0.49897258713E+02  0.00000000000E+00 0. -1.
         -5    1    3    3    0  503 -0.96873474916E+02  0.36102146847E+03 -0.51639424474E+03  0.63749986419E+03  0.47000000000E+01 0.  1.
         13    1    4    4    0    0 -0.15817537507E+02  0.44504903631E+01  0.11533800623E+01  0.16472147486E+02  0.00000000000E+00 0. -1.
        -14    1    4    4    0    0 -0.48737686973E+02  0.11066624287E+03 -0.87416047581E+02  0.14921107471E+03  0.00000000000E+00 0.  1.
</event>
<event>
12    1  0.9966151E-001  0.1874713E+03  0.7818608E-02  0.1160971E+00
         21   -1    0    0  501  502  0.00000000000E+00  0.00000000000E+00  0.81723529697E+03  0.81723529697E+03  0.00000000000E+00 0. -1.
         21   -1    0    0  502  503 -0.00000000000E+00 -0.00000000000E+00 -0.42881687890E+02  0.42881687890E+02  0.00000000000E+00 0. -1.
         -6    2    1    2    0  503  0.42401821350E+02 -0.61178180108E+02  0.36899496786E+03  0.41388741292E+03  0.17206051288E+03 0.  0.
        -24    2    3    3    0    0  0.56970451656E+02 -0.15777161629E+02  0.34467662506E+03  0.36015688840E+03  0.86118855157E+02 0.  0.
          6    2    1    2  501    0 -0.42401821350E+02  0.61178180108E+02  0.40535864121E+03  0.44622957194E+03  0.17106875427E+03 0.  0.
         24    2    5    5    0    0 -0.73364654631E+02 -0.31929871417E+01  0.30934563405E+03  0.32646759231E+03  0.74120171419E+02 0.  0.
          5    1    5    5  501    0  0.30962833281E+02  0.64371167250E+02  0.96013007168E+02  0.11976197962E+03  0.47000000000E+01 0. -1.
        -13    1    6    6    0    0  0.98906262028E+01 -0.16822503129E+02  0.70951845235E+02  0.73586584650E+02  0.00000000000E+00 0.  1.
         14    1    6    6    0    0 -0.83255280834E+02  0.13629515988E+02  0.23839378881E+03  0.25288100766E+03  0.00000000000E+00 0. -1.
         -5    1    3    3    0  503 -0.14568630306E+02 -0.45401018480E+02  0.24318342806E+02  0.53730524517E+02  0.47000000000E+01 0.  1.
         11    1    4    4    0    0  0.78355191066E+02 -0.23353304441E+02  0.27155734587E+03  0.28359884501E+03  0.00000000000E+00 0. -1.
        -12    1    4    4    0    0 -0.21384739409E+02  0.75761428127E+01  0.73119279191E+02  0.76558043398E+02  0.00000000000E+00 0.  1.
</event>
<event>
12    1  0.9966151E-001  0.2523446E+03  0.7818608E-02  0.1112118E+00
         21   -1    0    0  501  502  0.00000000000E+00  0.00000000000E+00  0.20174530102E+04  0.20174530102E+04  0.00000000000E+00 0.  1.
         21   -1    0    0  502  503 -0.00000000000E+00 -0.00000000000E+00 -0.37332222810E+02  0.37332222810E+02  0.00000000000E+00 0. -1.
         -6    2    1    2    0  503  0.12007993313E+03  0.13954751957E+03  0.13987989980E+04  0.14210559215E+04  0.16990760649E+03 0.  0.
        -24    2    3    3    0    0  0.39479947113E+02  0.22343451556E+02  0.83295266646E+03  0.83758586041E+03  0.75379260689E+02 0.  0.
          6    2    1    2  501    0 -0.12007993313E+03 -0.13954751957E+03  0.58132178942E+03  0.63372931151E+03  0.17258365177E+03 0.  0.
         24    2    5    5    0    0 -0.13640976222E+03 -0.73397632196E+02  0.32219739747E+03  0.36575541087E+03  0.77272388411E+02 0.  0.
          5    1    5    5  501    0  0.16329829090E+02 -0.66149887372E+02  0.25912439195E+03  0.26797390064E+03  0.47000000000E+01 0. -1.
        -13    1    6    6    0    0 -0.31325795580E+02 -0.29503366655E+02  0.30868767262E+02  0.52958803847E+02  0.00000000000E+00 0.  1.
         14    1    6    6    0    0 -0.10508396664E+03 -0.43894265541E+02  0.29132863020E+03  0.31279660703E+03  0.00000000000E+00 0. -1.
         -5    1    3    3    0  503  0.80599986012E+02  0.11720406801E+03  0.56584633152E+03  0.58347006110E+03  0.47000000000E+01 0.  1.
         13    1    4    4    0    0  0.19313504930E+02 -0.24463842488E+02  0.18276874625E+03  0.18540740456E+03  0.00000000000E+00 0. -1.
        -14    1    4    4    0    0  0.20166442183E+02  0.46807294044E+02  0.65018392021E+03  0.65217845585E+03  0.00000000000E+00 0.  1.
</event>
<event>
12    1  0.9966151E-001  0.2675832E+03  0.7818608E-02  0.1102722E+00
         21   -1    0    0  503  502  0.00000000000E+00  0.00000000000E+00  0.20069785650E+03  0.20069785650E+03  0.00000000000E+00 0. -1.
         21   -1    0    0  501  503 -0.00000000000E+00 -0.00000000000E+00 -0.36291304169E+03  0.36291304169E+03  0.00000000000E+00 0. -1.
          6    2    1    2  501    0 -0.20341802748E+03  0.37067641293E+02 -0.11924179790E+03  0.29294947971E+03  0.16984665837E+03 0.  0.
         24    2    3    3    0    0 -0.25802992247E+02  0.98553822982E+01 -0.63295167481E+02  0.10469506878E+03  0.78688348758E+02 0.  0.
         -6    2    1    2    0  502  0.20341802748E+03 -0.37067641293E+02 -0.42973387292E+02  0.27066141849E+03  0.16928670209E+03 0.  0.
        -24    2    5    5    0    0  0.12630495412E+03  0.18100191116E+02  0.25843132902E+02  0.15341074997E+03  0.81156837877E+02 0.  0.
          5    1    3    3  501    0 -0.17761503523E+03  0.27212258995E+02 -0.55946630417E+02  0.18825441093E+03  0.47000000000E+01 0. -1.
        -11    1    4    4    0    0 -0.21254377224E+02 -0.33216034618E+02 -0.23670793261E+02  0.45993042523E+02  0.00000000000E+00 0.  1.
         12    1    4    4    0    0 -0.45486150222E+01  0.43071416916E+02 -0.39624374220E+02  0.58702026252E+02  0.00000000000E+00 0. -1.
         -5    1    5    5    0  502  0.77113073360E+02 -0.55167832409E+02 -0.68816520194E+02  0.11725066852E+03  0.47000000000E+01 0.  1.
         13    1    6    6    0    0  0.13094257309E+03  0.22249062029E+02  0.63749050766E+01  0.13297224381E+03  0.00000000000E+00 0. -1.
        -14    1    6    6    0    0 -0.46376189670E+01 -0.41488709139E+01  0.19468227825E+02  0.20438506164E+02  0.00000000000E+00 0.  1.
</event>
<event>
12    1  0.9966151E-001  0.2136133E+03  0.7818608E-02  0.1138739E+00
         21   -1    0    0  503  502  0.00000000000E+00  0.00000000000E+00  0.41858980829E+03  0.41858980829E+03  0.00000000000E+00 0. -1.
         21   -1    0    0  501  503 -0.00000000000E+00 -0.00000000000E+00 -0.11602440886E+03  0.11602440886E+03  0.00000000000E+00 0. -1.
          6    2    1    2  501    0  0.73577043142E+02  0.10347187761E+03  0.85523153871E+02  0.23008510156E+03  0.17177000139E+03 0.  0.
         24    2    3    3    0    0 -0.23060763616E+02  0.26458889989E+02  0.51724855876E+02  0.10188884223E+03  0.80461194236E+02 0.  0.
         -6    2    1    2    0  502 -0.73577043142E+02 -0.10347187761E+03  0.21704224555E+03  0.30452911560E+03  0.17178659772E+03 0.  0.
        -24    2    5    5    0    0 -0.90718787668E+02 -0.65947648162E+02  0.77868305757E+02  0.15929350454E+03  0.82048502803E+02 0.  0.
          5    1    3    3  501    0  0.96637806758E+02  0.77012987623E+02  0.33798297995E+02  0.12819625933E+03  0.47000000000E+01 0. -1.
        -11    1    4    4    0    0  0.21319114433E+02 -0.15170134312E+02  0.95528600332E+01  0.27854887364E+02  0.00000000000E+00 0.  1.
         12    1    4    4    0    0 -0.44379878050E+02  0.41629024301E+02  0.42171995843E+02  0.74033954867E+02  0.00000000000E+00 0. -1.
         -5    1    5    5    0  502  0.17141744526E+02 -0.37524229451E+02  0.13917393980E+03  0.14523561106E+03  0.47000000000E+01 0.  1.
         11    1    6    6    0    0 -0.65958751656E+01 -0.43427994718E+02  0.22898995093E+01  0.43985678740E+02  0.00000000000E+00 0. -1.
        -12    1    6    6    0    0 -0.84122912502E+02 -0.22519653443E+02  0.75578406248E+02  0.11530782580E+03  0.00000000000E+00 0.  1.
</event>
<event>
12    1  0.9966151E-001  0.1892813E+03  0.7818608E-02  0.1159203E+00
         21   -1    0    0  501  502  0.00000000000E+00  0.00000000000E+00  0.99780996107E+03  0.99780996107E+03  0.00000000000E+00 0. -1.
         21   -1    0    0  502  503 -0.00000000000E+00 -0.00000000000E+00 -0.37101079994E+02  0.37101079994E+02  0.00000000000E+00 0. -1.
         -6    2    1    2    0  503 -0.71550075129E+02 -0.29464582381E+02  0.57666332115E+03  0.60693327173E+03  0.17274210691E+03 0.  0.
        -24    2    3    3    0    0 -0.96727886085E+02 -0.50503674926E+02  0.30982102589E+03  0.33804023329E+03  0.79845013062E+02 0.  0.
          6    2    1    2  501    0  0.71550075129E+02  0.29464582381E+02  0.38404555992E+03  0.42797776933E+03  0.17229742912E+03 0.  0.
         24    2    5    5    0    0  0.75339502625E+02  0.50409408983E+01  0.11899375607E+03  0.16173460463E+03  0.79354373614E+02 0.  0.
          5    1    5    5  501    0 -0.37894274963E+01  0.24423641482E+02  0.26505180385E+03  0.26624316470E+03  0.47000000000E+01 0. -1.
        -11    1    6    6    0    0  0.63730563458E+02  0.31105034757E+02  0.49138371797E+02  0.86276807363E+02  0.00000000000E+00 0.  1.
         12    1    6    6    0    0  0.11608939167E+02 -0.26064093858E+02  0.69855384269E+02  0.75457797269E+02  0.00000000000E+00 0. -1.
         -5    1    3    3    0  503  0.25177810956E+02  0.21039092546E+02  0.26684229526E+03  0.26889303844E+03  0.47000000000E+01 0.  1.
         13    1    4    4    0    0  0.62183100940E+01  0.85034692456E+01  0.66059605550E+01  0.12434431410E+02  0.00000000000E+00 0. -1.
        -14    1    4    4    0    0 -0.10294619618E+03 -0.59007144172E+02  0.30321506533E+03  0.32560580188E+03  0.00000000000E+00 0.  1.
</event>
<event>
12    1  0.9966151E-001  0.3375633E+03  0.7818608E-02  0.1067876E+00
         21   -1    0    0  501  502  0.00000000000E+00  0.00000000000E+00  0.85506989515E+03  0.85506989515E+03  0.00000000000E+00 0.  1.
         21   -1    0    0  502  503 -0.00000000000E+00 -0.00000000000E+00 -0.13880714132E+03  0.13880714132E+03  0.00000000000E+00 0.  1.
         -6    2    1    2    0  503 -0.29029141644E+03  0.73571403295E+01  0.25741781137E+03  0.42423885400E+03  0.17143932357E+03 0.  0.
        -24    2    3    3    0    0 -0.14083063036E+03 -0.60084731329E+02  0.12029039959E+03  0.21043298484E+03  0.79804883863E+02 0.  0.
          6    2    1    2  501    0  0.29029141644E+03 -0.73571403295E+01  0.45884494245E+03  0.56963818247E+03  0.17212130530E+03 0.  0.
         24    2    5    5    0    0  0.61353404409E+02 -0.14127753895E+02  0.91577731777E+02  0.13678052850E+03  0.79740819889E+02 0.  0.
          5    1    5    5  501    0  0.22893801203E+03  0.67706135659E+01  0.36726721068E+03  0.43285765397E+03  0.47000000000E+01 0. -1.
        -11    1    6    6    0    0  0.21786996273E+02  0.33150049191E+02  0.30947148578E+02  0.50312274577E+02  0.00000000000E+00 0.  1.
         12    1    6    6    0    0  0.39566408136E+02 -0.47277803087E+02  0.60630583198E+02  0.86468253923E+02  0.00000000000E+00 0. -1.
         -5    1    3    3    0  503 -0.14946078608E+03  0.67441871658E+02  0.13712741178E+03  0.21380586916E+03  0.47000000000E+01 0.  1.
         11    1    4    4    0    0 -0.10531716679E+03 -0.19064711593E+02  0.11307914225E+03  0.15569862318E+03  0.00000000000E+00 0. -1.
        -12    1    4    4    0    0 -0.35513463574E+02 -0.41020019736E+02  0.72112573440E+01  0.54734361663E+02  0.00000000000E+00 0.  1.
</event>
<event>
12    1  0.9966151E-001  0.3929544E+03  0.7818608E-02  0.1046329E+00
         21   -1    0    0  501  502  0.00000000000E+00  0.00000000000E+00  0.18059740772E+03  0.18059740772E+03  0.00000000000E+00 0.  1.
         21   -1    0    0  502  503 -0.00000000000E+00 -0.00000000000E+00 -0.10927377176E+04  0.10927377176E+04  0.00000000000E+00 0.  1.
         -6    2    1    2    0  503 -0.20487523866E+03  0.28659801113E+03 -0.75470707305E+03  0.85087949166E+03  0.17407142159E+03 0.  0.
        -24    2    3    3    0    0 -0.14151847341E+03  0.15304612166E+03 -0.58220208387E+03  0.62365658750E+03  0.80855915018E+02 0.  0.
          6    2    1    2  501    0  0.20487523866E+03 -0.28659801113E+03 -0.15743323682E+03  0.42245563365E+03  0.17196294643E+03 0.  0.
         24    2    5    5    0    0  0.11557882690E+03 -0.26429517860E+03 -0.11639156320E+03  0.32157067706E+03  0.81549357467E+02 0.  0.
          5    1    5    5  501    0  0.89296411755E+02 -0.22302832532E+02 -0.41041673622E+02  0.10088495658E+03  0.47000000000E+01 0. -1.
        -11    1    6    6    0    0  0.14990135088E+02 -0.13239658302E+03 -0.41371761274E+02  0.13951767621E+03  0.00000000000E+00 0.  1.
         12    1    6    6    0    0  0.10058869182E+03 -0.13189859558E+03 -0.75019801928E+02  0.18205300085E+03  0.00000000000E+00 0. -1.
         -5    1    3    3    0  503 -0.63356765254E+02  0.13355188947E+03 -0.17250498918E+03  0.22722290416E+03  0.47000000000E+01 0.  1.
         13    1    4    4    0    0  0.30779225889E+01  0.20450986625E+02 -0.22473507900E+02  0.30541365698E+02  0.00000000000E+00 0. -1.
        -14    1    4    4    0    0 -0.14459639599E+03  0.13259513503E+03 -0.55972857597E+03  0.59311522180E+03  0.00000000000E+00 0.  1.
</event>
<event>
12    1  0.9966151E-001  0.2229022E+03  0.7818608E-02  0.1132382E+00
         21   -1    0    0  503  502  0.00000000000E+00  0.00000000000E+00  0.15970310145E+03  0.15970310145E+03  0.00000000000E+00 0.  1.
         21   -1    0    0  501  503 -0.00000000000E+00 -0.00000000000E+00 -0.30979900610E+03  0.30979900610E+03  0.00000000000E+00 0.  1.
          6    2    1    2  501    0  0.12563633488E+03 -0.50580625048E+02 -0.10069574638E+03  0.24459152268E+03  0.17703810707E+03 0.  0.
         24    2    3    3    0    0  0.23620753871E+02 -0.57004458228E+01 -0.10400224155E+03  0.13299209541E+03  0.79246426411E+02 0.  0.
         -6    2    1    2    0  502 -0.12563633488E+03  0.50580625048E+02 -0.49400158261E+02  0.22491058487E+03  0.17263113068E+03 0.  0.
        -24    2    5    5    0    0 -0.50641719807E+02 -0.15911490473E+02 -0.74408694916E+02  0.12150405402E+03  0.80055118207E+02 0.  0.
          5    1    3    3  501    0  0.10201558101E+03 -0.44880179225E+02  0.33064951663E+01  0.11159942727E+03  0.47000000000E+01 0. -1.
        -11    1    4    4    0    0 -0.13241995678E+02  0.27570025973E+02 -0.24197756415E+02  0.38999848682E+02  0.00000000000E+00 0.  1.
         12    1    4    4    0    0  0.36862749549E+02 -0.33270471796E+02 -0.79804485135E+02  0.93992246731E+02  0.00000000000E+00 0. -1.
         -5    1    5    5    0  502 -0.74994615072E+02  0.66492115521E+02  0.25008536655E+02  0.10340653085E+03  0.47000000000E+01 0.  1.
         11    1    6    6    0    0 -0.51513794798E+02  0.15693308425E+02 -0.71840462243E+02  0.89783088603E+02  0.00000000000E+00 0. -1.
        -12    1    6    6    0    0  0.87207499124E+00 -0.31604798898E+02 -0.25682326729E+01  0.31720965421E+02  0.00000000000E+00 0.  1.
</event>
<event>
12    1  0.9966151E-001  0.1785292E+03  0.7818608E-02  0.1169366E+00
         21   -1    0    0  501  502  0.00000000000E+00  0.00000000000E+00  0.43386941678E+02  0.43386941678E+02  0.00000000000E+00 0.  1.
         21   -1    0    0  502  503 -0.00000000000E+00 -0.00000000000E+00 -0.77301759396E+03  0.77301759396E+03  0.00000000000E+00 0.  1.
         -6    2    1    2    0  503 -0.56605426754E+01 -0.46808441884E+02 -0.27072663195E+03  0.32399661489E+03  0.17163282099E+03 0.  0.
        -24    2    3    3    0    0  0.27423717620E+02 -0.37995270765E+02 -0.27646569936E+03  0.28896424188E+03  0.69795051911E+02 0.  0.
          6    2    1    2  501    0  0.56605426754E+01  0.46808441884E+02 -0.45890402033E+03  0.49240792074E+03  0.17219055886E+03 0.  0.
         24    2    5    5    0    0  0.11875636959E+01  0.97413109271E+02 -0.34892959999E+03  0.37117548683E+03  0.80800074944E+02 0.  0.
          5    1    5    5  501    0  0.44729789795E+01 -0.50604667387E+02 -0.10997442034E+03  0.12123243391E+03  0.47000000000E+01 0. -1.
        -11    1    6    6    0    0  0.25895104751E+02  0.22066984505E+02 -0.19579815630E+03  0.19873204640E+03  0.00000000000E+00 0.  1.
         12    1    6    6    0    0 -0.24707541055E+02  0.75346124767E+02 -0.15313144369E+03  0.17244344044E+03  0.00000000000E+00 0. -1.
         -5    1    3    3    0  503 -0.33084260295E+02 -0.88131711191E+01  0.57390674116E+01  0.35032373017E+02  0.47000000000E+01 0.  1.
         13    1    4    4    0    0  0.46617944204E+02 -0.43544117041E+02 -0.22033030353E+03  0.22937908689E+03  0.00000000000E+00 0. -1.
        -14    1    4    4    0    0 -0.19194226584E+02  0.55488462763E+01 -0.56135395833E+02  0.59585154984E+02  0.00000000000E+00 0.  1.
</event>
<event>
12    1  0.9966151E-001  0.2105021E+03  0.7818608E-02  0.1141307E+00
         21   -1    0    0  501  502  0.00000000000E+00  0.00000000000E+00  0.59535535395E+02  0.59535535395E+02  0.00000000000E+00 0. -1.
         21   -1    0    0  502  503 -0.00000000000E+00 -0.00000000000E+00 -0.74183211298E+03  0.74183211298E+03  0.00000000000E+00 0. -1.
         -6    2    1    2    0  503  0.11287911244E+03 -0.44602388751E+02 -0.34373590564E+03  0.40307011125E+03  0.17198858872E+03 0.  0.
        -24    2    3    3    0    0  0.31757108172E+01  0.63784472867E+01 -0.87552108598E+02  0.11972207467E+03  0.81346381070E+02 0.  0.
          6    2    1    2  501    0 -0.11287911244E+03  0.44602388751E+02 -0.33856067195E+03  0.39829753713E+03  0.17113308384E+03 0.  0.
         24    2    5    5    0    0 -0.10967940031E+03  0.41662890574E+02 -0.35395462968E+03  0.38162592228E+03  0.81173255323E+02 0.  0.
          5    1    5    5  501    0 -0.31997121321E+01  0.29394981771E+01  0.15393957727E+02  0.16671614852E+02  0.47000000000E+01 0. -1.
        -11    1    6    6    0    0 -0.51281603814E+02 -0.19602774436E+02 -0.10202373219E+03  0.11585729837E+03  0.00000000000E+00 0.  1.
         12    1    6    6    0    0 -0.58397796494E+02  0.61265665010E+02 -0.25193089749E+03  0.26576862391E+03  0.00000000000E+00 0. -1.
         -5    1    3    3    0  503  0.10970340162E+03 -0.50980836038E+02 -0.25618379704E+03  0.28334803658E+03  0.47000000000E+01 0.  1.
         13    1    4    4    0    0 -0.28738312302E+02 -0.23199699830E+02 -0.30063741889E+02  0.47622948697E+02  0.00000000000E+00 0. -1.
        -14    1    4    4    0    0  0.31914023120E+02  0.29578147117E+02 -0.57488366710E+02  0.72099125969E+02  0.00000000000E+00 0.  1.
</event>
<event>
12    1  0.9966151E-001  0.1876009E+03  0.7818608E-02  0.1161097E+00
         21   -1    0    0  503  502  0.00000000000E+00  0.00000000000E+00  0.71935970926E+03  0.71935970926E+03  0.00000000000E+00 0.  1.
         21   -1    0    0  501  503 -0.00000000000E+00 -0.00000000000E+00 -0.48754763591E+02  0.48754763591E+02  0.00000000000E+00 0.  1.
          6    2    1    2  501    0 -0.47710545288E+02 -0.59187795609E+02  0.30486422962E+03  0.35796131910E+03  0.17150689838E+03 0.  0.
         24    2    3    3    0    0 -0.93471637996E+02 -0.12753297994E+02  0.21888325255E+03  0.24995641833E+03  0.75291029316E+02 0.  0.
         -6    2    1    2    0  502  0.47710545288E+02  0.59187795609E+02  0.36574071606E+03  0.41015315375E+03  0.16935125294E+03 0.  0.
        -24    2    5    5    0    0 -0.25914711727E+02  0.72458575974E+02  0.22906625955E+03  0.25427246495E+03  0.79128488225E+02 0.  0.
          5    1    3    3  501    0  0.45761092707E+02 -0.46434497615E+02  0.85980977066E+02  0.10800490078E+03  0.47000000000E+01 0. -1.
        -13    1    4    4    0    0 -0.68969394138E+02 -0.31187737947E+01  0.68394261656E+02  0.97181680914E+02  0.00000000000E+00 0.  1.
         14    1    4    4    0    0 -0.24502243857E+02 -0.96345241991E+01  0.15048899089E+03  0.15277473741E+03  0.00000000000E+00 0. -1.
         -5    1    5    5    0  502  0.73625257015E+02 -0.13270780365E+02  0.13667445651E+03  0.15588068881E+03  0.47000000000E+01 0.  1.
         13    1    6    6    0    0  0.11400620401E+02  0.30637599963E+00  0.18722336771E+00  0.11406273027E+02  0.00000000000E+00 0. -1.
        -14    1    6    6    0    0 -0.37315332127E+02  0.72152199974E+02  0.22887903618E+03  0.24286619192E+03  0.00000000000E+00 0.  1.
</event>
<event>
12    1  0.9966151E-001  0.2356599E+03  0.7818608E-02  0.1122755E+00
         21   -1    0    0  503  502  0.00000000000E+00  0.00000000000E+00  0.33554410080E+03  0.33554410080E+03  0.00000000000E+00 0.  1.
         21   -1    0    0  501  503 -0.00000000000E+00 -0.00000000000E+00 -0.16685258928E+03  0.16685258928E+03  0.00000000000E+00 0.  1.
          6    2    1    2  501    0  0.12466992032E+03  0.10247107697E+03  0.60549531066E+02  0.24310864654E+03  0.17144286997E+03 0.  0.
         24    2    3    3    0    0  0.68737811528E+02 -0.10839693544E+02  0.44749107718E+02  0.11567444828E+03  0.80843736026E+02 0.  0.
         -6    2    1    2    0  502 -0.12466992032E+03 -0.10247107697E+03  0.10814198045E+03  0.25928804353E+03  0.17173436155E+03 0.  0.
        -24    2    5    5    0    0 -0.12743532705E+03 -0.91743150549E+02  0.26970185048E+02  0.17722900230E+03  0.77628346134E+02 0.  0.
          5    1    3    3  501    0  0.55932108789E+02  0.11331077051E+03  0.15800423348E+02  0.12743419826E+03  0.47000000000E+01 0. -1.
        -13    1    4    4    0    0 -0.18414796770E+02 -0.35307633202E+01  0.12125903014E+02  0.22329544411E+02  0.00000000000E+00 0.  1.
         14    1    4    4    0    0  0.87152608297E+02 -0.73089302236E+01  0.32623204704E+02  0.93344903874E+02  0.00000000000E+00 0. -1.
         -5    1    5    5    0  502  0.27654067286E+01 -0.10727926421E+02  0.81171795399E+02  0.82059041232E+02  0.47000000000E+01 0.  1.
         13    1    6    6    0    0 -0.70767628472E+02 -0.47734163677E+01  0.17083204432E+02  0.72956690009E+02  0.00000000000E+00 0. -1.
        -14    1    6    6    0    0 -0.56667698573E+02 -0.86969734182E+02  0.98869806165E+01  0.10427231229E+03  0.00000000000E+00 0.  1.
</event>
<event>
12    1  0.9966151E-001  0.2122093E+03  0.7818608E-02  0.1139909E+00
         21   -1    0    0  503  502  0.00000000000E+00  0.00000000000E+00  0.14931949533E+04  0.14931949533E+04  0.00000000000E+00 0.  1.
         21   -1    0    0  501  503 -0.00000000000E+00 -0.00000000000E+00 -0.64157572802E+02  0.64157572802E+02  0.00000000000E+00 0.  1.
          6    2    1    2  501    0  0.10512337573E+03  0.63281642288E+02  0.12815270762E+04  0.12989109175E+04  0.17263381491E+03 0.  0.
         24    2    3    3    0    0  0.11108439330E+03  0.61305033806E+01  0.11046775256E+04  0.11129011329E+04  0.76545218536E+02 0.  0.
         -6    2    1    2    0  502 -0.10512337573E+03 -0.63281642288E+02  0.14751030427E+03  0.25844160863E+03  0.17313949529E+03 0.  0.
        -24    2    5    5    0    0 -0.80766569935E+01 -0.68369627298E+02  0.47269839152E+02  0.11874839456E+03  0.84422184242E+02 0.  0.
          5    1    3    3  501    0 -0.59610175648E+01  0.57151138908E+02  0.17684955058E+03  0.18600978455E+03  0.47000000000E+01 0. -1.
        -11    1    4    4    0    0 -0.64563234094E+01  0.20688551721E+01  0.25854371981E+03  0.25863259525E+03  0.00000000000E+00 0.  1.
         12    1    4    4    0    0  0.11754071671E+03  0.40616482085E+01  0.84613380582E+03  0.85426853765E+03  0.00000000000E+00 0. -1.
         -5    1    5    5    0  502 -0.97046718739E+02  0.50879850095E+01  0.10024046512E+03  0.13969321407E+03  0.47000000000E+01 0.  1.
         13    1    6    6    0    0 -0.24853592124E+02 -0.63066129494E+02 -0.55556061893E+00  0.67788984197E+02  0.00000000000E+00 0. -1.
        -14    1    6    6    0    0  0.16776935131E+02 -0.53034978039E+01  0.47825399771E+02  0.50959410364E+02  0.00000000000E+00 0.  1.
</event>
<event>
12    1  0.9966151E-001  0.1803589E+03  0.7818608E-02  0.1167496E+00
         21   -1    0    0  501  502  0.00000000000E+00  0.00000000000E+00  0.14705121404E+03  0.14705121404E+03  0.00000000000E+00 0.  1.
         21   -1    0    0  502  503 -0.00000000000E+00 -0.00000000000E+00 -0.22100625862E+03  0.22100625862E+03  0.00000000000E+00 0.  1.
         -6    2    1    2    0  503 -0.50734761246E+02 -0.22917299922E+02 -0.37125470376E+02  0.18414022004E+03  0.17155203715E+03 0.  0.
        -24    2    3    3    0    0 -0.49286852112E+02 -0.71767843866E+02  0.72744633776E+01  0.11794417634E+03  0.79234422510E+02 0.  0.
          6    2    1    2  501    0  0.50734761246E+02  0.22917299922E+02 -0.36829574203E+02  0.18391725262E+03  0.17137654344E+03 0.  0.
         24    2    5    5    0    0  0.78982866122E+02 -0.29974966371E+01 -0.70440692736E+02  0.13271833272E+03  0.80031159685E+02 0.  0.
          5    1    5    5  501    0 -0.28248104875E+02  0.25914796559E+02  0.33611118532E+02  0.51198919898E+02  0.47000000000E+01 0. -1.
        -13    1    6    6    0    0  0.32720536331E+02 -0.47294170203E+01 -0.79000189501E+02  0.85638956231E+02  0.00000000000E+00 0.  1.
         14    1    6    6    0    0  0.46262329791E+02  0.17319203832E+01  0.85594967655E+01  0.47079376491E+02  0.00000000000E+00 0. -1.
         -5    1    3    3    0  503 -0.14479091344E+01  0.48850543944E+02 -0.44399933754E+02  0.66196043702E+02  0.47000000000E+01 0.  1.
         11    1    4    4    0    0  0.13782648281E+02  0.72473858023E+01 -0.43764299960E+01  0.16175263031E+02  0.00000000000E+00 0. -1.
        -12    1    4    4    0    0 -0.63069500393E+02 -0.79015229668E+02  0.11650893374E+02  0.10176891331E+03  0.00000000000E+00 0.  1.
</event>
<event>
12    1  0.9966151E-001  0.1901675E+03  0.7818608E-02  0.1158704E+00
         21   -1    0    0  503  502  0.00000000000E+00  0.00000000000E+00  0.63467595315E+02  0.63467595315E+02  0.00000000000E+00 0.  1.
         21   -1    0    0  501  503 -0.00000000000E+00 -0.00000000000E+00 -0.61017259433E+03  0.61017259433E+03  0.00000000000E+00 0.  1.
          6    2    1    2  501    0  0.52758634807E+02 -0.55989622940E+02 -0.36424599018E+03  0.41009710459E+03  0.17200634409E+03 0.  0.
         24    2    3    3    0    0  0.37168193908E+02  0.19753545222E+02 -0.83053502700E+02  0.11842709519E+03  0.73180703578E+02 0.  0.
         -6    2    1    2    0  502 -0.52758634807E+02  0.55989622940E+02 -0.18245900884E+03  0.26354308506E+03  0.17391192125E+03 0.  0.
        -24    2    5    5    0    0 -0.10335261081E+03  0.40280394126E+02 -0.11427499734E+03  0.17706950701E+03  0.77398727262E+02 0.  0.
          5    1    3    3  501    0  0.15590440899E+02 -0.75743168162E+02 -0.28119248748E+03  0.29167000940E+03  0.47000000000E+01 0. -1.
        -11    1    4    4    0    0 -0.16312066864E+02  0.24872513652E+02 -0.38371128821E+02  0.48549654867E+02  0.00000000000E+00 0.  1.
         12    1    4    4    0    0  0.53480260772E+02 -0.51189684302E+01 -0.44682373879E+02  0.69877440319E+02  0.00000000000E+00 0. -1.
         -5    1    5    5    0  502  0.50593976002E+02  0.15709228814E+02 -0.68184011499E+02  0.86473578056E+02  0.47000000000E+01 0.  1.
         13    1    6    6    0    0 -0.91223699179E+02  0.80072264806E+01 -0.10872045739E+03  0.14214786957E+03  0.00000000000E+00 0. -1.
        -14    1    6    6    0    0 -0.12128911630E+02  0.32273167646E+02 -0.55545399519E+01  0.34921637437E+02  0.00000000000E+00 0.  1.
</event>
<event>
12    1  0.9966151E-001  0.2217360E+03  0.7818608E-02  0.1133504E+00
         21   -1    0    0  501  502  0.00000000000E+00  0.00000000000E+00  0.68310215738E+03  0.68310215738E+03  0.00000000000E+00 0. -1.
         21   -1    0    0  502  503 -0.00000000000E+00 -0.00000000000E+00 -0.11788800384E+03  0.11788800384E+03  0.00000000000E+00 0. -1.
         -6    2    1    2    0  503  0.13775411209E+02 -0.13082540102E+03  0.53490009204E+03  0.57719164710E+03  0.17241531690E+03 0.  0.
        -24    2    3    3    0    0  0.97363901997E+01 -0.11446938070E+03  0.54077043151E+03  0.55874214909E+03  0.81006747605E+02 0.  0.
          6    2    1    2  501    0 -0.13775411209E+02  0.13082540102E+03  0.30314061492E+02  0.22379851412E+03  0.17849869773E+03 0.  0.
         24    2    5    5    0    0  0.36591988161E+02  0.13773887742E+03  0.44849667924E+02  0.17071325318E+03  0.82586622084E+02 0.  0.
          5    1    5    5  501    0 -0.50367399370E+02 -0.69134763951E+01 -0.14535606432E+02  0.53085260944E+02  0.47000000000E+01 0. -1.
        -11    1    6    6    0    0  0.31117752843E+02  0.54090782643E+02 -0.19119744122E+02  0.65266315387E+02  0.00000000000E+00 0.  1.
         12    1    6    6    0    0  0.54742353186E+01  0.83648094776E+02  0.63969412045E+02  0.10544693779E+03  0.00000000000E+00 0. -1.
         -5    1    3    3    0  503  0.40390210092E+01 -0.16356020322E+02 -0.58703394643E+01  0.18449498013E+02  0.47000000000E+01 0.  1.
         11    1    4    4    0    0  0.40159532895E+02 -0.76014042045E+02  0.41371702491E+03  0.42255496609E+03  0.00000000000E+00 0. -1.
        -12    1    4    4    0    0 -0.30423142695E+02 -0.38455338656E+02  0.12705340660E+03  0.13618718299E+03  0.00000000000E+00 0.  1.
</event>
<event>
12    1  0.9966151E-001  0.1858138E+03  0.7818608E-02  0.1164114E+00
         21   -1    0    0  501  502  0.00000000000E+00  0.00000000000E+00  0.31566640163E+03  0.31566640163E+03  0.00000000000E+00 0.  1.
         21   -1    0    0  502  503 -0.00000000000E+00 -0.00000000000E+00 -0.11766995218E+03  0.11766995218E+03  0.00000000000E+00 0.  1.
         -6    2    1    2    0  503  0.51197728371E+01  0.73165601185E+02  0.16848034839E+03  0.24519282620E+03  0.16234062017E+03 0.  0.
        -24    2    3    3    0    0 -0.22319998680E+02  0.10536774051E+03  0.11592930251E+03  0.17756427261E+03  0.80553861770E+02 0.  0.
          6    2    1    2  501    0 -0.51197728371E+01 -0.73165601185E+02  0.29516101058E+02  0.18814352761E+03  0.17072600706E+03 0.  0.
         24    2    5    5    0    0  0.10969009912E+02  0.25276518132E+02 -0.19270207477E+02  0.77004453981E+02  0.69275706344E+02 0.  0.
          5    1    5    5  501    0 -0.16088782749E+02 -0.98442119317E+02  0.48786308534E+02  0.11113907363E+03  0.47000000000E+01 0. -1.
        -11    1    6    6    0    0  0.27820678702E+02 -0.74535247220E+01  0.94506209311E+01  0.30312694209E+02  0.00000000000E+00 0.  1.
         12    1    6    6    0    0 -0.16851668790E+02  0.32730042854E+02 -0.28720828408E+02  0.46691759772E+02  0.00000000000E+00 0. -1.
         -5    1    3    3    0  503  0.27439771517E+02 -0.32202139325E+02  0.52551045877E+02  0.67628553591E+02  0.47000000000E+01 0.  1.
         13    1    4    4    0    0  0.78384070856E+01  0.49075773522E+02  0.55031843016E+01  0.50001572074E+02  0.00000000000E+00 0. -1.
        -14    1    4    4    0    0 -0.30158405765E+02  0.56291966989E+02  0.11042611821E+03  0.12756270054E+03  0.00000000000E+00 0.  1.
</event>
<event>
12    1  0.9966151E-001  0.2307480E+03  0.7818608E-02  0.1126236E+00
         21   -1    0    0  503  502  0.00000000000E+00  0.00000000000E+00  0.46084449892E+02  0.46084449892E+02  0.00000000000E+00 0. -1.
         21   -1    0    0  501  503 -0.00000000000E+00 -0.00000000000E+00 -0.11519068076E+04  0.11519068076E+04  0.00000000000E+00 0. -1.
          6    2    1    2  501    0  0.54237048963E+02  0.14379111079E+03 -0.55357957092E+03  0.59974576391E+03  0.17212524209E+03 0.  0.
         24    2    3    3    0    0  0.89601526356E+02  0.11246800550E+03 -0.30182954102E+03  0.34355842866E+03  0.79081200582E+02 0.  0.
         -6    2    1    2    0  502 -0.54237048963E+02 -0.14379111079E+03 -0.55224278680E+03  0.59824549360E+03  0.17119589367E+03 0.  0.
        -24    2    5    5    0    0 -0.73633862340E+02 -0.33641396397E+02 -0.23103076698E+03  0.25808604918E+03  0.81728234124E+02 0.  0.
          5    1    3    3  501    0 -0.35364477393E+02  0.31323105290E+02 -0.25175002990E+03  0.25618733525E+03  0.47000000000E+01 0. -1.
        -11    1    4    4    0    0  0.86939726611E+02  0.99469896983E+02 -0.30268913385E+03  0.33026275633E+03  0.00000000000E+00 0.  1.
         12    1    4    4    0    0  0.26617997456E+01  0.12998108521E+02  0.85959282586E+00  0.13295672335E+02  0.00000000000E+00 0. -1.
         -5    1    5    5    0  502  0.19396813377E+02 -0.11014971440E+03 -0.32121201982E+03  0.34015944442E+03  0.47000000000E+01 0.  1.
         11    1    6    6    0    0 -0.33085920012E+02  0.12805799661E+02 -0.16063876259E+03  0.16450981325E+03  0.00000000000E+00 0. -1.
        -12    1    6    6    0    0 -0.40547942328E+02 -0.46447196058E+02 -0.70392004393E+02  0.93576235932E+02  0.00000000000E+00 0.  1.
</event>
<event>
12    1  0.9966151E-001  0.1740771E+03  0.7818608E-02  0.1173813E+00
         21   -1    0    0  501  502  0.00000000000E+00  0.00000000000E+00  0.24196408929E+03  0.24196408929E+03  0.00000000000E+00 0. -1.
         21   -1    0    0  502  503 -0.00000000000E+00 -0.00000000000E+00 -0.21689078339E+03  0.21689078339E+03  0.00000000000E+00 0. -1.
         -6    2    1    2    0  503  0.26064586277E+02  0.17592316635E+01  0.16201517280E+03  0.23736918573E+03  0.17150147685E+03 0.  0.
        -24    2    3    3    0    0  0.33967961853E+02 -0.39516033472E+02  0.16976694416E+03  0.19437743284E+03  0.79034370572E+02 0.  0.
          6    2    1    2  501    0 -0.26064586277E+02 -0.17592316635E+01 -0.13694186691E+03  0.22148568695E+03  0.17210571477E+03 0.  0.
         24    2    5    5    0    0  0.26220467189E+02 -0.37674274134E+02 -0.30162844917E+02  0.97197849132E+02  0.80192024736E+02 0.  0.
          5    1    5    5  501    0 -0.52285053465E+02  0.35915042471E+02 -0.10677902200E+03  0.12428783782E+03  0.47000000000E+01 0. -1.
        -11    1    6    6    0    0 -0.39975640665E+01 -0.55366226293E+02 -0.27851091487E+02  0.62105417070E+02  0.00000000000E+00 0.  1.
         12    1    6    6    0    0  0.30218031255E+02  0.17691952159E+02 -0.23117534302E+01  0.35092432062E+02  0.00000000000E+00 0. -1.
         -5    1    3    3    0  503 -0.79033755764E+01  0.41275265135E+02 -0.77517713608E+01  0.42991752892E+02  0.47000000000E+01 0.  1.
         11    1    4    4    0    0 -0.95526431955E+01 -0.34607255826E+02  0.26657165184E+02  0.44715988231E+02  0.00000000000E+00 0. -1.
        -12    1    4    4    0    0  0.43520605049E+02 -0.49087776458E+01  0.14310977898E+03  0.14966144461E+03  0.00000000000E+00 0.  1.
</event>
<event>
12    1  0.9966151E-001  0.5051197E+03  0.7818608E-02  0.1012485E+00
         21   -1    0    0  501  502  0.00000000000E+00  0.00000000000E+00  0.20717207908E+04  0.20717207908E+04  0.00000000000E+00 0. -1.
         21   -1    0    0  502  503 -0.00000000000E+00 -0.00000000000E+00 -0.30008676344E+03  0.30008676344E+03  0.00000000000E+00 0. -1.
         -6    2    1    2    0  503  0.39193828558E+03  0.26798077868E+03 -0.25305707435E+02  0.50522289994E+03  0.17082295614E+03 0.  0.
        -24    2    3    3    0    0  0.19972026729E+03  0.19623361901E+03 -0.61947509461E+02  0.29675195920E+03  0.76344043406E+02 0.  0.
          6    2    1    2  501    0 -0.39193828558E+03 -0.26798077868E+03  0.17969397347E+04  0.18665846543E+04  0.17238487089E+03 0.  0.
         24    2    5    5    0    0 -0.20401866138E+03 -0.19315315683E+03  0.86709303483E+03  0.91498077999E+03  0.80048363635E+02 0.  0.
          5    1    5    5  501    0 -0.18791962420E+03 -0.74827621859E+02  0.92984669992E+03  0.95160387426E+03  0.47000000000E+01 0. -1.
        -13    1    6    6    0    0 -0.16580905021E+03 -0.17396803715E+03  0.80089331479E+03  0.83617439613E+03  0.00000000000E+00 0.  1.
         14    1    6    6    0    0 -0.38209611171E+02 -0.19185119678E+02  0.66199720043E+02  0.78806383857E+02  0.00000000000E+00 0. -1.
         -5    1    3    3    0  503  0.19221801829E+03  0.71747159679E+02  0.36641802026E+02  0.20847094074E+03  0.47000000000E+01 0.  1.
         13    1    4    4    0    0  0.74015054676E+01  0.58452247085E+01 -0.21042865211E+02  0.23059729213E+02  0.00000000000E+00 0. -1.
        -14    1    4    4    0    0  0.19231876182E+03  0.19038839430E+03 -0.40904644251E+02  0.27369222998E+03  0.00000000000E+00 0.  1.
</event>
<event>
12    1  0.9966151E-001  0.1835051E+03  0.7818608E-02  0.1164755E+00
         21   -1    0    0  503  502  0.00000000000E+00  0.00000000000E+00  0.55490206399E+03  0.55490206399E+03  0.00000000000E+00 0.  1.
         21   -1    0    0  501  503 -0.00000000000E+00 -0.00000000000E+00 -0.61060722265E+02  0.61060722265E+02  0.00000000000E+00 0.  1.
          6    2    1    2  501    0  0.96220447508E+01  0.59662107300E+02  0.28293486283E+03  0.33723325460E+03  0.17326852169E+03 0.  0.
         24    2    3    3    0    0 -0.61642439441E+02  0.47918146469E+02  0.17071409310E+03  0.20369622422E+03  0.79075350634E+02 0.  0.
         -6    2    1    2    0  502 -0.96220447508E+01 -0.59662107300E+02  0.21090647889E+03  0.27872953165E+03  0.17191991794E+03 0.  0.
        -24    2    5    5    0    0 -0.45874757973E+02 -0.33374775933E+02  0.21224754056E+03  0.23368320602E+03  0.79626962865E+02 0.  0.
          5    1    3    3  501    0  0.71264484192E+02  0.11743960831E+02  0.11222076974E+03  0.13353703038E+03  0.47000000000E+01 0. -1.
        -11    1    4    4    0    0 -0.36133657824E+02  0.47333508024E+02  0.16775371580E+03  0.17800958225E+03  0.00000000000E+00 0.  1.
         12    1    4    4    0    0 -0.25508781617E+02  0.58463844532E+00  0.29603772971E+01  0.25686641965E+02  0.00000000000E+00 0. -1.
         -5    1    5    5    0  502  0.36252713222E+02 -0.26287331368E+02 -0.13410616695E+01  0.45046325630E+02  0.47000000000E+01 0.  1.
         13    1    6    6    0    0 -0.30917969056E+02  0.23558950481E+02  0.87389640811E+02  0.95644624937E+02  0.00000000000E+00 0. -1.
        -14    1    6    6    0    0 -0.14956788917E+02 -0.56933726414E+02  0.12485789975E+03  0.13803858108E+03  0.00000000000E+00 0.  1.
</event>
<event>
12    1  0.9966151E-001  0.1944630E+03  0.7818608E-02  0.1154681E+00
         21   -1    0    0  501  502  0.00000000000E+00  0.00000000000E+00  0.50312714314E+03  0.50312714314E+03  0.00000000000E+00 0.  1.
         21   -1    0    0  502  503 -0.00000000000E+00 -0.00000000000E+00 -0.82863280150E+02  0.82863280150E+02  0.00000000000E+00 0.  1.
         -6    2    1    2    0  503  0.57136650496E+02  0.69228787660E+02  0.30173179789E+03  0.35896785548E+03  0.17250687389E+03 0.  0.
        -24    2    3    3    0    0  0.86695389518E+02  0.31424481332E+02  0.28074888725E+03  0.30638214289E+03  0.80910389938E+02 0.  0.
          6    2    1    2  501    0 -0.57136650496E+02 -0.69228787660E+02  0.11853206509E+03  0.22702256780E+03  0.17155807753E+03 0.  0.
         24    2    5    5    0    0  0.66269882739E+01  0.74269867085E+01  0.99902055412E+02  0.12547909616E+03  0.75269554216E+02 0.  0.
          5    1    5    5  501    0 -0.63763638770E+02 -0.76655774368E+02  0.18630009681E+02  0.10154347165E+03  0.47000000000E+01 0. -1.
        -11    1    6    6    0    0 -0.26336038310E+02  0.39135816795E+01  0.80306646533E+01  0.27809973215E+02  0.00000000000E+00 0.  1.
         12    1    6    6    0    0  0.32963026584E+02  0.35134050289E+01  0.91871390759E+02  0.97669122943E+02  0.00000000000E+00 0. -1.
         -5    1    3    3    0  503 -0.29558739022E+02  0.37804306328E+02  0.20982910639E+02  0.52585712588E+02  0.47000000000E+01 0.  1.
         11    1    4    4    0    0  0.66526916011E+02  0.43376033669E+02  0.11979224411E+03  0.14372714636E+03  0.00000000000E+00 0. -1.
        -12    1    4    4    0    0  0.20168473507E+02 -0.11951552338E+02  0.16095664314E+03  0.16265499654E+03  0.00000000000E+00 0.  1.
</event>
<event>
12    1  0.9966151E-001  0.3511754E+03  0.7818608E-02  0.1062248E+00
         21   -1    0    0  503  502  0.00000000000E+00  0.00000000000E+00  0.15517594982E+03  0.15517594982E+03  0.00000000000E+00 0.  1.
         21   -1    0    0  501  503 -0.00000000000E+00 -0.00000000000E+00 -0.79265718867E+03  0.79265718867E+03  0.00000000000E+00 0. -1.
          6    2    1    2  501    0  0.41714678188E+02  0.30194692682E+03 -0.30692798895E+03  0.46555767459E+03  0.17212523632E+03 0.  0.
         24    2    3    3    0    0  0.43602450816E+01  0.15323203210E+03 -0.24703849076E+03  0.30087520565E+03  0.77451959679E+02 0.  0.
         -6    2    1    2    0  502 -0.41714678188E+02 -0.30194692682E+03 -0.33055324990E+03  0.48227546389E+03  0.17439068513E+03 0.  0.
        -24    2    5    5    0    0  0.35108720810E+01 -0.86056717946E+02 -0.17779255234E+03  0.21392521999E+03  0.82071451510E+02 0.  0.
          5    1    3    3  501    0  0.37354433107E+02  0.14871489472E+03 -0.59889498191E+02  0.16468246894E+03  0.47000000000E+01 0. -1.
        -11    1    4    4    0    0  0.16890495656E+02  0.23092968085E+02 -0.10251639879E+02  0.30391942003E+02  0.00000000000E+00 0.  1.
         12    1    4    4    0    0 -0.12530250575E+02  0.13013906402E+03 -0.23678685088E+03  0.27048326365E+03  0.00000000000E+00 0. -1.
         -5    1    5    5    0  502 -0.45225550269E+02 -0.21589020888E+03 -0.15276069756E+03  0.26835024391E+03  0.47000000000E+01 0.  1.
         11    1    6    6    0    0  0.41952223763E+02 -0.32976689474E+02 -0.83460013486E+02  0.99060713597E+02  0.00000000000E+00 0. -1.
        -12    1    6    6    0    0 -0.38441351682E+02 -0.53080028472E+02 -0.94332538851E+02  0.11486450639E+03  0.00000000000E+00 0.  1.
</event>
<event>
12    1  0.9966151E-001  0.2486805E+03  0.7818608E-02  0.1114184E+00
         21   -1    0    0  503  502  0.00000000000E+00  0.00000000000E+00  0.72192037607E+02  0.72192037607E+02  0.00000000000E+00 0. -1.
         21   -1    0    0  501  503 -0.00000000000E+00 -0.00000000000E+00 -0.89033875680E+03  0.89033875680E+03  0.00000000000E+00 0. -1.
          6    2    1    2  501    0  0.50380345220E+01 -0.17986801936E+03 -0.50377939331E+03  0.56169566722E+03  0.17126137706E+03 0.  0.
         24    2    3    3    0    0  0.57243698245E+02 -0.56819347824E+02 -0.18719700476E+03  0.21802008527E+03  0.77361228748E+02 0.  0.
         -6    2    1    2    0  502 -0.50380345220E+01  0.17986801936E+03 -0.31436732588E+03  0.40083512718E+03  0.17165109210E+03 0.  0.
        -24    2    5    5    0    0  0.55165083589E+02  0.14207166950E+03 -0.18285895724E+03  0.25127069118E+03  0.80448842644E+02 0.  0.
          5    1    3    3  501    0 -0.52205663723E+02 -0.12304867154E+03 -0.31658238854E+03  0.34367558195E+03  0.47000000000E+01 0. -1.
        -11    1    4    4    0    0 -0.69644339063E+00 -0.26943294104E+02 -0.92292874577E+01  0.28488697365E+02  0.00000000000E+00 0.  1.
         12    1    4    4    0    0  0.57940141635E+02 -0.29876053719E+02 -0.17796771730E+03  0.18953138790E+03  0.00000000000E+00 0. -1.
         -5    1    5    5    0  502 -0.60203118111E+02  0.37796349866E+02 -0.13150836865E+03  0.14956443601E+03  0.47000000000E+01 0.  1.
         13    1    6    6    0    0  0.36904230808E+02  0.90105611997E+01 -0.38124090728E+02  0.53819687462E+02  0.00000000000E+00 0. -1.
        -14    1    6    6    0    0  0.18260852781E+02  0.13306110830E+03 -0.14473486651E+03  0.19745100372E+03  0.00000000000E+00 0.  1.
</event>
<event>
12    1  0.9966151E-001  0.3073816E+03  0.7818608E-02  0.1081689E+00
         21   -1    0    0  501  502  0.00000000000E+00  0.00000000000E+00  0.20560643552E+03  0.20560643552E+03  0.00000000000E+00 0.  1.
         21   -1    0    0  502  503 -0.00000000000E+00 -0.00000000000E+00 -0.89146334656E+03  0.89146334656E+03  0.00000000000E+00 0.  1.
         -6    2    1    2    0  503 -0.15996983751E+03 -0.19923460658E+03  0.39139732916E+02  0.30986344045E+03  0.17087614128E+03 0.  0.
        -24    2    3    3    0    0 -0.14515093715E+03 -0.76083866601E+02  0.13593959233E+02  0.18313388147E+03  0.80595741206E+02 0.  0.
          6    2    1    2  501    0  0.15996983751E+03  0.19923460658E+03 -0.72499664396E+03  0.78720634164E+03  0.16967295954E+03 0.  0.
         24    2    5    5    0    0  0.89786986765E+02  0.74688932997E+02 -0.50764131786E+03  0.52700894517E+03  0.79991130676E+02 0.  0.
          5    1    5    5  501    0  0.70182850745E+02  0.12454567358E+03 -0.21735532609E+03  0.26019739647E+03  0.47000000000E+01 0. -1.
        -13    1    6    6    0    0 -0.16603228682E+01 -0.13685801326E+02 -0.36865754305E+02  0.39359137064E+02  0.00000000000E+00 0.  1.
         14    1    6    6    0    0  0.91447309633E+02  0.88374734323E+02 -0.47077556356E+03  0.48764980811E+03  0.00000000000E+00 0. -1.
         -5    1    3    3    0  503 -0.14818900355E+02 -0.12315073998E+03  0.25545773683E+02  0.12672955898E+03  0.47000000000E+01 0.  1.
         13    1    4    4    0    0 -0.14402896307E+03 -0.87681132379E+02  0.50659298309E+01  0.16869495198E+03  0.00000000000E+00 0. -1.
        -14    1    4    4    0    0 -0.11219740864E+01  0.11597265778E+02  0.85280294025E+01  0.14438929492E+02  0.00000000000E+00 0.  1.
</event>
<event>
12    1  0.9966151E-001  0.3253604E+03  0.7818608E-02  0.1073444E+00
         21   -1    0    0  503  502  0.00000000000E+00  0.00000000000E+00  0.54284407826E+03  0.54284407826E+03  0.00000000000E+00 0. -1.
         21   -1    0    0  501  503 -0.00000000000E+00 -0.00000000000E+00 -0.28088860083E+03  0.28088860083E+03  0.00000000000E+00 0. -1.
          6    2    1    2  501    0 -0.30174221601E+02  0.27246273478E+03  0.36065525446E+03  0.48572789160E+03  0.17525109593E+03 0.  0.
         24    2    3    3    0    0  0.19444483892E+02  0.14428568746E+03  0.10837117173E+03  0.19839407913E+03  0.80121484084E+02 0.  0.
         -6    2    1    2    0  502  0.30174221601E+02 -0.27246273478E+03 -0.98699777030E+02  0.33800478749E+03  0.17134516302E+03 0.  0.
        -24    2    5    5    0    0  0.43640796354E+02 -0.28658828785E+03 -0.10249997323E+03  0.31757413953E+03  0.79433769556E+02 0.  0.
          5    1    3    3  501    0 -0.49618705494E+02  0.12817704732E+03  0.25228408273E+03  0.28733381248E+03  0.47000000000E+01 0. -1.
        -11    1    4    4    0    0  0.39206435443E+02  0.43428459136E+02  0.63217817308E+02  0.86137495136E+02  0.00000000000E+00 0.  1.
         12    1    4    4    0    0 -0.19761951551E+02  0.10085722832E+03  0.45153354420E+02  0.11225658399E+03  0.00000000000E+00 0. -1.
         -5    1    5    5    0  502 -0.13466574752E+02  0.14125553070E+02  0.38001962032E+01  0.20430647965E+02  0.47000000000E+01 0.  1.
         11    1    6    6    0    0 -0.14118743368E+02 -0.51985909155E+02  0.29653375531E+01  0.53950596769E+02  0.00000000000E+00 0. -1.
        -12    1    6    6    0    0  0.57759539721E+02 -0.23460237869E+03 -0.10546531079E+03  0.26362354276E+03  0.00000000000E+00 0.  1.
</event>
<event>
12    1  0.9966151E-001  0.2848291E+03  0.7818608E-02  0.1093233E+00
         21   -1    0    0  503  502  0.00000000000E+00  0.00000000000E+00  0.82112228903E+03  0.82112228903E+03  0.00000000000E+00 0. -1.
         21   -1    0    0  501  503 -0.00000000000E+00 -0.00000000000E+00 -0.15753436392E+03  0.15753436392E+03  0.00000000000E+00 0. -1.
          6    2    1    2  501    0  0.22376511203E+03 -0.38985643741E+02  0.63116459048E+03  0.69198801663E+03  0.16996461131E+03 0.  0.
         24    2    3    3    0    0  0.10622208134E+03  0.10006190851E+02  0.18708417345E+03  0.22998577561E+03  0.80682802407E+02 0.  0.
         -6    2    1    2    0  502 -0.22376511203E+03  0.38985643741E+02  0.32423334625E+02  0.28666863633E+03  0.17186311020E+03 0.  0.
        -24    2    5    5    0    0 -0.17479679103E+03 -0.12196313943E+02 -0.26886095594E+02  0.19416356746E+03  0.79208336450E+02 0.  0.
          5    1    3    3  501    0  0.11754303068E+03 -0.48991834592E+02  0.44408041703E+03  0.46200224102E+03  0.47000000000E+01 0. -1.
        -13    1    4    4    0    0  0.76969202523E+02 -0.27080160480E+02  0.86772489935E+02  0.11910943807E+03  0.00000000000E+00 0.  1.
         14    1    4    4    0    0  0.29252878820E+02  0.37086351331E+02  0.10031168352E+03  0.11087633753E+03  0.00000000000E+00 0. -1.
         -5    1    5    5    0  502 -0.48968320993E+02  0.51181957684E+02  0.59309430219E+02  0.92505068867E+02  0.47000000000E+01 0.  1.
         11    1    6    6    0    0 -0.15522173869E+03 -0.35899913275E+02 -0.11359786425E+02  0.15972362594E+03  0.00000000000E+00 0. -1.
        -12    1    6    6    0    0 -0.19575052340E+02  0.23703599332E+02 -0.15526309169E+02  0.34439941519E+02  0.00000000000E+00 0.  1.
</event>
<event>
12    1  0.9966151E-001  0.2829303E+03  0.7818608E-02  0.1094324E+00
         21   -1    0    0  501  502  0.00000000000E+00  0.00000000000E+00  0.21614792457E+03  0.21614792457E+03  0.00000000000E+00 0. -1.
         21   -1    0    0  502  503 -0.00000000000E+00 -0.00000000000E+00 -0.10544960980E+04  0.10544960980E+04  0.00000000000E+00 0. -1.
         -6    2    1    2    0  503  0.17474532431E+03  0.14021873817E+03 -0.93215335903E+03  0.97414547939E+03  0.17277820276E+03 0.  0.
        -24    2    3    3    0    0  0.30788651999E+02  0.10180110255E+03 -0.44368040526E+03  0.46343288428E+03  0.81279337164E+02 0.  0.
          6    2    1    2  501    0 -0.17474532431E+03 -0.14021873817E+03  0.93805185643E+02  0.29649854313E+03  0.17004337778E+03 0.  0.
         24    2    5    5    0    0 -0.89244456252E+02 -0.11637079788E+03  0.11794811414E+03  0.20438940303E+03  0.79727880120E+02 0.  0.
          5    1    5    5  501    0 -0.85500868060E+02 -0.23847940285E+02 -0.24142928499E+02  0.92109140108E+02  0.47000000000E+01 0. -1.
        -11    1    6    6    0    0 -0.54972284955E+02 -0.84192874002E+02  0.30446437859E+02  0.10505892501E+03  0.00000000000E+00 0.  1.
         12    1    6    6    0    0 -0.34272171297E+02 -0.32177923880E+02  0.87501676283E+02  0.99330478017E+02  0.00000000000E+00 0. -1.
         -5    1    3    3    0  503  0.14395667231E+03  0.38417635614E+02 -0.48847295377E+03  0.51071259510E+03  0.47000000000E+01 0.  1.
         13    1    4    4    0    0  0.20341553573E+02  0.17713423906E+02 -0.26782839104E+02  0.38011375385E+02  0.00000000000E+00 0. -1.
        -14    1    4    4    0    0  0.10447098427E+02  0.84087678648E+02 -0.41689756616E+03  0.42542150890E+03  0.00000000000E+00 0.  1.
</event>
<event>
12    1  0.9966151E-001  0.2288331E+03  0.7818608E-02  0.1127592E+00
         21   -1    0    0  501  502  0.00000000000E+00  0.00000000000E+00  0.48770790360E+03  0.48770790360E+03  0.00000000000E+00 0.  1.
         21   -1    0    0  502  503 -0.00000000000E+00 -0.00000000000E+00 -0.18391768148E+03  0.18391768148E+03  0.00000000000E+00 0.  1.
         -6    2    1    2    0  503  0.14526632294E+03  0.40588474608E+02 -0.65092971426E+02  0.23791104138E+03  0.17208962732E+03 0.  0.
        -24    2    3    3    0    0  0.34126619433E+02  0.52578918716E+02  0.11944132128E+02  0.10207065795E+03  0.79665476059E+02 0.  0.
          6    2    1    2  501    0 -0.14526632294E+03 -0.40588474608E+02  0.36888319354E+03  0.43371454370E+03  0.17112500136E+03 0.  0.
         24    2    5    5    0    0 -0.79458145539E+02 -0.52902558995E+02  0.33776173329E+03  0.35973489667E+03  0.78828483196E+02 0.  0.
          5    1    5    5  501    0 -0.65808177399E+02  0.12314084387E+02  0.31121460246E+02  0.73979647030E+02  0.47000000000E+01 0. -1.
        -13    1    6    6    0    0 -0.78113169009E+02 -0.69686616729E+02  0.26228361034E+03  0.28240145888E+03  0.00000000000E+00 0.  1.
         14    1    6    6    0    0 -0.13449765305E+01  0.16784057734E+02  0.75478122950E+02  0.77333437787E+02  0.00000000000E+00 0. -1.
         -5    1    3    3    0  503  0.11113970350E+03 -0.11990444108E+02 -0.77037103554E+02  0.13584038342E+03  0.47000000000E+01 0.  1.
         11    1    4    4    0    0  0.38267746979E+02  0.33296350918E+02 -0.27697019643E+02  0.57794397137E+02  0.00000000000E+00 0. -1.
        -12    1    4    4    0    0 -0.41411275458E+01  0.19282567797E+02  0.39641151771E+02  0.44276260817E+02  0.00000000000E+00 0.  1.
</event>
<event>
12    1  0.9966151E-001  0.2106810E+03  0.7818608E-02  0.1141510E+00
         21   -1    0    0  501  502  0.00000000000E+00  0.00000000000E+00  0.74217792094E+03  0.74217792094E+03  0.00000000000E+00 0.  1.
         21   -1    0    0  502  503 -0.00000000000E+00 -0.00000000000E+00 -0.12132832490E+03  0.12132832490E+03  0.00000000000E+00 0.  1.
         -6    2    1    2    0  503  0.26539237051E+02  0.11504878341E+03  0.61870732724E+03  0.65281430979E+03  0.17154361723E+03 0.  0.
        -24    2    3    3    0    0  0.69040633566E+02  0.95804175149E+02  0.31838307901E+03  0.34885137170E+03  0.79902725110E+02 0.  0.
          6    2    1    2  501    0 -0.26539237051E+02 -0.11504878341E+03  0.21422687933E+01  0.21069193605E+03  0.17448767560E+03 0.  0.
         24    2    5    5    0    0 -0.70514954713E+02 -0.63780926178E+02  0.40887088473E+02  0.13268227011E+03  0.83020873369E+02 0.  0.
          5    1    5    5  501    0  0.43975717662E+02 -0.51267857232E+02 -0.38744819680E+02  0.78009665946E+02  0.47000000000E+01 0. -1.
        -11    1    6    6    0    0 -0.22204040322E+02  0.17445071297E+02 -0.31617249191E+01  0.28413842113E+02  0.00000000000E+00 0.  1.
         12    1    6    6    0    0 -0.48310914391E+02 -0.81225997476E+02  0.44048813392E+02  0.10426842799E+03  0.00000000000E+00 0. -1.
         -5    1    3    3    0  503 -0.42501396514E+02  0.19244608262E+02  0.30032424823E+03  0.30396293808E+03  0.47000000000E+01 0.  1.
         11    1    4    4    0    0  0.80553337983E+02  0.80865747238E+02  0.30518729704E+03  0.32583338627E+03  0.00000000000E+00 0. -1.
        -12    1    4    4    0    0 -0.11512704417E+02  0.14938427911E+02  0.13195781973E+02  0.23017985431E+02  0.00000000000E+00 0.  1.
</event>
<event>
12    1  0.9966151E-001  0.3372858E+03  0.7818608E-02  0.1068158E+00
         21   -1    0    0  501  502  0.00000000000E+00  0.00000000000E+00  0.13428104805E+03  0.13428104805E+03  0.00000000000E+00 0. -1.
         21   -1    0    0  502  503 -0.00000000000E+00 -0.00000000000E+00 -0.87066091611E+03  0.87066091611E+03  0.00000000000E+00 0.  1.
         -6    2    1    2    0  503 -0.95039832994E+01  0.28738926660E+03 -0.27690529183E+03  0.43496072849E+03  0.17271762629E+03 0.  0.
        -24    2    3    3    0    0 -0.54168429957E+02  0.18176134343E+03 -0.12272746350E+03  0.24274974104E+03  0.88848194748E+02 0.  0.
          6    2    1    2  501    0  0.95039832994E+01 -0.28738926660E+03 -0.45947457623E+03  0.56998123567E+03  0.17629182215E+03 0.  0.
         24    2    5    5    0    0 -0.36451774574E+02 -0.10145248217E+03 -0.11700144461E+03  0.17756009025E+03  0.78847381705E+02 0.  0.
          5    1    5    5  501    0  0.45955757873E+02 -0.18593678443E+03 -0.34247313162E+03  0.39242114542E+03  0.47000000000E+01 0. -1.
        -13    1    6    6    0    0 -0.58110394583E+01 -0.39483621813E+02  0.19750144006E+01  0.39957793394E+02  0.00000000000E+00 0.  1.
         14    1    6    6    0    0 -0.30640735116E+02 -0.61968860359E+02 -0.11897645901E+03  0.13760229686E+03  0.00000000000E+00 0. -1.
         -5    1    3    3    0  503  0.44664446657E+02  0.10562792317E+03 -0.15417782833E+03  0.19221098745E+03  0.47000000000E+01 0.  1.
         11    1    4    4    0    0 -0.47014700349E+02  0.86511339659E+02 -0.10792658817E+03  0.14609155476E+03  0.00000000000E+00 0. -1.
        -12    1    4    4    0    0 -0.71537296080E+01  0.95250003769E+02 -0.14800875338E+02  0.96658186286E+02  0.00000000000E+00 0.  1.
</event>
<event>
12    1  0.9966151E-001  0.2749699E+03  0.7818608E-02  0.1099791E+00
         21   -1    0    0  503  502  0.00000000000E+00  0.00000000000E+00  0.64390453297E+02  0.64390453297E+02  0.00000000000E+00 0.  1.
         21   -1    0    0  501  503 -0.00000000000E+00 -0.00000000000E+00 -0.19342610888E+04  0.19342610888E+04  0.00000000000E+00 0.  1.
          6    2    1    2  501    0  0.15946329636E+03 -0.12385863284E+03 -0.28314066547E+03  0.38827256230E+03  0.17267727809E+03 0.  0.
         24    2    3    3    0    0  0.13937826197E+03 -0.62871752975E+02 -0.11308918327E+03  0.20644185883E+03  0.80311396900E+02 0.  0.
         -6    2    1    2    0  502 -0.15946329636E+03  0.12385863284E+03 -0.15867299701E+04  0.16103789798E+04  0.18665196753E+03 0.  0.
        -24    2    5    5    0    0 -0.11353828433E+03  0.15596049467E+03 -0.13990148592E+04  0.14144231453E+04  0.78330323876E+02 0.  0.
          5    1    3    3  501    0  0.20085034390E+02 -0.60986879869E+02 -0.17005148220E+03  0.18183070346E+03  0.47000000000E+01 0. -1.
        -13    1    4    4    0    0  0.28180076474E+02 -0.24220691024E+02 -0.73291159944E+02  0.82172700513E+02  0.00000000000E+00 0.  1.
         14    1    4    4    0    0  0.11119818550E+03 -0.38651061951E+02 -0.39798023327E+02  0.12426915832E+03  0.00000000000E+00 0. -1.
         -5    1    5    5    0  502 -0.45925012032E+02 -0.32101861830E+02 -0.18771511084E+03  0.19595583456E+03  0.47000000000E+01 0.  1.
         13    1    6    6    0    0 -0.26250121759E+02  0.38482321797E+02 -0.62219178540E+03  0.62393315010E+03  0.00000000000E+00 0. -1.
        -14    1    6    6    0    0 -0.87288162572E+02  0.11747817288E+03 -0.77682307384E+03  0.79048999517E+03  0.00000000000E+00 0.  1.
</event>
<event>
12    1  0.9966151E-001  0.2034997E+03  0.7818608E-02  0.1147094E+00
         21   -1    0    0  501  502  0.00000000000E+00  0.00000000000E+00  0.25525792792E+03  0.25525792792E+03  0.00000000000E+00 0. -1.
         21   -1    0    0  502  503 -0.00000000000E+00 -0.00000000000E+00 -0.16199752023E+03  0.16199752023E+03  0.00000000000E+00 0. -1.
         -6    2    1    2    0  503  0.10569037007E+03  0.23210007254E+02  0.61599586874E+02  0.21261854426E+03  0.17234551778E+03 0.  0.
        -24    2    3    3    0    0  0.27781430376E+02  0.56338844450E+02 -0.10156277781E+02  0.10154056782E+03  0.79129410882E+02 0.  0.
          6    2    1    2  501    0 -0.10569037007E+03 -0.23210007254E+02  0.31660820812E+02  0.20463690389E+03  0.17077674343E+03 0.  0.
         24    2    5    5    0    0 -0.27740114102E+02  0.13679429233E+02 -0.39427866011E+02  0.92776435785E+02  0.78078612336E+02 0.  0.
          5    1    5    5  501    0 -0.77950255968E+02 -0.36889436487E+02  0.71088686823E+02  0.11186046810E+03  0.47000000000E+01 0. -1.
        -13    1    6    6    0    0 -0.20698655755E+01 -0.31092089397E+02 -0.22599714748E+02  0.38493499104E+02  0.00000000000E+00 0.  1.
         14    1    6    6    0    0 -0.25670248527E+02  0.44771518630E+02 -0.16828151263E+02  0.54282936681E+02  0.00000000000E+00 0. -1.
         -5    1    3    3    0  503  0.77908939694E+02 -0.33128837196E+02  0.71755864656E+02  0.11107797644E+03  0.47000000000E+01 0.  1.
         13    1    4    4    0    0  0.38510515521E+02 -0.17975901436E+01 -0.16792852375E+02  0.42051052626E+02  0.00000000000E+00 0. -1.
        -14    1    4    4    0    0 -0.10729085145E+02  0.58136434593E+02  0.66365745942E+01  0.59489515191E+02  0.00000000000E+00 0.  1.
</event>
<event>
12    1  0.9966151E-001  0.1858292E+03  0.7818608E-02  0.1162872E+00
         21   -1    0    0  503  502  0.00000000000E+00  0.00000000000E+00  0.72476865495E+03  0.72476865495E+03  0.00000000000E+00 0.  1.
         21   -1    0    0  501  503 -0.00000000000E+00 -0.00000000000E+00 -0.49290172959E+02  0.49290172959E+02  0.00000000000E+00 0.  1.
          6    2    1    2  501    0  0.66792870640E+02 -0.97811320142E+01  0.25648147543E+03  0.31672582383E+03  0.17313446256E+03 0.  0.
         24    2    3    3    0    0  0.72505974370E+02  0.34477816349E+01  0.50140653751E+02  0.10982906599E+03  0.65416626786E+02 0.  0.
         -6    2    1    2    0  502 -0.66792870640E+02  0.97811320142E+01  0.41899700656E+03  0.45733300408E+03  0.17040547822E+03 0.  0.
        -24    2    5    5    0    0 -0.99627076102E+02 -0.21535610519E+02  0.23960566691E+03  0.27223258228E+03  0.79437814837E+02 0.  0.
          5    1    3    3  501    0 -0.57131037305E+01 -0.13228913649E+02  0.20634082168E+03  0.20689675784E+03  0.47000000000E+01 0. -1.
        -13    1    4    4    0    0  0.31368939557E+02 -0.61398346818E+01 -0.12463255195E+02  0.34308026304E+02  0.00000000000E+00 0.  1.
         14    1    4    4    0    0  0.41137034813E+02  0.95876163167E+01  0.62603908946E+02  0.75521039686E+02  0.00000000000E+00 0. -1.
         -5    1    5    5    0  502  0.32834205462E+02  0.31316742533E+02  0.17939133965E+03  0.18510042181E+03  0.47000000000E+01 0.  1.
         11    1    6    6    0    0 -0.17113357905E+02  0.22110093224E+02  0.22425710179E+02  0.35841815219E+02  0.00000000000E+00 0. -1.
        -12    1    6    6    0    0 -0.82513718198E+02 -0.43645703743E+02  0.21717995673E+03  0.23639076706E+03  0.00000000000E+00 0.  1.
</event>
<event>
12    1  0.9966151E-001  0.2572199E+03  0.7818608E-02  0.1108826E+00
         21   -1    0    0  501  502  0.00000000000E+00  0.00000000000E+00  0.65099903945E+03  0.65099903945E+03  0.00000000000E+00 0.  1.
         21   -1    0    0  502  503 -0.00000000000E+00 -0.00000000000E+00 -0.11645881432E+03  0.11645881432E+03  0.00000000000E+00 0.  1.
         -6    2    1    2    0  503 -0.46139537479E+02 -0.18519874601E+03  0.13034373900E+03  0.28835778102E+03  0.17243342812E+03 0.  0.
        -24    2    3    3    0    0 -0.64349501500E+02 -0.84684468260E+02  0.13231982235E+03  0.18608013084E+03  0.76190302522E+02 0.  0.
          6    2    1    2  501    0  0.46139537479E+02  0.18519874601E+03  0.40419648612E+03  0.47910007275E+03  0.17243737375E+03 0.  0.
         24    2    5    5    0    0  0.71461547422E+02  0.11570705423E+03  0.35951958037E+03  0.39256444238E+03  0.79734795391E+02 0.  0.
          5    1    5    5  501    0 -0.25322009943E+02  0.69491691783E+02  0.44676905754E+02  0.86535630362E+02  0.47000000000E+01 0. -1.
        -11    1    6    6    0    0  0.50121775176E+02  0.11712791864E+03  0.24584145028E+03  0.27689196512E+03  0.00000000000E+00 0.  1.
         12    1    6    6    0    0  0.21339772247E+02 -0.14208644153E+01  0.11367813009E+03  0.11567247727E+03  0.00000000000E+00 0. -1.
         -5    1    3    3    0  503  0.18209964021E+02 -0.10051427775E+03 -0.19760833419E+01  0.10227765018E+03  0.47000000000E+01 0.  1.
         13    1    4    4    0    0 -0.15656149033E+02 -0.75490645013E+02  0.56829393847E+02  0.95778559668E+02  0.00000000000E+00 0. -1.
        -14    1    4    4    0    0 -0.48693352468E+02 -0.91938232470E+01  0.75490428499E+02  0.90301571168E+02  0.00000000000E+00 0.  1.
</event>
<event>
12    1  0.9966151E-001  0.1996894E+03  0.7818608E-02  0.1150160E+00
         21   -1    0    0  503  502  0.00000000000E+00  0.00000000000E+00  0.16628355067E+03  0.16628355067E+03  0.00000000000E+00 0.  1.
         21   -1    0    0  501  503 -0.00000000000E+00 -0.00000000000E+00 -0.30466613706E+03  0.30466613706E+03  0.00000000000E+00 0.  1.
          6    2    1    2  501    0  0.86220027063E+02  0.55278669882E+02 -0.17869120791E+03  0.26796715006E+03  0.17142409783E+03 0.  0.
         24    2    3    3    0    0  0.32514192601E+02  0.27771937678E+02 -0.18452395531E+03  0.20716379559E+03  0.83900505839E+02 0.  0.
         -6    2    1    2    0  502 -0.86220027063E+02 -0.55278669882E+02  0.40308621518E+02  0.20298253768E+03  0.17055058260E+03 0.  0.
        -24    2    5    5    0    0 -0.41072977292E+00 -0.40780131597E+02 -0.26473718334E+02  0.93185388218E+02  0.79495100370E+02 0.  0.
          5    1    3    3  501    0  0.53705834463E+02  0.27506732204E+02  0.58327473986E+01  0.60803354464E+02  0.47000000000E+01 0. -1.
        -11    1    4    4    0    0 -0.23221329859E+02 -0.11056515243E+02 -0.60877614552E+02  0.66087522599E+02  0.00000000000E+00 0.  1.
         12    1    4    4    0    0  0.55735522459E+02  0.38828452922E+02 -0.12364634075E+03  0.14107627299E+03  0.00000000000E+00 0. -1.
         -5    1    5    5    0  502 -0.85809297290E+02 -0.14498538285E+02  0.66782339852E+02  0.10979714946E+03  0.47000000000E+01 0.  1.
         13    1    6    6    0    0 -0.58586719855E+01 -0.37993234826E+02  0.22023245775E+02  0.44303874373E+02  0.00000000000E+00 0. -1.
        -14    1    6    6    0    0  0.54479422126E+01 -0.27868967712E+01 -0.48496964109E+02  0.48881513845E+02  0.00000000000E+00 0.  1.
</event>
<event>
12    1  0.1447361E+000  0.3058719E+03  0.7818608E-02  0.1082376E+00
         21   -1    0    0  503  502  0.00000000000E+00  0.00000000000E+00  0.35027918715E+03  0.35027918715E+03  0.00000000000E+00 0. -1.
         21   -1    0    0  501  503 -0.00000000000E+00 -0.00000000000E+00 -0.71484775421E+03  0.71484775421E+03  0.00000000000E+00 0. -1.
          6    2    1    2  501    0 -0.24529215413E+03 -0.60529226363E+02  0.23935153072E+03  0.38816529111E+03  0.17190436249E+03 0.  0.
         24    2    3    3    0    0 -0.22640684241E+03 -0.48430343048E+02  0.26188869264E+03  0.35602417035E+03  0.67542328382E+02 0.  0.
         -6    2    1    2    0  502  0.24529215413E+03  0.60529226363E+02 -0.60392009777E+03  0.67696165025E+03  0.17241103006E+03 0.  0.
        -24    2    5    5    0    0  0.15942234000E+03 -0.21252844789E+02 -0.43470345340E+03  0.47027760424E+03  0.79540975284E+02 0.  0.
          5    1    3    3  501    0 -0.18885311720E+02 -0.12098883315E+02 -0.22537161921E+02  0.32141120760E+02  0.47000000000E+01 0. -1.
        -13    1    4    4    0    0 -0.10779894239E+03 -0.37060741139E+02  0.82677616949E+02  0.14081796355E+03  0.00000000000E+00 0.  1.
         14    1    4    4    0    0 -0.11860790002E+03 -0.11369601908E+02  0.17921107569E+03  0.21520620680E+03  0.00000000000E+00 0. -1.
         -5    1    5    5    0  502  0.85869814133E+02  0.81782071152E+02 -0.16921664437E+03  0.20668404601E+03  0.47000000000E+01 0.  1.
         11    1    6    6    0    0 -0.50369004430E+01  0.48639525706E+01 -0.57865349966E+02  0.58287452572E+02  0.00000000000E+00 0. -1.
        -12    1    6    6    0    0  0.16445924044E+03 -0.26116797359E+02 -0.37683810343E+03  0.41199015167E+03  0.00000000000E+00 0.  1.
</event>
<event>
12    1  0.9966151E-001  0.2007806E+03  0.7818608E-02  0.1149384E+00
         21   -1    0    0  501  502  0.00000000000E+00  0.00000000000E+00  0.21643517837E+03  0.21643517837E+03  0.00000000000E+00 0.  1.
         21   -1    0    0  502  503 -0.00000000000E+00 -0.00000000000E+00 -0.19709421314E+03  0.19709421314E+03  0.00000000000E+00 0.  1.
         -6    2    1    2    0  503  0.34998069730E+02  0.93580003201E+02  0.61063817855E+02  0.20986103916E+03  0.17415735420E+03 0.  0.
        -24    2    3    3    0    0 -0.42106971944E+02  0.82114399143E+02  0.31430468603E+02  0.12633336162E+03  0.80352176499E+02 0.  0.
          6    2    1    2  501    0 -0.34998069730E+02 -0.93580003201E+02 -0.41722852622E+02  0.20366835235E+03  0.17250483887E+03 0.  0.
         24    2    5    5    0    0 -0.84535600643E+02 -0.47976223892E+02 -0.18378279727E+01  0.12526824490E+03  0.78998542604E+02 0.  0.
          5    1    5    5  501    0  0.49537530914E+02 -0.45603779309E+02 -0.39885024649E+02  0.78400107446E+02  0.47000000000E+01 0. -1.
        -11    1    6    6    0    0  0.71102753825E+00  0.43894512845E+01  0.21980941565E+02  0.22426204200E+02  0.00000000000E+00 0.  1.
         12    1    6    6    0    0 -0.85246628182E+02 -0.52365675176E+02 -0.23818769538E+02  0.10284204070E+03  0.00000000000E+00 0. -1.
         -5    1    3    3    0  503  0.77105041674E+02  0.11465604058E+02  0.29633349253E+02  0.83527677544E+02  0.47000000000E+01 0.  1.
         11    1    4    4    0    0 -0.51658923832E+02  0.29802564927E+02 -0.79440688670E+01  0.60165983063E+02  0.00000000000E+00 0. -1.
        -12    1    4    4    0    0  0.95519518880E+01  0.52311834216E+02  0.39374537470E+02  0.66167378555E+02  0.00000000000E+00 0.  1.
</event>
<event>
12    1  0.9966151E-001  0.2274305E+03  0.7818608E-02  0.1128689E+00
         21   -1    0    0  501  502  0.00000000000E+00  0.00000000000E+00  0.14980986603E+03  0.14980986603E+03  0.00000000000E+00 0.  1.
         21   -1    0    0  502  503 -0.00000000000E+00 -0.00000000000E+00 -0.41933014938E+03  0.41933014938E+03  0.00000000000E+00 0.  1.
         -6    2    1    2    0  503  0.10962748258E+03 -0.96803252233E+02 -0.25558948876E+03  0.34128323647E+03  0.17250856834E+03 0.  0.
        -24    2    3    3    0    0  0.40205944804E+02 -0.89469171544E+02 -0.23604723533E+03  0.26863939078E+03  0.82629137215E+02 0.  0.
          6    2    1    2  501    0 -0.10962748258E+03  0.96803252233E+02 -0.13930794579E+02  0.22785677894E+03  0.17417115172E+03 0.  0.
         24    2    5    5    0    0 -0.11209019236E+03  0.81643831227E+02  0.46226931322E+02  0.16559190144E+03  0.77806312358E+02 0.  0.
          5    1    5    5  501    0  0.24627097709E+01  0.15159421006E+02 -0.60157725901E+02  0.62264877502E+02  0.47000000000E+01 0. -1.
        -13    1    6    6    0    0  0.85966014088E+01 -0.54439879062E+01  0.33080181982E+01  0.10699604876E+02  0.00000000000E+00 0.  1.
         14    1    6    6    0    0 -0.12068679376E+03  0.87087819133E+02  0.42918913124E+02  0.15489229656E+03  0.00000000000E+00 0. -1.
         -5    1    3    3    0  503  0.69421537781E+02 -0.73340806884E+01 -0.19542253429E+02  0.72643845689E+02  0.47000000000E+01 0.  1.
         13    1    4    4    0    0 -0.22310286336E+02 -0.48363903501E+02 -0.10506606752E+03  0.11779513820E+03  0.00000000000E+00 0. -1.
        -14    1    4    4    0    0  0.62516231140E+02 -0.41105268043E+02 -0.13098116781E+03  0.15084425258E+03  0.00000000000E+00 0.  1.
</event>
<event>
12    1  0.9966151E-001  0.1982667E+03  0.7818608E-02  0.1154198E+00
         21   -1    0    0  503  502  0.00000000000E+00  0.00000000000E+00  0.51178378734E+03  0.51178378734E+03  0.00000000000E+00 0.  1.
         21   -1    0    0  501  503 -0.00000000000E+00 -0.00000000000E+00 -0.72257646656E+02  0.72257646656E+02  0.00000000000E+00 0.  1.
          6    2    1    2  501    0 -0.65762825559E+02  0.24371933147E+02  0.25370147683E+03  0.32198467950E+03  0.18544798230E+03 0.  0.
         24    2    3    3    0    0 -0.28659793794E+01 -0.53289550566E+02  0.12820782896E+03  0.16149148660E+03  0.82427318291E+02 0.  0.
         -6    2    1    2    0  502  0.65762825559E+02 -0.24371933147E+02  0.18582466385E+03  0.26205675449E+03  0.17095085998E+03 0.  0.
        -24    2    5    5    0    0  0.29883257301E+02 -0.18520055630E+02  0.16965664381E+02  0.89264857716E+02  0.80276892863E+02 0.  0.
          5    1    3    3  501    0 -0.62896846180E+02  0.77661483713E+02  0.12549364787E+03  0.16049319290E+03  0.47000000000E+01 0. -1.
        -11    1    4    4    0    0  0.32500100242E+02  0.15061355671E+01  0.50084210504E+02  0.59723974264E+02  0.00000000000E+00 0.  1.
         12    1    4    4    0    0 -0.35366079621E+02 -0.54795686134E+02  0.78123618451E+02  0.10176751233E+03  0.00000000000E+00 0. -1.
         -5    1    5    5    0  502  0.35879568258E+02 -0.58518775173E+01  0.16885899947E+03  0.17279189678E+03  0.47000000000E+01 0.  1.
         11    1    6    6    0    0  0.47577528267E+02 -0.71438728361E+01  0.36630700257E+02  0.60468705265E+02  0.00000000000E+00 0. -1.
        -12    1    6    6    0    0 -0.17694270966E+02 -0.11376182794E+02 -0.19665035876E+02  0.28796152451E+02  0.00000000000E+00 0.  1.
</event>
<event>
12    1  0.9966151E-001  0.2624445E+03  0.7818608E-02  0.1107177E+00
         21   -1    0    0  501  502  0.00000000000E+00  0.00000000000E+00  0.37993222871E+03  0.37993222871E+03  0.00000000000E+00 0. -1.
         21   -1    0    0  502  503 -0.00000000000E+00 -0.00000000000E+00 -0.57794905642E+03  0.57794905642E+03  0.00000000000E+00 0. -1.
         -6    2    1    2    0  503 -0.16474490530E+03  0.77533210913E+02 -0.49969743579E+03  0.56442417040E+03  0.18901014305E+03 0.  0.
        -24    2    3    3    0    0 -0.72314180970E+02 -0.14651572663E+02 -0.34512845701E+03  0.36205042624E+03  0.80764162551E+02 0.  0.
          6    2    1    2  501    0  0.16474490530E+03 -0.77533210913E+02  0.30168060807E+03  0.39345711473E+03  0.17505721701E+03 0.  0.
         24    2    5    5    0    0  0.13657923454E+03 -0.81132800491E+02  0.31489310648E+03  0.36178816829E+03  0.80601436599E+02 0.  0.
          5    1    5    5  501    0  0.28165670764E+02  0.35995895785E+01 -0.13212498407E+02  0.31668946444E+02  0.47000000000E+01 0. -1.
        -13    1    6    6    0    0  0.32897005195E+02 -0.40379275695E+02  0.17706740708E+03  0.18456859296E+03  0.00000000000E+00 0.  1.
         14    1    6    6    0    0  0.10368222934E+03 -0.40753524796E+02  0.13782569940E+03  0.17721957533E+03  0.00000000000E+00 0. -1.
         -5    1    3    3    0  503 -0.92430724329E+02  0.92184783576E+02 -0.15456897878E+03  0.20237374416E+03  0.47000000000E+01 0.  1.
         11    1    4    4    0    0 -0.57164193038E+02  0.97501145537E+01 -0.31550090682E+03  0.32078595964E+03  0.00000000000E+00 0. -1.
        -12    1    4    4    0    0 -0.15149987932E+02 -0.24401687217E+02 -0.29627550186E+02  0.41264466595E+02  0.00000000000E+00 0.  1.
</event>
<event>
12    1  0.9966151E-001  0.2665809E+03  0.7818608E-02  0.1103477E+00
         21   -1    0    0  501  502  0.00000000000E+00  0.00000000000E+00  0.79678317067E+03  0.79678317067E+03  0.00000000000E+00 0.  1.
         21   -1    0    0  502  503 -0.00000000000E+00 -0.00000000000E+00 -0.99571680296E+02  0.99571680296E+02  0.00000000000E+00 0.  1.
         -6    2    1    2    0  503 -0.14965239298E+03  0.13767129650E+03  0.49774704390E+03  0.56463928150E+03  0.17238379825E+03 0.  0.
        -24    2    3    3    0    0 -0.16656084797E+03  0.14587524750E+03  0.41418232815E+03  0.47885844227E+03  0.93468191731E+02 0.  0.
          6    2    1    2  501    0  0.14965239298E+03 -0.13767129650E+03  0.19946444648E+03  0.33171556947E+03  0.16999979122E+03 0.  0.
         24    2    5    5    0    0  0.17301667422E+03 -0.92242349035E+02  0.14250462547E+03  0.25505925783E+03  0.79399220442E+02 0.  0.
          5    1    5    5  501    0 -0.23364281242E+02 -0.45428947461E+02  0.56959821008E+02  0.76656311643E+02  0.47000000000E+01 0. -1.
        -11    1    6    6    0    0  0.18299102132E+02  0.63491506791E+01 -0.45963451352E+01  0.19907165589E+02  0.00000000000E+00 0.  1.
         12    1    6    6    0    0  0.15471757209E+03 -0.98591499714E+02  0.14710097061E+03  0.23515209224E+03  0.00000000000E+00 0. -1.
         -5    1    3    3    0  503  0.16908454991E+02 -0.82039510032E+01  0.83564715743E+02  0.85780839233E+02  0.47000000000E+01 0.  1.
         13    1    4    4    0    0 -0.92427257470E+02  0.12965235661E+03  0.32388213458E+03  0.36090465305E+03  0.00000000000E+00 0. -1.
        -14    1    4    4    0    0 -0.74133590503E+02  0.16222890887E+02  0.90300193577E+02  0.11795378921E+03  0.00000000000E+00 0.  1.
</event>
<event>
12    1  0.9966151E-001  0.1740455E+03  0.7818608E-02  0.1173774E+00
         21   -1    0    0  501  502  0.00000000000E+00  0.00000000000E+00  0.32504787027E+02  0.32504787027E+02  0.00000000000E+00 0. -1.
         21   -1    0    0  502  503 -0.00000000000E+00 -0.00000000000E+00 -0.95850530546E+03  0.95850530546E+03  0.00000000000E+00 0. -1.
         -6    2    1    2    0  503  0.14700928652E+02 -0.44407562882E+01 -0.37747782696E+03  0.41553724878E+03  0.17304871469E+03 0.  0.
        -24    2    3    3    0    0 -0.28660848225E+02  0.45471326766E+02 -0.14556603512E+03  0.17433893012E+03  0.79470159157E+02 0.  0.
          6    2    1    2  501    0 -0.14700928652E+02  0.44407562882E+01 -0.54852269147E+03  0.57547284370E+03  0.17336670143E+03 0.  0.
         24    2    5    5    0    0 -0.59562480816E+02 -0.29155476628E+02 -0.45121397894E+03  0.46307915499E+03  0.80315117230E+02 0.  0.
          5    1    5    5  501    0  0.44861552164E+02  0.33596232917E+02 -0.97308712527E+02  0.11239368871E+03  0.47000000000E+01 0. -1.
        -13    1    6    6    0    0 -0.51863808735E+02 -0.50906101184E+02 -0.24422083399E+03  0.25480404539E+03  0.00000000000E+00 0.  1.
         14    1    6    6    0    0 -0.76986720817E+01  0.21750624556E+02 -0.20699314496E+03  0.20827510960E+03  0.00000000000E+00 0. -1.
         -5    1    3    3    0  503  0.43361776877E+02 -0.49912083055E+02 -0.23191179185E+03  0.24119831867E+03  0.47000000000E+01 0.  1.
         11    1    4    4    0    0  0.21752522338E+02  0.25984816396E+02 -0.24686066148E+02  0.41925943914E+02  0.00000000000E+00 0. -1.
        -12    1    4    4    0    0 -0.50413370562E+02  0.19486510370E+02 -0.12087996897E+03  0.13241298620E+03  0.00000000000E+00 0.  1.
</event>
<event>
12    1  0.9966151E-001  0.2991072E+03  0.7818608E-02  0.1085828E+00
         21   -1    0    0  501  502  0.00000000000E+00  0.00000000000E+00  0.15050303211E+03  0.15050303211E+03  0.00000000000E+00 0. -1.
         21   -1    0    0  502  503 -0.00000000000E+00 -0.00000000000E+00 -0.83562846828E+03  0.83562846828E+03  0.00000000000E+00 0. -1.
         -6    2    1    2    0  503  0.23745013772E+03  0.57771729157E+02 -0.76908139644E+02  0.30883650097E+03  0.17246733544E+03 0.  0.
        -24    2    3    3    0    0  0.33430997690E+02 -0.97953403839E+01 -0.19145119820E+02  0.86243206270E+02  0.76536100731E+02 0.  0.
          6    2    1    2  501    0 -0.23745013772E+03 -0.57771729157E+02 -0.60821729653E+03  0.67729499943E+03  0.17052887105E+03 0.  0.
         24    2    5    5    0    0 -0.23848436112E+03 -0.40558746166E+02 -0.44222731274E+03  0.51034554264E+03  0.79798335680E+02 0.  0.
          5    1    5    5  501    0  0.10342233989E+01 -0.17212982991E+02 -0.16598998379E+03  0.16694945678E+03  0.47000000000E+01 0. -1.
        -11    1    6    6    0    0 -0.43852178229E+02 -0.27530763031E+02 -0.15266832659E+03  0.16120972177E+03  0.00000000000E+00 0.  1.
         12    1    6    6    0    0 -0.19463218289E+03 -0.13027983136E+02 -0.28955898615E+03  0.34913582088E+03  0.00000000000E+00 0. -1.
         -5    1    3    3    0  503  0.20401914003E+03  0.67567069541E+02 -0.57763019824E+02  0.22259329470E+03  0.47000000000E+01 0.  1.
         13    1    4    4    0    0  0.47143685204E+01  0.14009660400E+02  0.24634005629E+02  0.28728558759E+02  0.00000000000E+00 0. -1.
        -14    1    4    4    0    0  0.28716629169E+02 -0.23805000784E+02 -0.43779125449E+02  0.57514647511E+02  0.00000000000E+00 0.  1.
</event>
<event>
12    1  0.9966151E-001  0.3688425E+03  0.7818608E-02  0.1055185E+00
         21   -1    0    0  501  502  0.00000000000E+00  0.00000000000E+00  0.24922545724E+03  0.24922545724E+03  0.00000000000E+00 0.  1.
         21   -1    0    0  502  503 -0.00000000000E+00 -0.00000000000E+00 -0.59505058639E+03  0.59505058639E+03  0.00000000000E+00 0.  1.
         -6    2    1    2    0  503  0.20074376618E+03  0.25564965089E+03 -0.50525501622E+02  0.37178618855E+03  0.17325512986E+03 0.  0.
        -24    2    3    3    0    0  0.21370768682E+03  0.25848066927E+03 -0.25254113355E+02  0.34285850339E+03  0.66565391239E+02 0.  0.
          6    2    1    2  501    0 -0.20074376618E+03 -0.25564965089E+03 -0.29529962753E+03  0.47248985509E+03  0.17432724826E+03 0.  0.
         24    2    5    5    0    0 -0.18885287401E+03 -0.20162853165E+03 -0.30190527474E+03  0.41658458507E+03  0.77951579868E+02 0.  0.
          5    1    5    5  501    0 -0.11890892172E+02 -0.54021119242E+02  0.66056472185E+01  0.55905270019E+02  0.47000000000E+01 0. -1.
        -11    1    6    6    0    0 -0.12255116950E+03 -0.14448713240E+03 -0.25377382649E+03  0.31669618815E+03  0.00000000000E+00 0.  1.
         12    1    6    6    0    0 -0.66301704509E+02 -0.57141399242E+02 -0.48131448249E+02  0.99888396917E+02  0.00000000000E+00 0. -1.
         -5    1    3    3    0  503 -0.12963920644E+02 -0.28310183844E+01 -0.25271388268E+02  0.28927685157E+02  0.47000000000E+01 0.  1.
         13    1    4    4    0    0  0.12686443275E+03  0.10922058336E+03  0.53190374138E+01  0.16748734963E+03  0.00000000000E+00 0. -1.
        -14    1    4    4    0    0  0.86843254079E+02  0.14926008591E+03 -0.30573150768E+02  0.17537115376E+03  0.00000000000E+00 0.  1.
</event>
<event>
12    1  0.9966151E-001  0.3244668E+03  0.7818608E-02  0.1073951E+00
         21   -1    0    0  501  502  0.00000000000E+00  0.00000000000E+00  0.17653776084E+03  0.17653776084E+03  0.00000000000E+00 0.  1.
         21   -1    0    0  502  503 -0.00000000000E+00 -0.00000000000E+00 -0.59644147853E+03  0.59644147853E+03  0.00000000000E+00 0.  1.
         -6    2    1    2    0  503 -0.96939530495E+01 -0.27502963591E+03 -0.17356811542E+03  0.36797360522E+03  0.17188196560E+03 0.  0.
        -24    2    3    3    0    0  0.35673712624E+02 -0.23400861021E+03 -0.92237242801E+02  0.26610236061E+03  0.79184051033E+02 0.  0.
          6    2    1    2  501    0  0.96939530495E+01  0.27502963591E+03 -0.24633560227E+03  0.40500563415E+03  0.16617178278E+03 0.  0.
         24    2    5    5    0    0 -0.39264868890E+02  0.11090619641E+03 -0.16105267430E+03  0.21361927768E+03  0.76506977240E+02 0.  0.
          5    1    5    5  501    0  0.48958821939E+02  0.16412343950E+03 -0.85282927970E+02  0.19138635647E+03  0.47000000000E+01 0. -1.
        -11    1    6    6    0    0  0.22400655014E+01 -0.99317435844E+01 -0.34884025309E+01  0.10762266318E+02  0.00000000000E+00 0.  1.
         12    1    6    6    0    0 -0.41504934391E+02  0.12083793999E+03 -0.15756427177E+03  0.20285701136E+03  0.00000000000E+00 0. -1.
         -5    1    3    3    0  503 -0.45367665673E+02 -0.41021025697E+02 -0.81330872623E+02  0.10187124461E+03  0.47000000000E+01 0.  1.
         11    1    4    4    0    0  0.30722472707E+01 -0.17978375912E+03 -0.93813905820E+02  0.20281195150E+03  0.00000000000E+00 0. -1.
        -12    1    4    4    0    0  0.32601465353E+02 -0.54224851090E+02  0.15766630189E+01  0.63290409109E+02  0.00000000000E+00 0.  1.
</event>
<event>
12    1  0.9966151E-001  0.2192822E+03  0.7818608E-02  0.1134580E+00
         21   -1    0    0  501  502  0.00000000000E+00  0.00000000000E+00  0.66651436482E+03  0.66651436482E+03  0.00000000000E+00 0.  1.
         21   -1    0    0  502  503 -0.00000000000E+00 -0.00000000000E+00 -0.72012024276E+02  0.72012024276E+02  0.00000000000E+00 0.  1.
         -6    2    1    2    0  503 -0.26477341357E+02  0.13312555568E+03  0.31355693663E+03  0.38213477303E+03  0.17113026929E+03 0.  0.
        -24    2    3    3    0    0  0.24173178901E+02  0.46325641021E+02  0.24526137331E+03  0.26053676994E+03  0.70681395398E+02 0.  0.
          6    2    1    2  501    0  0.26477341357E+02 -0.13312555568E+03  0.28094540392E+03  0.35639161607E+03  0.17222427484E+03 0.  0.
         24    2    5    5    0    0  0.60327855274E+02 -0.14274672301E+03  0.26590659612E+03  0.31783412791E+03  0.79348206981E+02 0.  0.
          5    1    5    5  501    0 -0.33850513918E+02  0.96211673307E+01  0.15038807795E+02  0.38557488160E+02  0.47000000000E+01 0. -1.
        -13    1    6    6    0    0 -0.17333148409E+02 -0.40185403832E+02  0.49461824421E+02  0.66043749060E+02  0.00000000000E+00 0.  1.
         14    1    6    6    0    0  0.77661003683E+02 -0.10256131918E+03  0.21644477170E+03  0.25179037885E+03  0.00000000000E+00 0. -1.
         -5    1    3    3    0  503 -0.50650520257E+02  0.86799914658E+02  0.68295563316E+02  0.12159800309E+03  0.47000000000E+01 0.  1.
         13    1    4    4    0    0 -0.15342383161E+02  0.43435867513E+02  0.10243173901E+03  0.11231350972E+03  0.00000000000E+00 0. -1.
        -14    1    4    4    0    0  0.39515562062E+02  0.28897735086E+01  0.14282963430E+03  0.14822326022E+03  0.00000000000E+00 0.  1.
</event>
<event>
12    1  0.9966151E-001  0.1780335E+03  0.7818608E-02  0.1169897E+00
         21   -1    0    0  503  502  0.00000000000E+00  0.00000000000E+00  0.20000043961E+03  0.20000043961E+03  0.00000000000E+00 0.  1.
         21   -1    0    0  501  503 -0.00000000000E+00 -0.00000000000E+00 -0.16883506322E+03  0.16883506322E+03  0.00000000000E+00 0.  1.
          6    2    1    2  501    0  0.43905466002E+02 -0.53931715734E+01  0.62674024316E+02  0.18874311448E+03  0.17245043837E+03 0.  0.
         24    2    3    3    0    0 -0.38795622464E+02 -0.47293893887E+01  0.16104662211E+02  0.93713086973E+02  0.83638000207E+02 0.  0.
         -6    2    1    2    0  502 -0.43905466002E+02  0.53931715734E+01 -0.31508647919E+02  0.18009238836E+03  0.17170817454E+03 0.  0.
        -24    2    5    5    0    0  0.50011904961E+01 -0.56046367160E+01 -0.76930536790E+02  0.11228345955E+03  0.81442273659E+02 0.  0.
          5    1    3    3  501    0  0.82701088466E+02 -0.66378218470E+00  0.46569362105E+02  0.95030027503E+02  0.47000000000E+01 0. -1.
        -11    1    4    4    0    0 -0.21850227402E+02  0.22710504532E+02  0.41890429435E+02  0.52421441528E+02  0.00000000000E+00 0.  1.
         12    1    4    4    0    0 -0.16945395063E+02 -0.27439893921E+02 -0.25785767224E+02  0.41291645445E+02  0.00000000000E+00 0. -1.
         -5    1    5    5    0  502 -0.48906656498E+02  0.10997808289E+02  0.45421888871E+02  0.67808928804E+02  0.47000000000E+01 0.  1.
         11    1    6    6    0    0 -0.32676046322E+02 -0.21885018615E+02 -0.27272975752E+02  0.47859097875E+02  0.00000000000E+00 0. -1.
        -12    1    6    6    0    0  0.37677236819E+02  0.16280381899E+02 -0.49657561038E+02  0.64424361676E+02  0.00000000000E+00 0.  1.
</event>
<event>
12    1  0.9966151E-001  0.2105410E+03  0.7818608E-02  0.1142066E+00
         21   -1    0    0  501  502  0.00000000000E+00  0.00000000000E+00  0.40911935510E+03  0.40911935510E+03  0.00000000000E+00 0.  1.
         21   -1    0    0  502  503 -0.00000000000E+00 -0.00000000000E+00 -0.11638064751E+03  0.11638064751E+03  0.00000000000E+00 0.  1.
         -6    2    1    2    0  503 -0.57810106694E+02  0.10791317654E+03  0.22643506517E+03  0.30919306759E+03  0.17128996526E+03 0.  0.
        -24    2    3    3    0    0  0.28634915680E+02  0.85858901884E+02  0.14310377339E+03  0.18702381158E+03  0.79419813085E+02 0.  0.
          6    2    1    2  501    0  0.57810106694E+02 -0.10791317654E+03  0.66303642421E+02  0.21630693502E+03  0.16554532621E+03 0.  0.
         24    2    5    5    0    0 -0.20571243877E+02 -0.52026683390E+02  0.70243096701E+02  0.11984686279E+03  0.79367663610E+02 0.  0.
          5    1    5    5  501    0  0.78381350571E+02 -0.55886493149E+02 -0.39394542801E+01  0.96460072227E+02  0.47000000000E+01 0. -1.
        -11    1    6    6    0    0  0.25425651502E+02 -0.28631800656E+02  0.53105757609E+02  0.65471102437E+02  0.00000000000E+00 0.  1.
         12    1    6    6    0    0 -0.45996895379E+02 -0.23394882734E+02  0.17137339092E+02  0.54375760352E+02  0.00000000000E+00 0. -1.
         -5    1    3    3    0  503 -0.86445022374E+02  0.22054274656E+02  0.83331291782E+02  0.12216925601E+03  0.47000000000E+01 0.  1.
         13    1    4    4    0    0  0.38715486204E+02  0.78892739181E+02  0.68508282357E+02  0.11142862253E+03  0.00000000000E+00 0. -1.
        -14    1    4    4    0    0 -0.10080570525E+02  0.69661627030E+01  0.74595491032E+02  0.75595189048E+02  0.00000000000E+00 0.  1.
</event>
<event>
12    1  0.9966151E-001  0.1991578E+03  0.7818608E-02  0.1150826E+00
         21   -1    0    0  501  502  0.00000000000E+00  0.00000000000E+00  0.13092481954E+03  0.13092481954E+03  0.00000000000E+00 0. -1.
         21   -1    0    0  502  503 -0.00000000000E+00 -0.00000000000E+00 -0.31540208957E+03  0.31540208957E+03  0.00000000000E+00 0. -1.
         -6    2    1    2    0  503 -0.92232126438E+02  0.41867456696E+02 -0.42995727027E+02  0.20203022943E+03  0.16943415235E+03 0.  0.
        -24    2    3    3    0    0 -0.70676263029E+02 -0.38327155926E+02 -0.38397977787E+02  0.11872920639E+03  0.78473656190E+02 0.  0.
          6    2    1    2  501    0  0.92232126438E+02 -0.41867456696E+02 -0.14148154300E+03  0.24429667968E+03  0.17147650456E+03 0.  0.
         24    2    5    5    0    0  0.10866023876E+03 -0.38895696027E+02 -0.46217977783E+02  0.14746718472E+03  0.79312965153E+02 0.  0.
          5    1    5    5  501    0 -0.16428112322E+02 -0.29717606683E+01 -0.95263565221E+02  0.96829494962E+02  0.47000000000E+01 0. -1.
        -11    1    6    6    0    0  0.25330700125E+02 -0.45080181275E+02 -0.36611077151E+02  0.63358015142E+02  0.00000000000E+00 0.  1.
         12    1    6    6    0    0  0.83329538636E+02  0.61844852473E+01 -0.96069006313E+01  0.84109169576E+02  0.00000000000E+00 0. -1.
         -5    1    3    3    0  503 -0.21555863409E+02  0.80194612622E+02 -0.45977492404E+01  0.83301023037E+02  0.47000000000E+01 0.  1.
         11    1    4    4    0    0 -0.84222253671E+02 -0.31162562307E+02 -0.46786527680E+02  0.10125943154E+03  0.00000000000E+00 0. -1.
        -12    1    4    4    0    0  0.13545990642E+02 -0.71645936189E+01  0.83885498934E+01  0.17469774856E+02  0.00000000000E+00 0.  1.
</event>
<event>
12    1  0.9966151E-001  0.1787964E+03  0.7818608E-02  0.1169296E+00
         21   -1    0    0  501  502  0.00000000000E+00  0.00000000000E+00  0.33144137578E+03  0.33144137578E+03  0.00000000000E+00 0.  1.
         21   -1    0    0  502  503 -0.00000000000E+00 -0.00000000000E+00 -0.24544275095E+03  0.24544275095E+03  0.00000000000E+00 0.  1.
         -6    2    1    2    0  503  0.20250551539E+01  0.47852932044E+02  0.26820203053E+03  0.32160732642E+03  0.17089452675E+03 0.  0.
        -24    2    3    3    0    0  0.58521037425E+02 -0.24945962334E+01  0.17963134619E+03  0.20501604998E+03  0.79581564353E+02 0.  0.
          6    2    1    2  501    0 -0.20250551539E+01 -0.47852932044E+02 -0.18220340569E+03  0.25527680032E+03  0.17226189300E+03 0.  0.
         24    2    5    5    0    0  0.98451394309E+01  0.18197291331E+02 -0.27642414491E+02  0.86710126481E+02  0.79539139882E+02 0.  0.
          5    1    5    5  501    0 -0.11870194585E+02 -0.66050223375E+02 -0.15456099120E+03  0.16856667384E+03  0.47000000000E+01 0. -1.
        -13    1    6    6    0    0 -0.57569666911E+01  0.40930583440E+02 -0.39058026217E+02  0.56868134647E+02  0.00000000000E+00 0.  1.
         14    1    6    6    0    0  0.15602106122E+02 -0.22733292109E+02  0.11415611726E+02  0.29841991834E+02  0.00000000000E+00 0. -1.
         -5    1    3    3    0  503 -0.56495982271E+02  0.50347528277E+02  0.88570684335E+02  0.11659127643E+03  0.47000000000E+01 0.  1.
         11    1    4    4    0    0  0.28665516078E+02 -0.10170576984E+02  0.17002969189E+03  0.17272882959E+03  0.00000000000E+00 0. -1.
        -12    1    4    4    0    0  0.29855521347E+02  0.76759807504E+01  0.96016543039E+01  0.32287220394E+02  0.00000000000E+00 0.  1.
</event>
<event>
12    1  0.9966151E-001  0.3730665E+03  0.7818608E-02  0.1053586E+00
         21   -1    0    0  501  502  0.00000000000E+00  0.00000000000E+00  0.76721837186E+03  0.76721837186E+03  0.00000000000E+00 0. -1.
         21   -1    0    0  502  503 -0.00000000000E+00 -0.00000000000E+00 -0.27045388923E+03  0.27045388923E+03  0.00000000000E+00 0.  1.
         -6    2    1    2    0  503 -0.63238934697E+02 -0.32473151025E+03 -0.49695542750E+02  0.37636186445E+03  0.17242067576E+03 0.  0.
        -24    2    3    3    0    0 -0.78932266085E+02 -0.16348353521E+03 -0.67375422733E+02  0.21332242670E+03  0.89497716345E+02 0.  0.
          6    2    1    2  501    0  0.63238934697E+02  0.32473151025E+03  0.54646002538E+03  0.66131039664E+03  0.17106479695E+03 0.  0.
         24    2    5    5    0    0  0.10072060724E+03  0.30221918597E+03  0.48622343883E+03  0.58673012525E+03  0.79736630988E+02 0.  0.
          5    1    5    5  501    0 -0.37481672540E+02  0.22512324280E+02  0.60236586547E+02  0.74580271384E+02  0.47000000000E+01 0. -1.
        -13    1    6    6    0    0  0.29294418037E+02  0.19694626556E+02  0.35947978348E+02  0.50381528268E+02  0.00000000000E+00 0.  1.
         14    1    6    6    0    0  0.71426189200E+02  0.28252455942E+03  0.45027546048E+03  0.53634859699E+03  0.00000000000E+00 0. -1.
         -5    1    3    3    0  503  0.15693331387E+02 -0.16124797504E+03  0.17679879983E+02  0.16303943775E+03  0.47000000000E+01 0.  1.
         13    1    4    4    0    0 -0.51036022102E+02 -0.51631651970E+02  0.11692912761E+02  0.73533851021E+02  0.00000000000E+00 0. -1.
        -14    1    4    4    0    0 -0.27896243982E+02 -0.11185188324E+03 -0.79068335494E+02  0.13978857568E+03  0.00000000000E+00 0.  1.
</event>
<event>
12    1  0.9966151E-001  0.2047777E+03  0.7818608E-02  0.1145833E+00
         21   -1    0    0  503  502  0.00000000000E+00  0.00000000000E+00  0.87655083075E+02  0.87655083075E+02  0.00000000000E+00 0.  1.
         21   -1    0    0  501  503 -0.00000000000E+00 -0.00000000000E+00 -0.61638935096E+03  0.61638935096E+03  0.00000000000E+00 0.  1.
          6    2    1    2  501    0  0.97946668354E+02 -0.53500372625E+02 -0.97526746912E+02  0.22681570747E+03  0.17169175600E+03 0.  0.
         24    2    3    3    0    0  0.12012129349E+03 -0.50250729470E+02 -0.29916708503E+02  0.15543306620E+03  0.79436563742E+02 0.  0.
         -6    2    1    2    0  502 -0.97946668354E+02  0.53500372625E+02 -0.43120752097E+03  0.47722872657E+03  0.17132277024E+03 0.  0.
        -24    2    5    5    0    0 -0.97834674308E+02 -0.40051846739E+01 -0.18467190031E+03  0.22403156244E+03  0.80614919254E+02 0.  0.
          5    1    3    3  501    0 -0.22174625138E+02 -0.32496431546E+01 -0.67610038410E+02  0.71382641268E+02  0.47000000000E+01 0. -1.
        -11    1    4    4    0    0  0.50097135955E+02 -0.57620579780E+02  0.56248436701E+01  0.76560388657E+02  0.00000000000E+00 0.  1.
         12    1    4    4    0    0  0.70024157537E+02  0.73698503099E+01 -0.35541552173E+02  0.78872677545E+02  0.00000000000E+00 0. -1.
         -5    1    5    5    0  502 -0.11199404600E+00  0.57505557299E+02 -0.24653562067E+03  0.25319716412E+03  0.47000000000E+01 0.  1.
         11    1    6    6    0    0 -0.73861990358E+02  0.20554007953E+02 -0.17041730604E+03  0.18686925659E+03  0.00000000000E+00 0. -1.
        -12    1    6    6    0    0 -0.23972683949E+02 -0.24559192627E+02 -0.14254594269E+02  0.37162305849E+02  0.00000000000E+00 0.  1.
</event>
<event>
12    1  0.9966151E-001  0.1982280E+03  0.7818608E-02  0.1151841E+00
         21   -1    0    0  503  502  0.00000000000E+00  0.00000000000E+00  0.18603426760E+04  0.18603426760E+04  0.00000000000E+00 0. -1.
         21   -1    0    0  501  503 -0.00000000000E+00 -0.00000000000E+00 -0.26658551602E+02  0.26658551602E+02  0.00000000000E+00 0. -1.
          6    2    1    2  501    0  0.71511069156E+02 -0.61651807991E+02  0.13631814338E+04  0.13775187671E+04  0.17429731406E+03 0.  0.
         24    2    3    3    0    0  0.55242883390E+02 -0.49500606806E+02  0.13463120116E+04  0.13507050959E+04  0.79662645629E+02 0.  0.
         -6    2    1    2    0  502 -0.71511069156E+02  0.61651807991E+02  0.47050269064E+03  0.50948246059E+03  0.17112807283E+03 0.  0.
        -24    2    5    5    0    0 -0.37698844496E+01 -0.28936987875E+02  0.19322432784E+03  0.20998191214E+03  0.76845307358E+02 0.  0.
          5    1    3    3  501    0  0.16268185766E+02 -0.12151201185E+02  0.16869422186E+02  0.26813671200E+02  0.47000000000E+01 0. -1.
        -11    1    4    4    0    0  0.44836671450E+02 -0.35785917753E+02  0.38607814373E+03  0.39031691237E+03  0.00000000000E+00 0.  1.
         12    1    4    4    0    0  0.10406211940E+02 -0.13714689054E+02  0.96023386789E+03  0.96038818349E+03  0.00000000000E+00 0. -1.
         -5    1    5    5    0  502 -0.67741184706E+02  0.90588795866E+02  0.27727836280E+03  0.29950054845E+03  0.47000000000E+01 0.  1.
         11    1    6    6    0    0 -0.18540260532E+02 -0.51216893472E+02  0.11345633980E+03  0.12585409202E+03  0.00000000000E+00 0. -1.
        -12    1    6    6    0    0  0.14770376082E+02  0.22279905597E+02  0.79767988040E+02  0.84127820125E+02  0.00000000000E+00 0.  1.
</event>
<event>
12    1  0.9966151E-001  0.2420461E+03  0.7818608E-02  0.1120150E+00
         21   -1    0    0  501  502  0.00000000000E+00  0.00000000000E+00  0.55215022507E+02  0.55215022507E+02  0.00000000000E+00 0. -1.
         21   -1    0    0  502  503 -0.00000000000E+00 -0.00000000000E+00 -0.10621146050E+04  0.10621146050E+04  0.00000000000E+00 0. -1.
         -6    2    1    2    0  503  0.11229958214E+03  0.10647931091E+03 -0.60825188438E+03  0.65095392998E+03  0.17268938677E+03 0.  0.
        -24    2    3    3    0    0  0.10973274579E+03  0.22205876897E+02 -0.46016612101E+03  0.48048374595E+03  0.81101138894E+02 0.  0.
          6    2    1    2  501    0 -0.11229958214E+03 -0.10647931091E+03 -0.39864769812E+03  0.46637569753E+03  0.18611089230E+03 0.  0.
         24    2    5    5    0    0 -0.95010890004E+02 -0.14019830810E+03 -0.25671523853E+03  0.31939684623E+03  0.86191628775E+02 0.  0.
          5    1    5    5  501    0 -0.17288692136E+02  0.33718997187E+02 -0.14193245958E+03  0.14697885130E+03  0.47000000000E+01 0. -1.
        -13    1    6    6    0    0 -0.91203706697E+02 -0.66115539525E+02 -0.18249490811E+03  0.21446158670E+03  0.00000000000E+00 0.  1.
         14    1    6    6    0    0 -0.38071833066E+01 -0.74082768576E+02 -0.74220330421E+02  0.10493525953E+03  0.00000000000E+00 0. -1.
         -5    1    3    3    0  503  0.25668363506E+01  0.84273434017E+02 -0.14808576337E+03  0.17047018402E+03  0.47000000000E+01 0.  1.
         11    1    4    4    0    0  0.11264208321E+02  0.36912572749E+02 -0.12083388342E+03  0.12684734052E+03  0.00000000000E+00 0. -1.
        -12    1    4    4    0    0  0.98468537469E+02 -0.14706695851E+02 -0.33933223759E+03  0.35363640543E+03  0.00000000000E+00 0.  1.
</event>
<event>
12    1  0.9966151E-001  0.1764831E+03  0.7818608E-02  0.1174122E+00
         21   -1    0    0  503  502  0.00000000000E+00  0.00000000000E+00  0.16918697102E+03  0.16918697102E+03  0.00000000000E+00 0.  1.
         21   -1    0    0  501  503 -0.00000000000E+00 -0.00000000000E+00 -0.17746231503E+03  0.17746231503E+03  0.00000000000E+00 0.  1.
          6    2    1    2  501    0 -0.34395109286E+02  0.19244049285E+02 -0.32859263572E+02  0.17951610392E+03  0.17202599625E+03 0.  0.
         24    2    3    3    0    0  0.36022682761E+02 -0.18002494087E+02 -0.39865839109E+02  0.99408972333E+02  0.81677017488E+02 0.  0.
         -6    2    1    2    0  502  0.34395109286E+02 -0.19244049285E+02  0.24583919565E+02  0.16713318214E+03  0.16054835563E+03 0.  0.
        -24    2    5    5    0    0 -0.34910109075E+02 -0.33622000894E+02  0.23544904362E+02  0.96188778994E+02  0.79679131667E+02 0.  0.
          5    1    3    3  501    0 -0.70417792046E+02  0.37246543372E+02  0.70065755372E+01  0.80107131584E+02  0.47000000000E+01 0. -1.
        -11    1    4    4    0    0 -0.61536051060E+01 -0.41457304514E+02 -0.11625460225E+02  0.43493979800E+02  0.00000000000E+00 0.  1.
         12    1    4    4    0    0  0.42176287867E+02  0.23454810427E+02 -0.28240378885E+02  0.55914992533E+02  0.00000000000E+00 0. -1.
         -5    1    5    5    0  502  0.69305218361E+02  0.14377951609E+02  0.10390152031E+01  0.70944403142E+02  0.47000000000E+01 0.  1.
         13    1    6    6    0    0 -0.36983814801E+02  0.69274503944E+01 -0.14713154212E+02  0.40401349397E+02  0.00000000000E+00 0. -1.
        -14    1    6    6    0    0  0.20737057257E+01 -0.40549451289E+02  0.38258058574E+02  0.55787429597E+02  0.00000000000E+00 0.  1.
</event>
<event>
12    1  0.9966151E-001  0.3249859E+03  0.7818608E-02  0.1073681E+00
         21   -1    0    0  501  502  0.00000000000E+00  0.00000000000E+00  0.83154904995E+03  0.83154904995E+03  0.00000000000E+00 0. -1.
         21   -1    0    0  502  503 -0.00000000000E+00 -0.00000000000E+00 -0.16048930240E+03  0.16048930240E+03  0.00000000000E+00 0. -1.
         -6    2    1    2    0  503  0.18994767044E+03  0.19580844280E+03  0.56449469262E+03  0.65002669365E+03  0.17163735224E+03 0.  0.
        -24    2    3    3    0    0  0.14857640558E+03  0.19797337679E+03  0.54535310367E+03  0.60414904197E+03  0.79483652572E+02 0.  0.
          6    2    1    2  501    0 -0.18994767044E+03 -0.19580844280E+03  0.10656505493E+03  0.34201165870E+03  0.17662049704E+03 0.  0.
         24    2    5    5    0    0 -0.92078718869E+02 -0.88969685386E+02 -0.14582304355E+02  0.15308938783E+03  0.82641525153E+02 0.  0.
          5    1    5    5  501    0 -0.97868951575E+02 -0.10683875741E+03  0.12114735929E+03  0.18892227087E+03  0.47000000000E+01 0. -1.
        -11    1    6    6    0    0 -0.14339606692E+02 -0.10080500933E+02  0.29148359212E+02  0.34012757370E+02  0.00000000000E+00 0.  1.
         12    1    6    6    0    0 -0.77739112177E+02 -0.78889184454E+02 -0.43730663567E+02  0.11907663046E+03  0.00000000000E+00 0. -1.
         -5    1    3    3    0  503  0.41371264868E+02 -0.21649339880E+01  0.19141588954E+02  0.45877651679E+02  0.47000000000E+01 0.  1.
         11    1    4    4    0    0  0.21402861471E+02  0.71615478407E+02  0.22439996525E+03  0.23652104268E+03  0.00000000000E+00 0. -1.
        -12    1    4    4    0    0  0.12717354410E+03  0.12635789838E+03  0.32095313842E+03  0.36762799929E+03  0.00000000000E+00 0.  1.
</event>
<event>
12    1  0.9966151E-001  0.1796230E+03  0.7818608E-02  0.1168315E+00
         21   -1    0    0  501  502  0.00000000000E+00  0.00000000000E+00  0.11329294292E+04  0.11329294292E+04  0.00000000000E+00 0. -1.
         21   -1    0    0  502  503 -0.00000000000E+00 -0.00000000000E+00 -0.34494751863E+02  0.34494751863E+02  0.00000000000E+00 0. -1.
         -6    2    1    2    0  503 -0.37474386022E+02  0.33350910358E+02  0.30275487637E+03  0.35172155485E+03  0.17184564047E+03 0.  0.
        -24    2    3    3    0    0 -0.67271498825E+02  0.28892973999E+02  0.10258737639E+03  0.14924474339E+03  0.79934755493E+02 0.  0.
          6    2    1    2  501    0  0.37474386022E+02 -0.33350910358E+02  0.79567980100E+03  0.81570262624E+03  0.17247555165E+03 0.  0.
         24    2    5    5    0    0 -0.26574718113E+02 -0.64948267911E+02  0.55518383521E+03  0.56478216015E+03  0.76323681766E+02 0.  0.
          5    1    5    5  501    0  0.64049104135E+02  0.31597357553E+02  0.24049596579E+03  0.25092046609E+03  0.47000000000E+01 0. -1.
        -11    1    6    6    0    0 -0.41386740766E+02 -0.47275932339E+01  0.22689812332E+03  0.23069020529E+03  0.00000000000E+00 0.  1.
         12    1    6    6    0    0  0.14812022653E+02 -0.60220674677E+02  0.32828571189E+03  0.33409195486E+03  0.00000000000E+00 0. -1.
         -5    1    3    3    0  503  0.29797112803E+02  0.44579363594E+01  0.20016749998E+03  0.20247681145E+03  0.47000000000E+01 0.  1.
         13    1    4    4    0    0 -0.52326056314E+02 -0.11350092854E+02  0.89627055558E+02  0.10440234607E+03  0.00000000000E+00 0. -1.
        -14    1    4    4    0    0 -0.14945442511E+02  0.40243066854E+02  0.12960320831E+02  0.44842397323E+02  0.00000000000E+00 0.  1.
</event>
<event>
12    1  0.9966151E-001  0.3766326E+03  0.7818608E-02  0.1052202E+00
         21   -1    0    0  501  502  0.00000000000E+00  0.00000000000E+00  0.93355386747E+03  0.93355386747E+03  0.00000000000E+00 0.  1.
         21   -1    0    0  502  503 -0.00000000000E+00 -0.00000000000E+00 -0.25217045554E+03  0.25217045554E+03  0.00000000000E+00 0.  1.
         -6    2    1    2    0  503 -0.29228488240E+03 -0.16267838590E+03  0.71453228884E+03  0.80763577639E+03  0.17269755581E+03 0.  0.
        -24    2    3    3    0    0 -0.12832837273E+03 -0.23993059443E+02  0.22332244152E+03  0.27151586355E+03  0.82487048208E+02 0.  0.
          6    2    1    2  501    0  0.29228488240E+03  0.16267838590E+03 -0.33148876914E+02  0.37808854662E+03  0.17308203640E+03 0.  0.
         24    2    5    5    0    0  0.22259727617E+03  0.13144940495E+03 -0.89360690319E+02  0.28314925191E+03  0.73209783932E+02 0.  0.
          5    1    5    5  501    0  0.69687606224E+02  0.31228980951E+02  0.56211813405E+02  0.94939294703E+02  0.47000000000E+01 0. -1.
        -13    1    6    6    0    0  0.98370591610E+02  0.40242020868E+02 -0.71292950210E+02  0.12797999174E+03  0.00000000000E+00 0.  1.
         14    1    6    6    0    0  0.12422668456E+03  0.91207384083E+02 -0.18067740109E+02  0.15516926017E+03  0.00000000000E+00 0. -1.
         -5    1    3    3    0  503 -0.16395650967E+03 -0.13868532646E+03  0.49120984732E+03  0.53611991284E+03  0.47000000000E+01 0.  1.
         13    1    4    4    0    0 -0.84091927381E+02 -0.11198101943E+02  0.20517082563E+03  0.22201783132E+03  0.00000000000E+00 0. -1.
        -14    1    4    4    0    0 -0.44236445347E+02 -0.12794957499E+02  0.18151615896E+02  0.49498032223E+02  0.00000000000E+00 0.  1.
</event>
<event>
12    1  0.9966151E-001  0.1717998E+03  0.7818608E-02  0.1176071E+00
         21   -1    0    0  501  502  0.00000000000E+00  0.00000000000E+00  0.12815816608E+02  0.12815816608E+02  0.00000000000E+00 0.  1.
         21   -1    0    0  502  503 -0.00000000000E+00 -0.00000000000E+00 -0.23414304370E+04  0.23414304370E+04  0.00000000000E+00 0.  1.
         -6    2    1    2    0  503 -0.46106188495E+01  0.74786724562E+01 -0.13248277859E+04  0.13359205880E+04  0.17157495949E+03 0.  0.
        -24    2    3    3    0    0  0.16912804646E+02  0.63913921146E+02 -0.10211026279E+04  0.10262122467E+04  0.78038236058E+02 0.  0.
          6    2    1    2  501    0  0.46106188495E+01 -0.74786724562E+01 -0.10037868344E+04  0.10183256656E+04  0.17123657275E+03 0.  0.
         24    2    5    5    0    0 -0.36308468892E+02 -0.57333987033E+02 -0.69119887829E+03  0.69911845316E+03  0.80032688448E+02 0.  0.
          5    1    5    5  501    0  0.40919087742E+02  0.49855314576E+02 -0.31258795614E+03  0.31920721241E+03  0.47000000000E+01 0. -1.
        -13    1    6    6    0    0  0.10447159603E+02 -0.54669337889E+02 -0.44870247563E+03  0.45214133995E+03  0.00000000000E+00 0.  1.
         14    1    6    6    0    0 -0.46755628495E+02 -0.26646491442E+01 -0.24249640266E+03  0.24697711322E+03  0.00000000000E+00 0. -1.
         -5    1    3    3    0  503 -0.21523423495E+02 -0.56435248690E+02 -0.30372515805E+03  0.30970834132E+03  0.47000000000E+01 0.  1.
         13    1    4    4    0    0  0.15401921108E+02 -0.15785134845E+02 -0.18184311999E+03  0.18317562595E+03  0.00000000000E+00 0. -1.
        -14    1    4    4    0    0  0.15108835381E+01  0.79699055990E+02 -0.83925950791E+03  0.84303662074E+03  0.00000000000E+00 0.  1.
</event>
<event>
12    1  0.9966151E-001  0.2472419E+03  0.7818608E-02  0.1115181E+00
         21   -1    0    0  501  502  0.00000000000E+00  0.00000000000E+00  0.47502103714E+02  0.47502103714E+02  0.00000000000E+00 0. -1.
         21   -1    0    0  502  503 -0.00000000000E+00 -0.00000000000E+00 -0.13243766960E+04  0.13243766960E+04  0.00000000000E+00 0. -1.
         -6    2    1    2    0  503  0.17524726663E+03 -0.30899164276E+02 -0.51619505331E+03  0.57202761374E+03  0.17056346327E+03 0.  0.
        -24    2    3    3    0    0  0.13849675818E+03  0.36365651835E+02 -0.29656113706E+03  0.33935552146E+03  0.81913669619E+02 0.  0.
          6    2    1    2  501    0 -0.17524726663E+03  0.30899164276E+02 -0.76067953901E+03  0.79985118601E+03  0.17164555303E+03 0.  0.
         24    2    5    5    0    0 -0.12799497790E+03 -0.41171735557E+02 -0.52367295846E+03  0.54761874833E+03  0.87035049977E+02 0.  0.
          5    1    5    5  501    0 -0.47252288734E+02  0.72070899833E+02 -0.23700658055E+03  0.25223243768E+03  0.47000000000E+01 0. -1.
        -11    1    6    6    0    0 -0.16550926681E+02  0.16410977101E+02 -0.28568010910E+02  0.36869833072E+02  0.00000000000E+00 0.  1.
         12    1    6    6    0    0 -0.11144405122E+03 -0.57582712658E+02 -0.49510494755E+03  0.51074891525E+03  0.00000000000E+00 0. -1.
         -5    1    3    3    0  503  0.36750508449E+02 -0.67264816111E+02 -0.21963391625E+03  0.23267209228E+03  0.47000000000E+01 0.  1.
         13    1    4    4    0    0  0.33190675490E+02 -0.21460866413E+02 -0.40917254198E+02  0.56889466668E+02  0.00000000000E+00 0. -1.
        -14    1    4    4    0    0  0.10530608270E+03  0.57826518248E+02 -0.25564388287E+03  0.28246605480E+03  0.00000000000E+00 0.  1.
</event>
<event>
12    1  0.9966151E-001  0.3160461E+03  0.7818608E-02  0.1077656E+00
         21   -1    0    0  503  502  0.00000000000E+00  0.00000000000E+00  0.51504493079E+03  0.51504493079E+03  0.00000000000E+00 0. -1.
         21   -1    0    0  501  503 -0.00000000000E+00 -0.00000000000E+00 -0.20676261061E+03  0.20676261061E+03  0.00000000000E+00 0. -1.
          6    2    1    2  501    0 -0.10064479156E+03  0.24360227897E+03  0.24747241679E+03  0.40140719625E+03  0.17439522855E+03 0.  0.
         24    2    3    3    0    0 -0.12572296295E+03  0.16958986557E+03  0.13216079378E+03  0.26203140058E+03  0.81406348394E+02 0.  0.
         -6    2    1    2    0  502  0.10064479156E+03 -0.24360227897E+03  0.60809903394E+02  0.32040034515E+03  0.17171806088E+03 0.  0.
        -24    2    5    5    0    0  0.91465429710E+02 -0.14267734678E+03  0.10090752648E+03  0.21131316900E+03  0.75816728875E+02 0.  0.
          5    1    3    3  501    0  0.25078171387E+02  0.74012413400E+02  0.11531162301E+03  0.13937579567E+03  0.47000000000E+01 0. -1.
        -11    1    4    4    0    0 -0.11104731512E+03  0.13917064610E+03  0.14100586658E+03  0.22711809559E+03  0.00000000000E+00 0.  1.
         12    1    4    4    0    0 -0.14675647829E+02  0.30419219469E+02 -0.88450728073E+01  0.34913304989E+02  0.00000000000E+00 0. -1.
         -5    1    5    5    0  502  0.91793618546E+01 -0.10092493219E+03 -0.40097623091E+02  0.10908717615E+03  0.47000000000E+01 0.  1.
         11    1    6    6    0    0  0.82562583965E+02 -0.82182787743E+02  0.35514706706E+02  0.12178622773E+03  0.00000000000E+00 0. -1.
        -12    1    6    6    0    0  0.89028457449E+01 -0.60494559038E+02  0.65392819779E+02  0.89526941276E+02  0.00000000000E+00 0.  1.
</event>
<event>
12    1  0.9966151E-001  0.4268866E+03  0.7818608E-02  0.1034900E+00
         21   -1    0    0  503  502  0.00000000000E+00  0.00000000000E+00  0.50927820417E+03  0.50927820417E+03  0.00000000000E+00 0. -1.
         21   -1    0    0  501  503 -0.00000000000E+00 -0.00000000000E+00 -0.63453377327E+03  0.63453377327E+03  0.00000000000E+00 0. -1.
          6    2    1    2  501    0  0.25733045533E+03  0.29346269621E+03  0.31543758918E+03  0.53026276068E+03  0.17128457430E+03 0.  0.
         24    2    3    3    0    0  0.14407882405E+03  0.16925583488E+03  0.98305797328E+02  0.25563286169E+03  0.79233105497E+02 0.  0.
         -6    2    1    2    0  502 -0.25733045533E+03 -0.29346269621E+03 -0.44069315828E+03  0.61354921675E+03  0.17289553006E+03 0.  0.
        -24    2    5    5    0    0 -0.85345562519E+02 -0.73727298597E+02 -0.20901431369E+03  0.25083772624E+03  0.80703172040E+02 0.  0.
          5    1    3    3  501    0  0.11325163128E+03  0.12420686133E+03  0.21713179185E+03  0.27462989900E+03  0.47000000000E+01 0. -1.
        -13    1    4    4    0    0  0.37151747755E+02  0.83361300837E+02  0.71372137353E+02  0.11585914219E+03  0.00000000000E+00 0.  1.
         14    1    4    4    0    0  0.10692707629E+03  0.85894534041E+02  0.26933659975E+02  0.13977371950E+03  0.00000000000E+00 0. -1.
         -5    1    5    5    0  502 -0.17198489281E+03 -0.21973539761E+03 -0.23167884459E+03  0.36271149051E+03  0.47000000000E+01 0.  1.
         13    1    6    6    0    0 -0.78354709171E+02 -0.43564076455E+02 -0.19905588992E+03  0.21831293255E+03  0.00000000000E+00 0. -1.
        -14    1    6    6    0    0 -0.69908533482E+01 -0.30163222142E+02 -0.99584237694E+01  0.32524793689E+02  0.00000000000E+00 0.  1.
</event>
<event>
12    1  0.9966151E-001  0.1984430E+03  0.7818608E-02  0.1151181E+00
         21   -1    0    0  501  502  0.00000000000E+00  0.00000000000E+00  0.92242340536E+02  0.92242340536E+02  0.00000000000E+00 0. -1.
         21   -1    0    0  502  503 -0.00000000000E+00 -0.00000000000E+00 -0.44446989087E+03  0.44446989087E+03  0.00000000000E+00 0. -1.
         -6    2    1    2    0  503 -0.97830579753E+02  0.62306382700E+01 -0.23103747508E+03  0.30418988187E+03  0.17188230319E+03 0.  0.
        -24    2    3    3    0    0 -0.10423763056E+03  0.59643929853E+01 -0.25049143614E+03  0.28317398818E+03  0.80873298428E+02 0.  0.
          6    2    1    2  501    0  0.97830579753E+02 -0.62306382700E+01 -0.12119007526E+03  0.23252234955E+03  0.17253975052E+03 0.  0.
         24    2    5    5    0    0  0.12231562450E+02  0.44245351102E+02 -0.88554395833E+02  0.12782184889E+03  0.79932983291E+02 0.  0.
          5    1    5    5  501    0  0.85599017303E+02 -0.50475989372E+02 -0.32635679423E+02  0.10470050066E+03  0.47000000000E+01 0. -1.
        -11    1    6    6    0    0  0.22368694093E+02 -0.15466812669E+02 -0.10798289259E+02  0.29260618936E+02  0.00000000000E+00 0.  1.
         12    1    6    6    0    0 -0.10137131643E+02  0.59712163771E+02 -0.77756106575E+02  0.98561229953E+02  0.00000000000E+00 0. -1.
         -5    1    3    3    0  503  0.64070508044E+01  0.26624528473E+00  0.19453961054E+02  0.21015893682E+02  0.47000000000E+01 0.  1.
         13    1    4    4    0    0  0.42794059730E+01 -0.10007575045E+02 -0.78041347710E+02  0.78796680299E+02  0.00000000000E+00 0. -1.
        -14    1    4    4    0    0 -0.10851703653E+03  0.15971968030E+02 -0.17245008842E+03  0.20437730788E+03  0.00000000000E+00 0.  1.
</event>
<event>
12    1  0.9966151E-001  0.3258193E+03  0.7818608E-02  0.1073016E+00
         21   -1    0    0  503  502  0.00000000000E+00  0.00000000000E+00  0.11018650974E+04  0.11018650974E+04  0.00000000000E+00 0.  1.
         21   -1    0    0  501  503 -0.00000000000E+00 -0.00000000000E+00 -0.45953216852E+03  0.45953216852E+03  0.00000000000E+00 0.  1.
          6    2    1    2  501    0 -0.47598330557E+02 -0.27262876833E+03  0.10152652926E+04  0.10662653680E+04  0.17194817295E+03 0.  0.
         24    2    3    3    0    0 -0.96041583002E+02 -0.22935196854E+03  0.79294910324E+03  0.83460568620E+03  0.77279104314E+02 0.  0.
         -6    2    1    2    0  502  0.47598330557E+02  0.27262876833E+03 -0.37293236374E+03  0.49513189792E+03  0.17171197402E+03 0.  0.
        -24    2    5    5    0    0 -0.17174686305E+02  0.23113938763E+03 -0.31261228372E+03  0.39726712143E+03  0.79839460621E+02 0.  0.
          5    1    3    3  501    0  0.48443252445E+02 -0.43276799787E+02  0.22231618940E+03  0.23165968181E+03  0.47000000000E+01 0. -1.
        -11    1    4    4    0    0 -0.19081400957E+01 -0.11068827119E+02  0.64172198796E+01  0.12936021158E+02  0.00000000000E+00 0.  1.
         12    1    4    4    0    0 -0.94133442907E+02 -0.21828314142E+03  0.78653188336E+03  0.82166966504E+03  0.00000000000E+00 0. -1.
         -5    1    5    5    0  502  0.64773016862E+02  0.41489380700E+02 -0.60320080021E+02  0.97864776493E+02  0.47000000000E+01 0.  1.
         11    1    6    6    0    0  0.86290848740E+00  0.29201939244E+02 -0.62184727535E+01  0.29869169223E+02  0.00000000000E+00 0. -1.
        -12    1    6    6    0    0 -0.18037594793E+02  0.20193744838E+03 -0.30639381097E+03  0.36739795221E+03  0.00000000000E+00 0.  1.
</event>
<event>
12    1  0.9966151E-001  0.1785403E+03  0.7818608E-02  0.1170186E+00
         21   -1    0    0  503  502  0.00000000000E+00  0.00000000000E+00  0.96472705886E+02  0.96472705886E+02  0.00000000000E+00 0. -1.
         21   -1    0    0  501  503 -0.00000000000E+00 -0.00000000000E+00 -0.40522186847E+03  0.40522186847E+03  0.00000000000E+00 0. -1.
          6    2    1    2  501    0 -0.19131559806E+02 -0.59727721205E+01 -0.26853845820E+03  0.32247408060E+03  0.17741177677E+03 0.  0.
         24    2    3    3    0    0 -0.65813305746E+02  0.15012718313E+02 -0.94131345447E+02  0.14065134497E+03  0.79782941290E+02 0.  0.
         -6    2    1    2    0  502  0.19131559806E+02  0.59727721205E+01 -0.40210704378E+02  0.17922049376E+03  0.17349753326E+03 0.  0.
        -24    2    5    5    0    0 -0.15108381815E+02  0.29082765237E+02  0.34385644435E+02  0.93820548554E+02  0.80906441974E+02 0.  0.
          5    1    3    3  501    0  0.46681745940E+02 -0.20985490434E+02 -0.17440711275E+03  0.18182273563E+03  0.47000000000E+01 0. -1.
        -11    1    4    4    0    0 -0.45782875316E+02 -0.10394898753E+02 -0.97408489038E+02  0.10813204580E+03  0.00000000000E+00 0.  1.
         12    1    4    4    0    0 -0.20030430431E+02  0.25407617066E+02  0.32771435906E+01  0.32519299167E+02  0.00000000000E+00 0. -1.
         -5    1    5    5    0  502  0.34239941621E+02 -0.23109993117E+02 -0.74596348813E+02  0.85399945201E+02  0.47000000000E+01 0.  1.
         11    1    6    6    0    0  0.18018802440E+02  0.16465735777E+02  0.49572305392E+02  0.55255869896E+02  0.00000000000E+00 0. -1.
        -12    1    6    6    0    0 -0.33127184254E+02  0.12617029460E+02 -0.15186660957E+02  0.38564678659E+02  0.00000000000E+00 0.  1.
</event>
<event>
12    1  0.9966151E-001  0.1930632E+03  0.7818608E-02  0.1156845E+00
         21   -1    0    0  503  502  0.00000000000E+00  0.00000000000E+00  0.62329758699E+02  0.62329758699E+02  0.00000000000E+00 0.  1.
         21   -1    0    0  501  503 -0.00000000000E+00 -0.00000000000E+00 -0.75636905976E+03  0.75636905976E+03  0.00000000000E+00 0.  1.
          6    2    1    2  501    0  0.53926177919E+02 -0.51557927146E+02 -0.14735311166E+03  0.23892368499E+03  0.17264221736E+03 0.  0.
         24    2    3    3    0    0  0.61591345299E+02  0.26823921271E+02 -0.99066517653E+02  0.14642420330E+03  0.84337748512E+02 0.  0.
         -6    2    1    2    0  502 -0.53926177919E+02  0.51557927146E+02 -0.54668618940E+03  0.57977513347E+03  0.17806505326E+03 0.  0.
        -24    2    5    5    0    0 -0.38446694969E+02  0.81542805907E+02 -0.52666707290E+03  0.54025852465E+03  0.79835394634E+02 0.  0.
          5    1    3    3  501    0 -0.76651673797E+01 -0.78381848417E+02 -0.48286594011E+02  0.92499481693E+02  0.47000000000E+01 0. -1.
        -13    1    4    4    0    0  0.35711040738E+02  0.51603468614E+02 -0.89552981744E+02  0.10935233396E+03  0.00000000000E+00 0.  1.
         14    1    4    4    0    0  0.25880304561E+02 -0.24779547343E+02 -0.95135359084E+01  0.37071869338E+02  0.00000000000E+00 0. -1.
         -5    1    5    5    0  502 -0.15479482950E+02 -0.29984878761E+02 -0.20019116500E+02  0.39516608814E+02  0.47000000000E+01 0.  1.
         11    1    6    6    0    0 -0.89710518947E+01  0.88068603874E+02 -0.42873662034E+03  0.43778036546E+03  0.00000000000E+00 0. -1.
        -12    1    6    6    0    0 -0.29475643074E+02 -0.65257979669E+01 -0.97930452559E+02  0.10247815920E+03  0.00000000000E+00 0.  1.
</event>
<event>
12    1  0.9966151E-001  0.1954393E+03  0.7818608E-02  0.1153733E+00
         21   -1    0    0  501  502  0.00000000000E+00  0.00000000000E+00  0.43846315412E+02  0.43846315412E+02  0.00000000000E+00 0.  1.
         21   -1    0    0  502  503 -0.00000000000E+00 -0.00000000000E+00 -0.16146871026E+04  0.16146871026E+04  0.00000000000E+00 0.  1.
         -6    2    1    2    0  503 -0.57298907043E+02  0.75676304513E+02 -0.13483963629E+04  0.13624286638E+04  0.17037912026E+03 0.  0.
        -24    2    3    3    0    0 -0.27761935300E+01  0.95998729816E+02 -0.67579904473E+03  0.68730277207E+03  0.80357253953E+02 0.  0.
          6    2    1    2  501    0  0.57298907043E+02 -0.75676304513E+02 -0.22244442425E+03  0.29610475418E+03  0.17084038093E+03 0.  0.
         24    2    5    5    0    0  0.94508165965E+02 -0.91157892170E+02 -0.16774824521E+03  0.22800210734E+03  0.81264582937E+02 0.  0.
          5    1    5    5  501    0 -0.37209258922E+02  0.15481587657E+02 -0.54696179034E+02  0.68102646841E+02  0.47000000000E+01 0. -1.
        -11    1    6    6    0    0  0.99322953541E+02 -0.46898090658E+02 -0.11644661355E+03  0.16007590017E+03  0.00000000000E+00 0.  1.
         12    1    6    6    0    0 -0.48147875759E+01 -0.44259801512E+02 -0.51301631657E+02  0.67926207166E+02  0.00000000000E+00 0. -1.
         -5    1    3    3    0  503 -0.54522713513E+02 -0.20322425303E+02 -0.67259731819E+03  0.67512589174E+03  0.47000000000E+01 0.  1.
         11    1    4    4    0    0 -0.30075639341E+02  0.68821739438E+02 -0.56560420689E+03  0.57056909726E+03  0.00000000000E+00 0. -1.
        -12    1    4    4    0    0  0.27299445811E+02  0.27176990378E+02 -0.11019483785E+03  0.11673367481E+03  0.00000000000E+00 0.  1.
</event>
<event>
12    1  0.9966151E-001  0.2263656E+03  0.7818608E-02  0.1130241E+00
         21   -1    0    0  501  502  0.00000000000E+00  0.00000000000E+00  0.38959944670E+03  0.38959944670E+03  0.00000000000E+00 0. -1.
         21   -1    0    0  502  503 -0.00000000000E+00 -0.00000000000E+00 -0.13717824050E+03  0.13717824050E+03  0.00000000000E+00 0. -1.
         -6    2    1    2    0  503 -0.13466779089E+03 -0.47129807843E+02  0.60673236195E+02  0.23435578368E+03  0.17574060164E+03 0.  0.
        -24    2    3    3    0    0 -0.91745399437E+02 -0.97906449374E+02  0.20739491593E+02  0.15665512107E+03  0.78152474680E+02 0.  0.
          6    2    1    2  501    0  0.13466779089E+03  0.47129807843E+02  0.19174797001E+03  0.29242190352E+03  0.16848339076E+03 0.  0.
         24    2    5    5    0    0  0.66602701532E+02  0.89094257152E+02  0.92406170599E+02  0.16481017010E+03  0.79055583579E+02 0.  0.
          5    1    5    5  501    0  0.68065089354E+02 -0.41964449309E+02  0.99341799413E+02  0.12761173342E+03  0.47000000000E+01 0. -1.
        -13    1    6    6    0    0  0.80676210763E+02  0.66811353993E+02  0.90425822494E+02  0.13838076954E+03  0.00000000000E+00 0.  1.
         14    1    6    6    0    0 -0.14073509231E+02  0.22282903159E+02  0.19803481051E+01  0.26429400558E+02  0.00000000000E+00 0. -1.
         -5    1    3    3    0  503 -0.42922391449E+02  0.50776641531E+02  0.39933744601E+02  0.77700662614E+02  0.47000000000E+01 0.  1.
         13    1    4    4    0    0 -0.55492818988E+02 -0.41957918305E+02  0.48114248384E+02  0.84586646495E+02  0.00000000000E+00 0. -1.
        -14    1    4    4    0    0 -0.36252580450E+02 -0.55948531069E+02 -0.27374756791E+02  0.72068474574E+02  0.00000000000E+00 0.  1.
</event>
<event>
12    1  0.9966151E-001  0.1988221E+03  0.7818608E-02  0.1153583E+00
         21   -1    0    0  501  502  0.00000000000E+00  0.00000000000E+00  0.87456090012E+02  0.87456090012E+02  0.00000000000E+00 0.  1.
         21   -1    0    0  502  503 -0.00000000000E+00 -0.00000000000E+00 -0.48049096217E+03  0.48049096217E+03  0.00000000000E+00 0.  1.
         -6    2    1    2    0  503  0.16295513376E+02  0.74961422949E+02 -0.28879243193E+03  0.34345493315E+03  0.16933831130E+03 0.  0.
        -24    2    3    3    0    0 -0.38598344938E+02  0.20283025825E+02 -0.22525189005E+03  0.24314265446E+03  0.80490391213E+02 0.  0.
          6    2    1    2  501    0 -0.16295513376E+02 -0.74961422949E+02 -0.10424244022E+03  0.22449211903E+03  0.18342700586E+03 0.  0.
         24    2    5    5    0    0  0.21433579841E+02  0.24869362478E+02 -0.71726040749E+02  0.11282710021E+03  0.80668742928E+02 0.  0.
          5    1    5    5  501    0 -0.37729093217E+02 -0.99830785427E+02 -0.32516399474E+02  0.11166501882E+03  0.47000000000E+01 0. -1.
        -13    1    6    6    0    0  0.61758279913E+01 -0.39580291291E+01  0.16881995680E+02  0.18406754850E+02  0.00000000000E+00 0.  1.
         14    1    6    6    0    0  0.15257751849E+02  0.28827391607E+02 -0.88608036428E+02  0.94420345361E+02  0.00000000000E+00 0. -1.
         -5    1    3    3    0  503  0.54893858314E+02  0.54678397124E+02 -0.63540541882E+02  0.10031227869E+03  0.47000000000E+01 0.  1.
         13    1    4    4    0    0  0.45362074739E+01  0.83804384416E+01 -0.17729934214E+03  0.17755524676E+03  0.00000000000E+00 0. -1.
        -14    1    4    4    0    0 -0.43134552412E+02  0.11902587383E+02 -0.47952547906E+02  0.65587407701E+02  0.00000000000E+00 0.  1.
</event>
<event>
12    1  0.9966151E-001  0.2496437E+03  0.7818608E-02  0.1113804E+00
         21   -1    0    0  503  502  0.00000000000E+00  0.00000000000E+00  0.61407363008E+02  0.61407363008E+02  0.00000000000E+00 0. -1.
         21   -1    0    0  501  503 -0.00000000000E+00 -0.00000000000E+00 -0.11788579774E+04  0.11788579774E+04  0.00000000000E+00 0. -1.
          6    2    1    2  501    0 -0.11626659029E+03 -0.13707209671E+03 -0.32422566384E+03  0.40919952785E+03  0.17324922160E+03 0.  0.
         24    2    3    3    0    0  0.51464974337E+01 -0.29029716635E+02 -0.13585693233E+03  0.16036391389E+03  0.79939151439E+02 0.  0.
         -6    2    1    2    0  502  0.11626659029E+03  0.13707209671E+03 -0.79322495055E+03  0.83106581256E+03  0.17075679463E+03 0.  0.
        -24    2    5    5    0    0  0.47610319025E+01  0.73085945799E+02 -0.24406794045E+03  0.26704167407E+03  0.79861587976E+02 0.  0.
          5    1    3    3  501    0 -0.12141308772E+03 -0.10804238007E+03 -0.18836873151E+03  0.24883561396E+03  0.47000000000E+01 0. -1.
        -11    1    4    4    0    0  0.17533948473E+02 -0.51943780864E+02 -0.65947225428E+02  0.85759152638E+02  0.00000000000E+00 0.  1.
         12    1    4    4    0    0 -0.12387451040E+02  0.22914064228E+02 -0.69909706899E+02  0.74604761251E+02  0.00000000000E+00 0. -1.
         -5    1    5    5    0  502  0.11150555839E+03  0.63986150911E+02 -0.54915701010E+03  0.56402413849E+03  0.47000000000E+01 0.  1.
         11    1    6    6    0    0  0.23788193986E+02  0.16210513553E+02 -0.16661514736E+03  0.16908360728E+03  0.00000000000E+00 0. -1.
        -12    1    6    6    0    0 -0.19027162083E+02  0.56875432246E+02 -0.77452793096E+02  0.97958066786E+02  0.00000000000E+00 0.  1.
</event>
<event>
12    1  0.9966151E-001  0.2771076E+03  0.7818608E-02  0.1097317E+00
         21   -1    0    0  501  502  0.00000000000E+00  0.00000000000E+00  0.14787804036E+03  0.14787804036E+03  0.00000000000E+00 0.  1.
         21   -1    0    0  502  503 -0.00000000000E+00 -0.00000000000E+00 -0.67069768896E+03  0.67069768896E+03  0.00000000000E+00 0.  1.
         -6    2    1    2    0  503  0.21674513621E+03  0.19562343852E+02 -0.66704000426E+02  0.28502286694E+03  0.17154437221E+03 0.  0.
        -24    2    3    3    0    0  0.97694256972E+02 -0.12305907256E+02  0.27348320322E+02  0.12992088012E+03  0.80224069136E+02 0.  0.
          6    2    1    2  501    0 -0.21674513621E+03 -0.19562343852E+02 -0.45611564817E+03  0.53355286237E+03  0.17110240522E+03 0.  0.
         24    2    5    5    0    0 -0.18064354295E+03 -0.61762077041E+02 -0.27503346130E+03  0.34408784998E+03  0.79412844704E+02 0.  0.
          5    1    5    5  501    0 -0.36101593265E+02  0.42199733189E+02 -0.18108218687E+03  0.18946501239E+03  0.47000000000E+01 0. -1.
        -11    1    6    6    0    0  0.56981312988E+00 -0.20947463405E+02 -0.25441349284E+02  0.32960327115E+02  0.00000000000E+00 0.  1.
         12    1    6    6    0    0 -0.18121335608E+03 -0.40814613636E+02 -0.24959211201E+03  0.31112752287E+03  0.00000000000E+00 0. -1.
         -5    1    3    3    0  503  0.11905087924E+03  0.31868251108E+02 -0.94052320748E+02  0.15510198682E+03  0.47000000000E+01 0.  1.
         13    1    4    4    0    0  0.10578611316E+03  0.45852441896E+01  0.13747524286E+02  0.10677415710E+03  0.00000000000E+00 0. -1.
        -14    1    4    4    0    0 -0.80918561860E+01 -0.16891151445E+02  0.13600796036E+02  0.23146723019E+02  0.00000000000E+00 0.  1.
</event>
<event>
12    1  0.9966151E-001  0.2008442E+03  0.7818608E-02  0.1149132E+00
         21   -1    0    0  503  502  0.00000000000E+00  0.00000000000E+00  0.52525605134E+02  0.52525605134E+02  0.00000000000E+00 0.  1.
         21   -1    0    0  501  503 -0.00000000000E+00 -0.00000000000E+00 -0.79851506567E+03  0.79851506567E+03  0.00000000000E+00 0.  1.
          6    2    1    2  501    0  0.30547785086E+02  0.99610087780E+02 -0.28680486592E+03  0.34985318493E+03  0.17112826515E+03 0.  0.
         24    2    3    3    0    0 -0.11641293706E+02  0.52083067975E+02 -0.26610806265E+03  0.28285181445E+03  0.79645980712E+02 0.  0.
         -6    2    1    2    0  502 -0.30547785086E+02 -0.99610087780E+02 -0.45918459462E+03  0.50118748587E+03  0.17170634029E+03 0.  0.
        -24    2    5    5    0    0 -0.50952459794E+02 -0.10536837376E+03 -0.45843330608E+03  0.47945817291E+03  0.77591211488E+02 0.  0.
          5    1    3    3  501    0  0.42189078793E+02  0.47527019805E+02 -0.20696803267E+02  0.67001370481E+02  0.47000000000E+01 0. -1.
        -13    1    4    4    0    0  0.31566957947E+02  0.38730976187E+02 -0.15642089186E+03  0.16420735903E+03  0.00000000000E+00 0.  1.
         14    1    4    4    0    0 -0.43208251654E+02  0.13352091789E+02 -0.10968717079E+03  0.11864445542E+03  0.00000000000E+00 0. -1.
         -5    1    5    5    0  502  0.20404674707E+02  0.57582859819E+01 -0.75128854527E+00  0.21729312963E+02  0.47000000000E+01 0.  1.
         11    1    6    6    0    0 -0.38018273237E+02 -0.73255275498E+02 -0.17022372117E+03  0.18917674206E+03  0.00000000000E+00 0. -1.
        -12    1    6    6    0    0 -0.12934186556E+02 -0.32113098264E+02 -0.28820958491E+03  0.29028143085E+03  0.00000000000E+00 0.  1.
</event>
<event>
12    1  0.9966151E-001  0.1823521E+03  0.7818608E-02  0.1166392E+00
         21   -1    0    0  501  502  0.00000000000E+00  0.00000000000E+00  0.12523210313E+03  0.12523210313E+03  0.00000000000E+00 0. -1.
         21   -1    0    0  502  503 -0.00000000000E+00 -0.00000000000E+00 -0.39765384770E+03  0.39765384770E+03  0.00000000000E+00 0. -1.
         -6    2    1    2    0  503  0.19425029567E+02  0.59406108615E+02  0.16499458424E+02  0.18309698977E+03  0.17130632802E+03 0.  0.
        -24    2    3    3    0    0  0.16157870285E+02  0.23003407146E+02 -0.56610141870E+02  0.10122553773E+03  0.79067488975E+02 0.  0.
          6    2    1    2  501    0 -0.19425029567E+02 -0.59406108615E+02 -0.28892120300E+03  0.33978896107E+03  0.16755494326E+03 0.  0.
         24    2    5    5    0    0 -0.16423403928E+01 -0.87954947957E+02 -0.15721923993E+03  0.20377882418E+03  0.95232082971E+02 0.  0.
          5    1    5    5  501    0 -0.17782689174E+02  0.28548839343E+02 -0.13170196307E+03  0.13601013689E+03  0.47000000000E+01 0. -1.
        -13    1    6    6    0    0 -0.35114029007E+02 -0.65925491683E+02 -0.51518385542E+02  0.90737586124E+02  0.00000000000E+00 0.  1.
         14    1    6    6    0    0  0.33471688614E+02 -0.22029456274E+02 -0.10570085439E+03  0.11304123805E+03  0.00000000000E+00 0. -1.
         -5    1    3    3    0  503  0.32671592816E+01  0.36402701469E+02  0.73109600294E+02  0.81871452040E+02  0.47000000000E+01 0.  1.
         11    1    4    4    0    0  0.45999457003E+02  0.27692306035E+02 -0.37187716463E+02  0.65312633647E+02  0.00000000000E+00 0. -1.
        -12    1    4    4    0    0 -0.29841586718E+02 -0.46888988895E+01 -0.19422425407E+02  0.35912904078E+02  0.00000000000E+00 0.  1.
</event>
<event>
12    1  0.9966151E-001  0.2952249E+03  0.7818608E-02  0.1088119E+00
         21   -1    0    0  501  502  0.00000000000E+00  0.00000000000E+00  0.10881559409E+03  0.10881559409E+03  0.00000000000E+00 0.  1.
         21   -1    0    0  502  503 -0.00000000000E+00 -0.00000000000E+00 -0.95491168438E+03  0.95491168438E+03  0.00000000000E+00 0.  1.
         -6    2    1    2    0  503 -0.18975984109E+03  0.14828275601E+03 -0.20495573494E+03  0.35939477279E+03  0.17076643815E+03 0.  0.
        -24    2    3    3    0    0 -0.48492613102E+02  0.10603710909E+03 -0.13748987204E+03  0.19717622562E+03  0.79872379498E+02 0.  0.
          6    2    1    2  501    0  0.18975984109E+03 -0.14828275601E+03 -0.64114035534E+03  0.70433250568E+03  0.16439814564E+03 0.  0.
         24    2    5    5    0    0  0.16779158352E+03 -0.53764275650E+02 -0.45411141122E+03  0.49357609793E+03  0.79721877859E+02 0.  0.
          5    1    5    5  501    0  0.21968257580E+02 -0.94518480364E+02 -0.18702894412E+03  0.21075640776E+03  0.47000000000E+01 0. -1.
        -11    1    6    6    0    0  0.52513340233E+02  0.16693514865E+01 -0.62751186511E+02  0.81842220433E+02  0.00000000000E+00 0.  1.
         12    1    6    6    0    0  0.11527824328E+03 -0.55433627136E+02 -0.39136022471E+03  0.41173387750E+03  0.00000000000E+00 0. -1.
         -5    1    3    3    0  503 -0.14126722799E+03  0.42245646928E+02 -0.67465862907E+02  0.16221854717E+03  0.47000000000E+01 0.  1.
         11    1    4    4    0    0 -0.68488801315E+02  0.90035200700E+02 -0.95753697503E+02  0.14820871721E+03  0.00000000000E+00 0. -1.
        -12    1    4    4    0    0  0.19996188213E+02  0.16001908385E+02 -0.41736174534E+02  0.48967508408E+02  0.00000000000E+00 0.  1.
</event>
<event>
12    1  0.9966151E-001  0.2684868E+03  0.7818608E-02  0.1102157E+00
         21   -1    0    0  503  502  0.00000000000E+00  0.00000000000E+00  0.67184838734E+03  0.67184838734E+03  0.00000000000E+00 0. -1.
         21   -1    0    0  501  503 -0.00000000000E+00 -0.00000000000E+00 -0.10727289220E+03  0.10727289220E+03  0.00000000000E+00 0. -1.
          6    2    1    2  501    0  0.92220240673E+02 -0.18406199850E+03  0.28377579813E+03  0.39061948723E+03  0.17225413818E+03 0.  0.
         24    2    3    3    0    0 -0.13348977533E+02 -0.90791471697E+02  0.92281072770E+02  0.15284528585E+03  0.80153593064E+02 0.  0.
         -6    2    1    2    0  502 -0.92220240673E+02  0.18406199850E+03  0.28079969701E+03  0.38850179230E+03  0.17234204565E+03 0.  0.
        -24    2    5    5    0    0 -0.83797391049E+02  0.11974061001E+03  0.91120973885E+02  0.18798173490E+03  0.75327845726E+02 0.  0.
          5    1    3    3  501    0  0.10556921821E+03 -0.93270526804E+02  0.19149472536E+03  0.23777420138E+03  0.47000000000E+01 0. -1.
        -11    1    4    4    0    0  0.33135069975E+02 -0.31135869548E+02  0.26600211831E+02  0.52677761002E+02  0.00000000000E+00 0.  1.
         12    1    4    4    0    0 -0.46484047508E+02 -0.59655602150E+02  0.65680860940E+02  0.10016752485E+03  0.00000000000E+00 0. -1.
         -5    1    5    5    0  502 -0.84228496238E+01  0.64321388488E+02  0.18967872313E+03  0.20052005740E+03  0.47000000000E+01 0.  1.
         13    1    6    6    0    0 -0.24353845413E+01  0.62348950582E+02  0.19645376428E+02  0.65416080222E+02  0.00000000000E+00 0. -1.
        -14    1    6    6    0    0 -0.81362006508E+02  0.57391659432E+02  0.71475597457E+02  0.12256565468E+03  0.00000000000E+00 0.  1.
</event>
<event>
12    1  0.9966151E-001  0.1815919E+03  0.7818608E-02  0.1168093E+00
         21   -1    0    0  503  502  0.00000000000E+00  0.00000000000E+00  0.90276859536E+02  0.90276859536E+02  0.00000000000E+00 0.  1.
         21   -1    0    0  501  503 -0.00000000000E+00 -0.00000000000E+00 -0.39617311626E+03  0.39617311626E+03  0.00000000000E+00 0.  1.
          6    2    1    2  501    0 -0.29872241017E+01 -0.57607062987E+02 -0.73165179526E+02  0.19577734621E+03  0.17218631938E+03 0.  0.
         24    2    3    3    0    0 -0.52695612423E+01 -0.97092417861E+02 -0.15670190393E+02  0.12583403997E+03  0.78319505025E+02 0.  0.
         -6    2    1    2    0  502  0.29872241017E+01  0.57607062987E+02 -0.23273107720E+03  0.29067262959E+03  0.16431471657E+03 0.  0.
        -24    2    5    5    0    0 -0.42244566920E+02  0.81754701608E+02 -0.13067469836E+03  0.17636332187E+03  0.74563461817E+02 0.  0.
          5    1    3    3  501    0  0.22823371405E+01  0.39485354874E+02 -0.57494989134E+02  0.69943306240E+02  0.47000000000E+01 0. -1.
        -11    1    4    4    0    0 -0.34621431916E+01 -0.55227955980E+01  0.24844713717E+02  0.25685550537E+02  0.00000000000E+00 0.  1.
         12    1    4    4    0    0 -0.18074180506E+01 -0.91569622263E+02 -0.40514904110E+02  0.10014848944E+03  0.00000000000E+00 0. -1.
         -5    1    5    5    0  502  0.45231791022E+02 -0.24147638621E+02 -0.10205637884E+03  0.11430930772E+03  0.47000000000E+01 0.  1.
         13    1    6    6    0    0 -0.40796179349E+02  0.27269394048E+02 -0.19989688106E+02  0.52986184349E+02  0.00000000000E+00 0. -1.
        -14    1    6    6    0    0 -0.14483875709E+01  0.54485307560E+02 -0.11068501026E+03  0.12337713752E+03  0.00000000000E+00 0.  1.
</event>
<event>
12    1  0.9966151E-001  0.6002557E+03  0.7818608E-02  0.9906215E-01
         21   -1    0    0  501  502  0.00000000000E+00  0.00000000000E+00  0.75413705451E+03  0.75413705451E+03  0.00000000000E+00 0. -1.
         21   -1    0    0  502  503 -0.00000000000E+00 -0.00000000000E+00 -0.50530142782E+03  0.50530142782E+03  0.00000000000E+00 0. -1.
         -6    2    1    2    0  503 -0.25498808854E+03  0.51419714125E+03  0.27651701334E+03  0.65854482949E+03  0.16673934272E+03 0.  0.
        -24    2    3    3    0    0 -0.13667824341E+03  0.22328486223E+03  0.68469471905E+02  0.28180480900E+03  0.78668989247E+02 0.  0.
          6    2    1    2  501    0  0.25498808854E+03 -0.51419714125E+03 -0.27681386650E+02  0.60089365284E+03  0.17575351343E+03 0.  0.
         24    2    5    5    0    0  0.61255880029E+02 -0.22328862740E+03 -0.53422565679E+02  0.25040166955E+03  0.78974246619E+02 0.  0.
          5    1    5    5  501    0  0.19373220851E+03 -0.29090851386E+03  0.25741179029E+02  0.35049198328E+03  0.47000000000E+01 0. -1.
        -13    1    6    6    0    0  0.26740671251E+02 -0.47529004414E+02  0.18206300180E+02  0.57493818153E+02  0.00000000000E+00 0.  1.
         14    1    6    6    0    0  0.34515208778E+02 -0.17575962298E+03 -0.71628865859E+02  0.19290785140E+03  0.00000000000E+00 0. -1.
         -5    1    3    3    0  503 -0.11830984513E+03  0.29091227902E+03  0.20804754144E+03  0.37674002049E+03  0.47000000000E+01 0.  1.
         11    1    4    4    0    0 -0.13688882216E+03  0.20376456924E+03  0.81132095244E+02  0.25853619899E+03  0.00000000000E+00 0. -1.
        -12    1    4    4    0    0  0.21057875084E+00  0.19520292994E+02 -0.12662623340E+02  0.23268610011E+02  0.00000000000E+00 0.  1.
</event>
<event>
12    1  0.9966151E-001  0.2143656E+03  0.7818608E-02  0.1138196E+00
         21   -1    0    0  503  502  0.00000000000E+00  0.00000000000E+00  0.95450980377E+03  0.95450980377E+03  0.00000000000E+00 0. -1.
         21   -1    0    0  501  503 -0.00000000000E+00 -0.00000000000E+00 -0.61375838347E+02  0.61375838347E+02  0.00000000000E+00 0. -1.
          6    2    1    2  501    0  0.10956601595E+03 -0.66557686826E+02  0.68267812269E+03  0.71547883331E+03  0.17153980349E+03 0.  0.
         24    2    3    3    0    0  0.64237090696E+02  0.13044541961E+02  0.50854096355E+03  0.51866149035E+03  0.78097798139E+02 0.  0.
         -6    2    1    2    0  502 -0.10956601595E+03  0.66557686826E+02  0.21045584273E+03  0.30040680881E+03  0.17180789129E+03 0.  0.
        -24    2    5    5    0    0 -0.80436206924E+02  0.60163878007E+02  0.56306289679E+02  0.14332848035E+03  0.85340373917E+02 0.  0.
          5    1    3    3  501    0  0.45328925259E+02 -0.79602228787E+02  0.17413715915E+03  0.19681734296E+03  0.47000000000E+01 0. -1.
        -13    1    4    4    0    0  0.20173367439E+02 -0.32699885018E+02  0.19703462755E+03  0.20074583853E+03  0.00000000000E+00 0.  1.
         14    1    4    4    0    0  0.44063723257E+02  0.45744426979E+02  0.31150633600E+03  0.31791565182E+03  0.00000000000E+00 0. -1.
         -5    1    5    5    0  502 -0.29129809031E+02  0.63938088190E+01  0.15414955305E+03  0.15707832846E+03  0.47000000000E+01 0.  1.
         11    1    6    6    0    0 -0.98660892952E+02  0.52742236834E+02  0.44631141048E+02  0.12044772350E+03  0.00000000000E+00 0. -1.
        -12    1    6    6    0    0  0.18224686028E+02  0.74216411736E+01  0.11675148630E+02  0.22880756851E+02  0.00000000000E+00 0.  1.
</event>
<event>
12    1  0.9966151E-001  0.2370037E+03  0.7818608E-02  0.1121890E+00
         21   -1    0    0  501  502  0.00000000000E+00  0.00000000000E+00  0.65900207809E+02  0.65900207809E+02  0.00000000000E+00 0.  1.
         21   -1    0    0  502  503 -0.00000000000E+00 -0.00000000000E+00 -0.87715368589E+03  0.87715368589E+03  0.00000000000E+00 0.  1.
         -6    2    1    2    0  503  0.64586464570E+02 -0.14943202225E+03 -0.48732567652E+03  0.54168126257E+03  0.17155446524E+03 0.  0.
        -24    2    3    3    0    0  0.13663503028E+02 -0.14362164660E+03 -0.25378184935E+03  0.30253336338E+03  0.79418764855E+02 0.  0.
          6    2    1    2  501    0 -0.64586464570E+02  0.14943202225E+03 -0.32392780155E+03  0.40137263112E+03  0.17224815736E+03 0.  0.
         24    2    5    5    0    0  0.68396382272E+01  0.11976310649E+03 -0.13128417993E+03  0.19372969800E+03  0.76848407011E+02 0.  0.
          5    1    5    5  501    0 -0.71426102797E+02  0.29668915762E+02 -0.19264362162E+03  0.20764293312E+03  0.47000000000E+01 0. -1.
        -11    1    6    6    0    0  0.24984864463E+02  0.13436922945E+02 -0.54127527486E+02  0.61111239409E+02  0.00000000000E+00 0.  1.
         12    1    6    6    0    0 -0.18145226236E+02  0.10632618355E+03 -0.77156652445E+02  0.13261845859E+03  0.00000000000E+00 0. -1.
         -5    1    3    3    0  503  0.50922961542E+02 -0.58103756556E+01 -0.23354382718E+03  0.23914789920E+03  0.47000000000E+01 0.  1.
         13    1    4    4    0    0 -0.22687864171E+02 -0.43693985861E+02 -0.38774956415E+02  0.62668978179E+02  0.00000000000E+00 0. -1.
        -14    1    4    4    0    0  0.36351367199E+02 -0.99927660738E+02 -0.21500689293E+03  0.23986438520E+03  0.00000000000E+00 0.  1.
</event>
<event>
12    1  0.9966151E-001  0.2066865E+03  0.7818608E-02  0.1144484E+00
         21   -1    0    0  503  502  0.00000000000E+00  0.00000000000E+00  0.29823180395E+03  0.29823180395E+03  0.00000000000E+00 0. -1.
         21   -1    0    0  501  503 -0.00000000000E+00 -0.00000000000E+00 -0.55283236098E+03  0.55283236098E+03  0.00000000000E+00 0. -1.
          6    2    1    2  501    0 -0.13559629198E+02 -0.11604099204E+03  0.23927953159E+03  0.31618668905E+03  0.17049912819E+03 0.  0.
         24    2    3    3    0    0  0.14253245086E+02  0.37872552845E+01  0.13433809641E+03  0.15442402447E+03  0.74716510149E+02 0.  0.
         -6    2    1    2    0  502  0.13559629198E+02  0.11604099204E+03 -0.49388008862E+03  0.53487747587E+03  0.16889936909E+03 0.  0.
        -24    2    5    5    0    0  0.38014916385E+02  0.12079497290E+03 -0.48575917305E+03  0.50825604324E+03  0.79534092968E+02 0.  0.
          5    1    3    3  501    0 -0.27812874284E+02 -0.11982824732E+03  0.10494143518E+03  0.16176266458E+03  0.47000000000E+01 0. -1.
        -11    1    4    4    0    0 -0.14985001199E+02  0.13533123116E+02  0.11766200481E+03  0.11938192099E+03  0.00000000000E+00 0.  1.
         12    1    4    4    0    0  0.29238246285E+02 -0.97458678310E+01  0.16676091598E+02  0.35042103484E+02  0.00000000000E+00 0. -1.
         -5    1    5    5    0  502 -0.24455287187E+02 -0.47539808600E+01 -0.81209155716E+01  0.26621432628E+02  0.47000000000E+01 0.  1.
         13    1    6    6    0    0 -0.17263551631E+02  0.24505690763E+01 -0.37527508237E+02  0.41380543474E+02  0.00000000000E+00 0. -1.
        -14    1    6    6    0    0  0.55278468017E+02  0.11834440382E+03 -0.44823166482E+03  0.46687549977E+03  0.00000000000E+00 0.  1.
</event>
<event>
12    1  0.9966151E-001  0.3114138E+03  0.7818608E-02  0.1079812E+00
         21   -1    0    0  503  502  0.00000000000E+00  0.00000000000E+00  0.22592074385E+03  0.22592074385E+03  0.00000000000E+00 0.  1.
         21   -1    0    0  501  503 -0.00000000000E+00 -0.00000000000E+00 -0.78447930233E+03  0.78447930233E+03  0.00000000000E+00 0.  1.
          6    2    1    2  501    0  0.78434529110E+02  0.24661505178E+03  0.61166372349E+02  0.31736390596E+03  0.17322691644E+03 0.  0.
         24    2    3    3    0    0  0.92798221007E+01  0.15889300442E+03  0.92368813456E+02  0.20128973388E+03  0.81562597508E+02 0.  0.
         -6    2    1    2    0  502 -0.78434529110E+02 -0.24661505178E+03 -0.61972493082E+03  0.69303614022E+03  0.17108226866E+03 0.  0.
        -24    2    5    5    0    0 -0.97140487504E+02 -0.24140465069E+03 -0.47818232799E+03  0.55009048769E+03  0.78922279273E+02 0.  0.
          5    1    3    3  501    0  0.69154707010E+02  0.87722047351E+02 -0.31202441107E+02  0.11607417208E+03  0.47000000000E+01 0. -1.
        -13    1    4    4    0    0  0.19797112082E+02  0.21267478315E+01  0.19372511507E+01  0.20005040493E+02  0.00000000000E+00 0.  1.
         14    1    4    4    0    0 -0.10517289981E+02  0.15676625659E+03  0.90431562305E+02  0.18128469338E+03  0.00000000000E+00 0. -1.
         -5    1    5    5    0  502  0.18705958393E+02 -0.52104010847E+01 -0.14154260284E+03  0.14294565253E+03  0.47000000000E+01 0.  1.
         13    1    6    6    0    0 -0.92952676922E+02 -0.14883254051E+03 -0.35441956531E+03  0.39548015568E+03  0.00000000000E+00 0. -1.
        -14    1    6    6    0    0 -0.41878105817E+01 -0.92572110176E+02 -0.12376276268E+03  0.15461033201E+03  0.00000000000E+00 0.  1.
</event>
<event>
12    1  0.9966151E-001  0.2187351E+03  0.7818608E-02  0.1137732E+00
         21   -1    0    0  501  502  0.00000000000E+00  0.00000000000E+00  0.17393847246E+03  0.17393847246E+03  0.00000000000E+00 0. -1.
         21   -1    0    0  502  503 -0.00000000000E+00 -0.00000000000E+00 -0.27268414015E+03  0.27268414015E+03  0.00000000000E+00 0. -1.
         -6    2    1    2    0  503 -0.12625090200E+03 -0.47903130170E+02  0.63560788088E+01  0.20394703267E+03  0.15270884801E+03 0.  0.
        -24    2    3    3    0    0 -0.70482339791E+02 -0.86760162575E+02 -0.41002670151E+01  0.13501643956E+03  0.75614421440E+02 0.  0.
          6    2    1    2  501    0  0.12625090200E+03  0.47903130170E+02 -0.10510174651E+03  0.24267557994E+03  0.17207864435E+03 0.  0.
         24    2    5    5    0    0  0.12812110275E+03  0.50969823209E+02 -0.23388546573E+02  0.16074854349E+03  0.79247273000E+02 0.  0.
          5    1    5    5  501    0 -0.18702007415E+01 -0.30666930390E+01 -0.81713199932E+02  0.81927036442E+02  0.47000000000E+01 0. -1.
        -11    1    6    6    0    0  0.11775177447E+03  0.29084489394E+02  0.74716923044E+01  0.12152042668E+03  0.00000000000E+00 0.  1.
         12    1    6    6    0    0  0.10369328271E+02  0.21885333815E+02 -0.30860238878E+02  0.39228116812E+02  0.00000000000E+00 0. -1.
         -5    1    3    3    0  503 -0.55768562214E+02  0.38857032405E+02  0.10456345824E+02  0.68930593111E+02  0.47000000000E+01 0.  1.
         11    1    4    4    0    0  0.14195153697E+01 -0.55087203967E+02  0.74370831024E+01  0.55605083130E+02  0.00000000000E+00 0. -1.
        -12    1    4    4    0    0 -0.71901855160E+02 -0.31672958608E+02 -0.11537350118E+02  0.79411356431E+02  0.00000000000E+00 0.  1.
</event>
<event>
12    1  0.9966151E-001  0.2469383E+03  0.7818608E-02  0.1115341E+00
         21   -1    0    0  501  502  0.00000000000E+00  0.00000000000E+00  0.22961541315E+03  0.22961541315E+03  0.00000000000E+00 0. -1.
         21   -1    0    0  502  503 -0.00000000000E+00 -0.00000000000E+00 -0.39757358508E+03  0.39757358508E+03  0.00000000000E+00 0. -1.
         -6    2    1    2    0  503  0.12956386585E+03  0.12232871660E+03 -0.26513239308E+03  0.36231711089E+03  0.17096020807E+03 0.  0.
        -24    2    3    3    0    0  0.18076529968E+02  0.30942881995E+02 -0.83120123838E+01  0.67767293762E+02  0.56913036047E+02 0.  0.
          6    2    1    2  501    0 -0.12956386585E+03 -0.12232871660E+03  0.97174221153E+02  0.26487188733E+03  0.17018571386E+03 0.  0.
         24    2    5    5    0    0 -0.10549592175E+03 -0.18026629382E+02  0.75945261263E+02  0.15564299889E+03  0.83682205530E+02 0.  0.
          5    1    5    5  501    0 -0.24067944101E+02 -0.10430208722E+03  0.21228959890E+02  0.10922888844E+03  0.47000000000E+01 0. -1.
        -11    1    6    6    0    0 -0.10524759035E+03 -0.61004995432E+01  0.32098358356E+02  0.11020243182E+03  0.00000000000E+00 0.  1.
         12    1    6    6    0    0 -0.24833140127E+00 -0.11926129838E+02  0.43846902907E+02  0.45440567074E+02  0.00000000000E+00 0. -1.
         -5    1    3    3    0  503  0.11148733589E+03  0.91385834609E+02 -0.25682038069E+03  0.29454981713E+03  0.47000000000E+01 0.  1.
         11    1    4    4    0    0 -0.63559967613E+01 -0.51408515596E+01 -0.20872199270E+02  0.22415970912E+02  0.00000000000E+00 0. -1.
        -12    1    4    4    0    0  0.24432526729E+02  0.36083733554E+02  0.12560186886E+02  0.45351322850E+02  0.00000000000E+00 0.  1.
</event>
<event>
12    1  0.9966151E-001  0.2715387E+03  0.7818608E-02  0.1100415E+00
         21   -1    0    0  503  502  0.00000000000E+00  0.00000000000E+00  0.76414179645E+02  0.76414179645E+02  0.00000000000E+00 0. -1.
         21   -1    0    0  501  503 -0.00000000000E+00 -0.00000000000E+00 -0.10703648759E+04  0.10703648759E+04  0.00000000000E+00 0.  1.
          6    2    1    2  501    0  0.20948703085E+03 -0.96143534317E+01 -0.67729565062E+03  0.72970040413E+03  0.17249936104E+03 0.  0.
         24    2    3    3    0    0  0.17169873260E+03  0.38716879487E+02 -0.60386849326E+03  0.63390112962E+03  0.78702181960E+02 0.  0.
         -6    2    1    2    0  502 -0.20948703085E+03  0.96143534317E+01 -0.31665504566E+03  0.41707865144E+03  0.17235698900E+03 0.  0.
        -24    2    5    5    0    0 -0.58440538163E+02  0.50083198064E+02 -0.16257473232E+03  0.19749813478E+03  0.81555787176E+02 0.  0.
          5    1    3    3  501    0  0.37788298250E+02 -0.48331232919E+02 -0.73427157360E+02  0.95799274517E+02  0.47000000000E+01 0. -1.
        -11    1    4    4    0    0  0.52635056476E+02  0.33631621250E+02 -0.31988108485E+03  0.32592245023E+03  0.00000000000E+00 0.  1.
         12    1    4    4    0    0  0.11906367612E+03  0.50852582378E+01 -0.28398740841E+03  0.30797867939E+03  0.00000000000E+00 0. -1.
         -5    1    5    5    0  502 -0.15104649268E+03 -0.40468844633E+02 -0.15408031334E+03  0.21958051666E+03  0.47000000000E+01 0.  1.
         13    1    6    6    0    0  0.20544987940E+02  0.81826713534E+01 -0.41015378580E+02  0.46597359582E+02  0.00000000000E+00 0. -1.
        -14    1    6    6    0    0 -0.78985526104E+02  0.41900526711E+02 -0.12155935374E+03  0.15090077519E+03  0.00000000000E+00 0.  1.
</event>
<event>
12    1  0.9966151E-001  0.2384882E+03  0.7818608E-02  0.1121016E+00
         21   -1    0    0  503  502  0.00000000000E+00  0.00000000000E+00  0.52359664289E+02  0.52359664289E+02  0.00000000000E+00 0. -1.
         21   -1    0    0  501  503 -0.00000000000E+00 -0.00000000000E+00 -0.10952723873E+04  0.10952723873E+04  0.00000000000E+00 0. -1.
          6    2    1    2  501    0  0.11422003493E+03 -0.11932262745E+03 -0.58661876558E+03  0.63277208646E+03  0.17027868766E+03 0.  0.
         24    2    3    3    0    0  0.73697534879E+02  0.16985738103E+01 -0.24272663249E+03  0.26593139438E+03  0.79806494699E+02 0.  0.
         -6    2    1    2    0  502 -0.11422003493E+03  0.11932262745E+03 -0.45629395739E+03  0.51485996509E+03  0.17202471421E+03 0.  0.
        -24    2    5    5    0    0 -0.12838212453E+03  0.42851866761E+02 -0.27208757345E+03  0.31485390542E+03  0.82359466637E+02 0.  0.
          5    1    3    3  501    0  0.40522500054E+02 -0.12102120126E+03 -0.34389213310E+03  0.36684069209E+03  0.47000000000E+01 0. -1.
        -11    1    4    4    0    0  0.33161242668E+02 -0.38724512459E+02 -0.12595684689E+03  0.13588371190E+03  0.00000000000E+00 0.  1.
         12    1    4    4    0    0  0.40536292211E+02  0.40423086270E+02 -0.11676978560E+03  0.13004768248E+03  0.00000000000E+00 0. -1.
         -5    1    5    5    0  502  0.14162089597E+02  0.76470760690E+02 -0.18420638394E+03  0.20000605967E+03  0.47000000000E+01 0.  1.
         13    1    6    6    0    0  0.28806158580E+01  0.23844044569E+02 -0.60984124984E+02  0.65543114887E+02  0.00000000000E+00 0. -1.
        -14    1    6    6    0    0 -0.13126274039E+03  0.19007822193E+02 -0.21110344847E+03  0.24931079053E+03  0.00000000000E+00 0.  1.
</event>
<event>
12    1  0.9966151E-001  0.1905483E+03  0.7818608E-02  0.1158233E+00
         21   -1    0    0  503  502  0.00000000000E+00  0.00000000000E+00  0.31224274870E+02  0.31224274870E+02  0.00000000000E+00 0. -1.
         21   -1    0    0  501  503 -0.00000000000E+00 -0.00000000000E+00 -0.13306387317E+04  0.13306387317E+04  0.00000000000E+00 0. -1.
          6    2    1    2  501    0 -0.50706607244E+02  0.61567134600E+02 -0.89836949225E+03  0.91835527537E+03  0.17305200117E+03 0.  0.
         24    2    3    3    0    0 -0.48406403515E+02  0.70031188007E+02 -0.90065934924E+03  0.90814427237E+03  0.79317141028E+02 0.  0.
         -6    2    1    2    0  502  0.50706607244E+02 -0.61567134600E+02 -0.40104496460E+03  0.44350773122E+03  0.17175672313E+03 0.  0.
        -24    2    5    5    0    0  0.67567747346E+02 -0.97493089167E+02 -0.25541903386E+03  0.29249788399E+03  0.79030540703E+02 0.  0.
          5    1    3    3  501    0 -0.23002037286E+01 -0.84640534069E+01  0.22898569905E+01  0.10211003002E+02  0.47000000000E+01 0. -1.
        -11    1    4    4    0    0 -0.21770079761E+02 -0.14298188078E+02 -0.28127180134E+03  0.28247513304E+03  0.00000000000E+00 0.  1.
         12    1    4    4    0    0 -0.26636323754E+02  0.84329376085E+02 -0.61938754790E+03  0.62566913933E+03  0.00000000000E+00 0. -1.
         -5    1    5    5    0  502 -0.16861140102E+02  0.35925954567E+02 -0.14562593074E+03  0.15100984724E+03  0.47000000000E+01 0.  1.
         13    1    6    6    0    0  0.54891364085E+01 -0.40080139184E+02 -0.15985782723E+03  0.16489715917E+03  0.00000000000E+00 0. -1.
        -14    1    6    6    0    0  0.62078610938E+02 -0.57412949983E+02 -0.95561206623E+02  0.12760072481E+03  0.00000000000E+00 0.  1.
</event>
<event>
12    1  0.9966151E-001  0.2034165E+03  0.7818608E-02  0.1147189E+00
         21   -1    0    0  501  502  0.00000000000E+00  0.00000000000E+00  0.66062457904E+03  0.66062457904E+03  0.00000000000E+00 0. -1.
         21   -1    0    0  502  503 -0.00000000000E+00 -0.00000000000E+00 -0.76263558927E+02  0.76263558927E+02  0.00000000000E+00 0. -1.
         -6    2    1    2    0  503  0.24091761502E+02 -0.10599821602E+03  0.45131559541E+03  0.49503944553E+03  0.17193676512E+03 0.  0.
        -24    2    3    3    0    0  0.93447645582E+01  0.11291880768E+02  0.23428270555E+03  0.24785569606E+03  0.79556450104E+02 0.  0.
          6    2    1    2  501    0 -0.24091761502E+02  0.10599821602E+03  0.13304542471E+03  0.24184869244E+03  0.17021653923E+03 0.  0.
         24    2    5    5    0    0  0.35889512296E+02  0.54947313654E+02  0.16466226383E+02  0.10107672321E+03  0.75087302477E+02 0.  0.
          5    1    5    5  501    0 -0.59981273798E+02  0.51050902361E+02  0.11657919832E+03  0.14077196923E+03  0.47000000000E+01 0. -1.
        -13    1    6    6    0    0  0.72919319384E+01  0.11499920052E+02 -0.28970810664E+02  0.32011377714E+02  0.00000000000E+00 0.  1.
         14    1    6    6    0    0  0.28597580358E+02  0.43447393602E+02  0.45437037047E+02  0.69065345498E+02  0.00000000000E+00 0. -1.
         -5    1    3    3    0  503  0.14746996944E+02 -0.11729009678E+03  0.21703288986E+03  0.24718374948E+03  0.47000000000E+01 0.  1.
         13    1    4    4    0    0  0.32861587121E+02  0.33508472593E+02  0.11363008154E+03  0.12294103089E+03  0.00000000000E+00 0. -1.
        -14    1    4    4    0    0 -0.23516822562E+02 -0.22216591825E+02  0.12065262400E+03  0.12491466517E+03  0.00000000000E+00 0.  1.
</event>
<event>
12    1  0.9966151E-001  0.1755653E+03  0.7818608E-02  0.1172223E+00
         21   -1    0    0  501  502  0.00000000000E+00  0.00000000000E+00  0.29780811949E+03  0.29780811949E+03  0.00000000000E+00 0.  1.
         21   -1    0    0  502  503 -0.00000000000E+00 -0.00000000000E+00 -0.10679045844E+03  0.10679045844E+03  0.00000000000E+00 0.  1.
         -6    2    1    2    0  503  0.33013767913E+02 -0.61029542623E+01  0.13168353916E+03  0.21927802257E+03  0.17209050460E+03 0.  0.
        -24    2    3    3    0    0  0.70774185079E+01 -0.75639886665E+01 -0.47789407745E+01  0.80285478622E+02  0.79470850162E+02 0.  0.
          6    2    1    2  501    0 -0.33013767913E+02  0.61029542623E+01  0.59334121880E+02  0.18532055536E+03  0.17232531822E+03 0.  0.
         24    2    5    5    0    0  0.34708524036E+02 -0.23351156379E+02 -0.10548371567E+02  0.83538895173E+02  0.71536848680E+02 0.  0.
          5    1    5    5  501    0 -0.67722291949E+02  0.29454110641E+02  0.69882493448E+02  0.10178166019E+03  0.47000000000E+01 0. -1.
        -13    1    6    6    0    0  0.55115231914E+02 -0.11628087481E+02  0.29546857357E+01  0.56405951593E+02  0.00000000000E+00 0.  1.
         14    1    6    6    0    0 -0.20406707878E+02 -0.11723068898E+02 -0.13503057303E+02  0.27132943580E+02  0.00000000000E+00 0. -1.
         -5    1    3    3    0  503  0.25936349405E+02  0.14610344043E+01  0.13646247994E+03  0.13899254395E+03  0.47000000000E+01 0.  1.
         11    1    4    4    0    0  0.96220021595E+01 -0.39817166833E+02 -0.18742441175E+02  0.45047406155E+02  0.00000000000E+00 0. -1.
        -12    1    4    4    0    0 -0.25445836516E+01  0.32253178166E+02  0.13963500400E+02  0.35238072467E+02  0.00000000000E+00 0.  1.
</event>
<event>
12    1  0.9966151E-001  0.2229503E+03  0.7818608E-02  0.1132319E+00
         21   -1    0    0  503  502  0.00000000000E+00  0.00000000000E+00  0.18806919825E+04  0.18806919825E+04  0.00000000000E+00 0.  1.
         21   -1    0    0  501  503 -0.00000000000E+00 -0.00000000000E+00 -0.32763442181E+02  0.32763442181E+02  0.00000000000E+00 0.  1.
          6    2    1    2  501    0 -0.96653258469E+02 -0.98175041529E+02  0.13630243240E+04  0.13811379939E+04  0.17529021450E+03 0.  0.
         24    2    3    3    0    0  0.52892024703E+01 -0.66555296322E+02  0.50492605052E+03  0.51641444817E+03  0.85299370797E+02 0.  0.
         -6    2    1    2    0  502  0.96653258469E+02  0.98175041529E+02  0.48490421641E+03  0.53231743085E+03  0.17102501845E+03 0.  0.
        -24    2    5    5    0    0  0.64394066334E+02  0.12563301312E+03  0.44643063104E+03  0.47489877140E+03  0.79361735002E+02 0.  0.
          5    1    3    3  501    0 -0.10194246094E+03 -0.31619745207E+02  0.85809827344E+03  0.86472354571E+03  0.47000000000E+01 0. -1.
        -13    1    4    4    0    0 -0.15158998547E+02 -0.49154093292E+02  0.12008857315E+03  0.13064143878E+03  0.00000000000E+00 0.  1.
         14    1    4    4    0    0  0.20448201017E+02 -0.17401203030E+02  0.38483747737E+03  0.38577300940E+03  0.00000000000E+00 0. -1.
         -5    1    5    5    0  502  0.32259192136E+02 -0.27457971592E+02  0.38473585372E+02  0.57418659446E+02  0.47000000000E+01 0.  1.
         11    1    6    6    0    0  0.60056088688E+02  0.79274252607E+02  0.19185955895E+03  0.21610467666E+03  0.00000000000E+00 0. -1.
        -12    1    6    6    0    0  0.43379776455E+01  0.46358760514E+02  0.25457107209E+03  0.25879409474E+03  0.00000000000E+00 0.  1.
</event>
<event>
12    1  0.9966151E-001  0.2150310E+03  0.7818608E-02  0.1138056E+00
         21   -1    0    0  503  502  0.00000000000E+00  0.00000000000E+00  0.13278801367E+03  0.13278801367E+03  0.00000000000E+00 0. -1.
         21   -1    0    0  501  503 -0.00000000000E+00 -0.00000000000E+00 -0.36753921670E+03  0.36753921670E+03  0.00000000000E+00 0. -1.
          6    2    1    2  501    0  0.34058423542E+02 -0.12100914002E+03 -0.55638315446E+02  0.22211249758E+03  0.17445673174E+03 0.  0.
         24    2    3    3    0    0 -0.47418065514E+02 -0.46210934348E+02 -0.16114604766E+02  0.10456504526E+03  0.79311063617E+02 0.  0.
         -6    2    1    2    0  502 -0.34058423542E+02  0.12100914002E+03 -0.17911288758E+03  0.27821473279E+03  0.17181042711E+03 0.  0.
        -24    2    5    5    0    0 -0.52697495168E+02  0.43372896111E+02 -0.16851556371E+03  0.19753515277E+03  0.77229574986E+02 0.  0.
          5    1    3    3  501    0  0.81476489056E+02 -0.74798205675E+02 -0.39523710679E+02  0.11754745232E+03  0.47000000000E+01 0. -1.
        -13    1    4    4    0    0 -0.20648659882E+02  0.87622934258E+01  0.22882589487E+02  0.32043062317E+02  0.00000000000E+00 0.  1.
         14    1    4    4    0    0 -0.26769405632E+02 -0.54973227774E+02 -0.38997194253E+02  0.72521982939E+02  0.00000000000E+00 0. -1.
         -5    1    5    5    0  502  0.18639071625E+02  0.77636243912E+02 -0.10597323872E+02  0.80679580026E+02  0.47000000000E+01 0.  1.
         13    1    6    6    0    0 -0.43477602118E+02 -0.17566018555E+01 -0.13128624715E+03  0.13830931359E+03  0.00000000000E+00 0. -1.
        -14    1    6    6    0    0 -0.92198930491E+01  0.45129497966E+02 -0.37229316564E+02  0.59225839178E+02  0.00000000000E+00 0.  1.
</event>
<event>
12    1  0.9966151E-001  0.2230134E+03  0.7818608E-02  0.1131919E+00
         21   -1    0    0  503  502  0.00000000000E+00  0.00000000000E+00  0.78128371753E+02  0.78128371753E+02  0.00000000000E+00 0.  1.
         21   -1    0    0  501  503 -0.00000000000E+00 -0.00000000000E+00 -0.80175862485E+03  0.80175862485E+03  0.00000000000E+00 0.  1.
          6    2    1    2  501    0 -0.11965323234E+03  0.70562659992E+02 -0.16060022622E+03  0.27482250940E+03  0.17446774492E+03 0.  0.
         24    2    3    3    0    0 -0.13369294586E+03  0.79799123716E+01 -0.13321498200E+03  0.20492433020E+03  0.79437188404E+02 0.  0.
         -6    2    1    2    0  502  0.11965323234E+03 -0.70562659992E+02 -0.56303002687E+03  0.60506448719E+03  0.17263903820E+03 0.  0.
        -24    2    5    5    0    0  0.14475091316E+03 -0.78704525597E+02 -0.53816855587E+03  0.56850814303E+03  0.80180327717E+02 0.  0.
          5    1    3    3  501    0  0.14039713527E+02  0.62582747620E+02 -0.27385244220E+02  0.69898179208E+02  0.47000000000E+01 0. -1.
        -13    1    4    4    0    0  0.19475242769E+00  0.16015097763E+02 -0.19115022560E+00  0.16017422492E+02  0.00000000000E+00 0.  1.
         14    1    4    4    0    0 -0.13388769829E+03 -0.80351853916E+01 -0.13302383178E+03  0.18890690770E+03  0.00000000000E+00 0. -1.
         -5    1    5    5    0  502 -0.25097680827E+02  0.81418656051E+01 -0.24861471004E+02  0.36556344168E+02  0.47000000000E+01 0.  1.
         11    1    6    6    0    0  0.22116868279E+02 -0.35516705123E+02 -0.23408947332E+03  0.23779922986E+03  0.00000000000E+00 0. -1.
        -12    1    6    6    0    0  0.12263404488E+03 -0.43187820474E+02 -0.30407908255E+03  0.33070891316E+03  0.00000000000E+00 0.  1.
</event>
<event>
12    1  0.9966151E-001  0.1805375E+03  0.7818608E-02  0.1167587E+00
         21   -1    0    0  503  502  0.00000000000E+00  0.00000000000E+00  0.11618357615E+03  0.11618357615E+03  0.00000000000E+00 0. -1.
         21   -1    0    0  501  503 -0.00000000000E+00 -0.00000000000E+00 -0.46037809987E+03  0.46037809987E+03  0.00000000000E+00 0. -1.
          6    2    1    2  501    0 -0.51008428354E+02  0.18827734602E+02  0.94143158598E+01  0.17953142988E+03  0.17084074929E+03 0.  0.
         24    2    3    3    0    0  0.74469562095E+01  0.30031247336E+02  0.57109402798E+02  0.10311505729E+03  0.80086816507E+02 0.  0.
         -6    2    1    2    0  502  0.51008428354E+02 -0.18827734602E+02 -0.35360883959E+03  0.39703024614E+03  0.17215534138E+03 0.  0.
        -24    2    5    5    0    0  0.35890479171E+02 -0.18145519277E+02 -0.78812495238E+02  0.12177738299E+03  0.83671591580E+02 0.  0.
          5    1    3    3  501    0 -0.58455384563E+02 -0.11203512734E+02 -0.47695086938E+02  0.76416372592E+02  0.47000000000E+01 0. -1.
        -13    1    4    4    0    0  0.14767507425E+01  0.12858450440E+02  0.75884153363E+02  0.76980031645E+02  0.00000000000E+00 0.  1.
         14    1    4    4    0    0  0.59702054670E+01  0.17172796896E+02 -0.18774750565E+02  0.26135025643E+02  0.00000000000E+00 0. -1.
         -5    1    5    5    0  502  0.15117949183E+02 -0.68221532507E+00 -0.27479634435E+03  0.27525286315E+03  0.47000000000E+01 0.  1.
         11    1    6    6    0    0  0.59003862214E+02 -0.29164991272E+02 -0.65747309827E+02  0.93030969153E+02  0.00000000000E+00 0. -1.
        -12    1    6    6    0    0 -0.23113383043E+02  0.11019471995E+02 -0.13065185411E+02  0.28746413838E+02  0.00000000000E+00 0.  1.
</event>
<event>
12    1  0.9966151E-001  0.2201990E+03  0.7818608E-02  0.1133948E+00
         21   -1    0    0  503  502  0.00000000000E+00  0.00000000000E+00  0.55427404639E+03  0.55427404639E+03  0.00000000000E+00 0. -1.
         21   -1    0    0  501  503 -0.00000000000E+00 -0.00000000000E+00 -0.12677707275E+03  0.12677707275E+03  0.00000000000E+00 0. -1.
          6    2    1    2  501    0  0.10276506055E+03 -0.91824376918E+02  0.40404532156E+03  0.45960681722E+03  0.17027457443E+03 0.  0.
         24    2    3    3    0    0  0.86776593122E+02 -0.47647596919E+02  0.13132784263E+03  0.18283230197E+03  0.79876015086E+02 0.  0.
         -6    2    1    2    0  502 -0.10276506055E+03  0.91824376918E+02  0.23451652073E+02  0.22144430192E+03  0.17174173925E+03 0.  0.
        -24    2    5    5    0    0  0.12152711699E+02  0.19262428100E+02  0.19149622055E+02  0.85385754751E+02  0.80033052869E+02 0.  0.
          5    1    3    3  501    0  0.15988467426E+02 -0.44176779999E+02  0.27271747893E+03  0.27677451526E+03  0.47000000000E+01 0. -1.
        -13    1    4    4    0    0  0.28835031470E+02  0.22243701365E+02  0.37645289094E+02  0.52377562766E+02  0.00000000000E+00 0.  1.
         14    1    4    4    0    0  0.57941561652E+02 -0.69891298285E+02  0.93682553539E+02  0.13045473920E+03  0.00000000000E+00 0. -1.
         -5    1    5    5    0  502 -0.11491777225E+03  0.72561948818E+02  0.43020300185E+01  0.13605854717E+03  0.47000000000E+01 0.  1.
         13    1    6    6    0    0 -0.12279845295E+02  0.43269967168E+02  0.23684124182E+02  0.50833280412E+02  0.00000000000E+00 0. -1.
        -14    1    6    6    0    0  0.24432556994E+02 -0.24007539068E+02 -0.45345021272E+01  0.34552474338E+02  0.00000000000E+00 0.  1.
</event>
<event>
12    1  0.9966151E-001  0.1878269E+03  0.7818608E-02  0.1160555E+00
         21   -1    0    0  501  502  0.00000000000E+00  0.00000000000E+00  0.13332792677E+03  0.13332792677E+03  0.00000000000E+00 0. -1.
         21   -1    0    0  502  503 -0.00000000000E+00 -0.00000000000E+00 -0.39583969072E+03  0.39583969072E+03  0.00000000000E+00 0. -1.
         -6    2    1    2    0  503 -0.74898115047E+02  0.27723862759E+01 -0.28390403260E+03  0.34012640270E+03  0.17165971084E+03 0.  0.
        -24    2    3    3    0    0 -0.47625837945E+01 -0.35870499292E+02 -0.70682604213E+02  0.11231566355E+03  0.79431749426E+02 0.  0.
          6    2    1    2  501    0  0.74898115047E+02 -0.27723862759E+01  0.21392268649E+02  0.18904121480E+03  0.17222525358E+03 0.  0.
         24    2    5    5    0    0  0.11346586573E+03  0.10376043921E+02  0.21293217435E+01  0.14372561337E+03  0.87580551224E+02 0.  0.
          5    1    5    5  501    0 -0.38567750684E+02 -0.13148430197E+02  0.19262946906E+02  0.45315601430E+02  0.47000000000E+01 0. -1.
        -13    1    6    6    0    0  0.16284587883E+02 -0.31409318493E+02  0.12292996059E+02  0.37454650483E+02  0.00000000000E+00 0.  1.
         14    1    6    6    0    0  0.97181277848E+02  0.41785362414E+02 -0.10163674315E+02  0.10627096288E+03  0.00000000000E+00 0. -1.
         -5    1    3    3    0  503 -0.70135531252E+02  0.38642885568E+02 -0.21322142839E+03  0.22781073915E+03  0.47000000000E+01 0.  1.
         13    1    4    4    0    0 -0.55066857434E+01 -0.34269104784E+02 -0.88161499297E+02  0.94747797277E+02  0.00000000000E+00 0. -1.
        -14    1    4    4    0    0  0.74410194887E+00 -0.16013945085E+01  0.17478895084E+02  0.17567866274E+02  0.00000000000E+00 0.  1.
</event>
<event>
12    1  0.9966151E-001  0.2221622E+03  0.7818608E-02  0.1132421E+00
         21   -1    0    0  503  502  0.00000000000E+00  0.00000000000E+00  0.37492111348E+03  0.37492111348E+03  0.00000000000E+00 0. -1.
         21   -1    0    0  501  503 -0.00000000000E+00 -0.00000000000E+00 -0.13467509690E+03  0.13467509690E+03  0.00000000000E+00 0. -1.
          6    2    1    2  501    0  0.27086700503E+02 -0.13743367298E+03  0.79366168544E+02  0.23591314225E+03  0.17243641775E+03 0.  0.
         24    2    3    3    0    0  0.11646503094E+02 -0.21807412736E+02 -0.15263336913E+02  0.85631190384E+02  0.80551393708E+02 0.  0.
         -6    2    1    2    0  502 -0.27086700503E+02  0.13743367298E+03  0.16087984804E+03  0.27368306813E+03  0.17145959426E+03 0.  0.
        -24    2    5    5    0    0 -0.67444031177E+02  0.96022015733E+02  0.53440351946E+02  0.15158075523E+03  0.79698991796E+02 0.  0.
          5    1    3    3  501    0  0.15440197408E+02 -0.11562626024E+03  0.94629505457E+02  0.15028195187E+03  0.47000000000E+01 0. -1.
        -13    1    4    4    0    0  0.20307547407E+02  0.27487539820E+02 -0.73961933509E+01  0.34966626991E+02  0.00000000000E+00 0.  1.
         14    1    4    4    0    0 -0.86610443128E+01 -0.49294952555E+02 -0.78671435622E+01  0.50664563393E+02  0.00000000000E+00 0. -1.
         -5    1    5    5    0  502  0.40357330675E+02  0.41411657247E+02  0.10743949609E+03  0.12210231290E+03  0.47000000000E+01 0.  1.
         13    1    6    6    0    0  0.91924765614E+01  0.40539422422E+02 -0.25428330704E+01  0.41646277092E+02  0.00000000000E+00 0. -1.
        -14    1    6    6    0    0 -0.76636507739E+02  0.55482593311E+02  0.55983185016E+02  0.10993447814E+03  0.00000000000E+00 0.  1.
</event>
<event>
12    1  0.9966151E-001  0.2194283E+03  0.7818608E-02  0.1134588E+00
         21   -1    0    0  501  502  0.00000000000E+00  0.00000000000E+00  0.15500688416E+03  0.15500688416E+03  0.00000000000E+00 0.  1.
         21   -1    0    0  502  503 -0.00000000000E+00 -0.00000000000E+00 -0.38301616345E+03  0.38301616345E+03  0.00000000000E+00 0.  1.
         -6    2    1    2    0  503  0.54626223035E+02  0.12113189995E+03 -0.23294929677E+03  0.32002212384E+03  0.17461908101E+03 0.  0.
        -24    2    3    3    0    0 -0.16346325699E+02  0.10635591549E+02 -0.13486308495E+03  0.15604184517E+03  0.76030833158E+02 0.  0.
          6    2    1    2  501    0 -0.54626223035E+02 -0.12113189995E+03  0.49400174729E+01  0.21800092377E+03  0.17275137500E+03 0.  0.
         24    2    5    5    0    0 -0.79008416880E+02 -0.43199365995E+02 -0.35716087327E+02  0.12666100871E+03  0.81601820287E+02 0.  0.
          5    1    5    5  501    0  0.24382193845E+02 -0.77932533955E+02  0.40656104799E+02  0.91339915058E+02  0.47000000000E+01 0. -1.
        -13    1    6    6    0    0 -0.28106672216E+02 -0.17988985006E+02 -0.56960256306E+02  0.66015599694E+02  0.00000000000E+00 0.  1.
         14    1    6    6    0    0 -0.50901744665E+02 -0.25210380989E+02  0.21244168979E+02  0.60645409019E+02  0.00000000000E+00 0. -1.
         -5    1    3    3    0  503  0.70972548734E+02  0.11049630840E+03 -0.98086211819E+02  0.16398027867E+03  0.47000000000E+01 0.  1.
         11    1    4    4    0    0 -0.12643516018E+02 -0.12162246881E+02 -0.13154315353E+03  0.13270787463E+03  0.00000000000E+00 0. -1.
        -12    1    4    4    0    0 -0.37028096803E+01  0.22797838429E+02 -0.33199314119E+01  0.23333970540E+02  0.00000000000E+00 0.  1.
</event>
<event>
12    1  0.9966151E-001  0.2256795E+03  0.7818608E-02  0.1129919E+00
         21   -1    0    0  501  502  0.00000000000E+00  0.00000000000E+00  0.99269986201E+03  0.99269986201E+03  0.00000000000E+00 0. -1.
         21   -1    0    0  502  503 -0.00000000000E+00 -0.00000000000E+00 -0.52714043660E+02  0.52714043660E+02  0.00000000000E+00 0. -1.
         -6    2    1    2    0  503 -0.12912973706E+03  0.66744820817E+02  0.56390341910E+03  0.60738647018E+03  0.17263226230E+03 0.  0.
        -24    2    3    3    0    0 -0.85252926155E+02  0.51405520404E+02  0.53861607312E+03  0.55426388987E+03  0.84797384651E+02 0.  0.
          6    2    1    2  501    0  0.12912973706E+03 -0.66744820817E+02  0.37608239925E+03  0.43802743549E+03  0.17117448150E+03 0.  0.
         24    2    5    5    0    0  0.40964415099E+02 -0.71307721590E+02  0.11860977977E+03  0.16579925208E+03  0.81598024922E+02 0.  0.
          5    1    5    5  501    0  0.88165321959E+02  0.45629007735E+01  0.25747261948E+03  0.27222818341E+03  0.47000000000E+01 0. -1.
        -11    1    6    6    0    0  0.22118117195E+02 -0.69850275232E+02  0.12579512619E+03  0.14557707866E+03  0.00000000000E+00 0.  1.
         12    1    6    6    0    0  0.18846297905E+02 -0.14574463588E+01 -0.71853464230E+01  0.20222173420E+02  0.00000000000E+00 0. -1.
         -5    1    3    3    0  503 -0.43876810903E+02  0.15339300413E+02  0.25287345981E+02  0.53122580311E+02  0.47000000000E+01 0.  1.
         13    1    4    4    0    0 -0.16027119388E+02  0.52416665333E+02  0.32833657296E+03  0.33288027954E+03  0.00000000000E+00 0. -1.
        -14    1    4    4    0    0 -0.69225806767E+02 -0.10111449297E+01  0.21027950015E+03  0.22138361033E+03  0.00000000000E+00 0.  1.
</event>
<event>
12    1  0.9966151E-001  0.1782973E+03  0.7818608E-02  0.1170192E+00
         21   -1    0    0  503  502  0.00000000000E+00  0.00000000000E+00  0.15630456421E+04  0.15630456421E+04  0.00000000000E+00 0. -1.
         21   -1    0    0  501  503 -0.00000000000E+00 -0.00000000000E+00 -0.37921346912E+02  0.37921346912E+02  0.00000000000E+00 0. -1.
          6    2    1    2  501    0  0.11791032362E+01 -0.41668501103E+02  0.13161686881E+04  0.13281904732E+04  0.17335588626E+03 0.  0.
         24    2    3    3    0    0 -0.37347873813E+02  0.76997834246E+01  0.40866812138E+03  0.41851969535E+03  0.81822684027E+02 0.  0.
         -6    2    1    2    0  502 -0.11791032362E+01  0.41668501103E+02  0.20895560702E+03  0.27277651574E+03  0.17031420248E+03 0.  0.
        -24    2    5    5    0    0  0.55356062607E+02  0.50903943571E+01  0.16450432534E+03  0.19195455515E+03  0.81820977792E+02 0.  0.
          5    1    3    3  501    0  0.38526977049E+02 -0.49368284528E+02  0.90750056676E+03  0.90967077789E+03  0.47000000000E+01 0. -1.
        -11    1    4    4    0    0  0.16332796452E+02 -0.16031267888E+02  0.48838089768E+02  0.53934412041E+02  0.00000000000E+00 0.  1.
         12    1    4    4    0    0 -0.53680670265E+02  0.23731051312E+02  0.35983003161E+03  0.36458528331E+03  0.00000000000E+00 0. -1.
         -5    1    5    5    0  502 -0.56535165843E+02  0.36578106746E+02  0.44451281676E+02  0.80821960584E+02  0.47000000000E+01 0.  1.
         13    1    6    6    0    0  0.59596297122E+02 -0.12523105519E+02  0.58605240345E+02  0.84516986448E+02  0.00000000000E+00 0. -1.
        -14    1    6    6    0    0 -0.42402345151E+01  0.17613499876E+02  0.10589908499E+03  0.10743756870E+03  0.00000000000E+00 0.  1.
</event>
<event>
12    1  0.9966151E-001  0.1787035E+03  0.7818608E-02  0.1170256E+00
         21   -1    0    0  503  502  0.00000000000E+00  0.00000000000E+00  0.42434993330E+03  0.42434993330E+03  0.00000000000E+00 0.  1.
         21   -1    0    0  501  503 -0.00000000000E+00 -0.00000000000E+00 -0.12514716309E+03  0.12514716309E+03  0.00000000000E+00 0.  1.
          6    2    1    2  501    0 -0.63650487296E+01  0.29025658178E+02  0.32772549683E+03  0.37328131129E+03  0.17621558787E+03 0.  0.
         24    2    3    3    0    0  0.48500399388E+02 -0.28767089077E+02  0.20687436485E+03  0.22844586973E+03  0.78807857526E+02 0.  0.
         -6    2    1    2    0  502  0.63650487296E+01 -0.29025658178E+02 -0.28522726625E+02  0.17621578510E+03  0.17133433488E+03 0.  0.
        -24    2    5    5    0    0  0.40403887989E+02 -0.40227020482E+02  0.33610723128E+02  0.10433554669E+03  0.80656916957E+02 0.  0.
          5    1    3    3  501    0 -0.54865448118E+02  0.57792747255E+02  0.12085113198E+03  0.14483544156E+03  0.47000000000E+01 0. -1.
        -11    1    4    4    0    0  0.61616885626E+02 -0.46162595640E+01  0.17872713156E+03  0.18910668418E+03  0.00000000000E+00 0.  1.
         12    1    4    4    0    0 -0.13116486237E+02 -0.24150829514E+02  0.28147233292E+02  0.39339185546E+02  0.00000000000E+00 0. -1.
         -5    1    5    5    0  502 -0.34038839260E+02  0.11201362304E+02 -0.62133449753E+02  0.71880238410E+02  0.47000000000E+01 0.  1.
         11    1    6    6    0    0  0.20496255875E+02 -0.58774087153E+02  0.15216623375E+01  0.62263996675E+02  0.00000000000E+00 0. -1.
        -12    1    6    6    0    0  0.19907632114E+02  0.18547066671E+02  0.32089060791E+02  0.42071550018E+02  0.00000000000E+00 0.  1.
</event>
<event>
12    1  0.9966151E-001  0.3870527E+03  0.7818608E-02  0.1048387E+00
         21   -1    0    0  503  502  0.00000000000E+00  0.00000000000E+00  0.35141413195E+03  0.35141413195E+03  0.00000000000E+00 0.  1.
         21   -1    0    0  501  503 -0.00000000000E+00 -0.00000000000E+00 -0.45287431446E+03  0.45287431446E+03  0.00000000000E+00 0. -1.
          6    2    1    2  501    0  0.17259116287E+03  0.30001742348E+03 -0.14881112865E+03  0.41467399222E+03  0.17323857517E+03 0.  0.
         24    2    3    3    0    0  0.64226612107E+02  0.22605804158E+03 -0.13484330329E+03  0.28265105415E+03  0.80508422550E+02 0.  0.
         -6    2    1    2    0  502 -0.17259116287E+03 -0.30001742348E+03  0.47350946135E+02  0.38961445419E+03  0.17250839666E+03 0.  0.
        -24    2    5    5    0    0 -0.18781329532E+03 -0.29766256233E+03  0.23571073403E+02  0.36089458242E+03  0.76239551466E+02 0.  0.
          5    1    3    3  501    0  0.10836455077E+03  0.73959381900E+02 -0.13967825353E+02  0.13202293808E+03  0.47000000000E+01 0. -1.
        -11    1    4    4    0    0  0.59677255119E+02  0.18145707873E+03 -0.69215750826E+02  0.20317201176E+03  0.00000000000E+00 0.  1.
         12    1    4    4    0    0  0.45493569872E+01  0.44600962853E+02 -0.65627552468E+02  0.79479042391E+02  0.00000000000E+00 0. -1.
         -5    1    5    5    0  502  0.15222132445E+02 -0.23548611495E+01  0.23779872732E+02  0.28719871768E+02  0.47000000000E+01 0.  1.
         13    1    6    6    0    0 -0.11126173683E+03 -0.14103614581E+03 -0.21250078300E+02  0.18089205161E+03  0.00000000000E+00 0. -1.
        -14    1    6    6    0    0 -0.76551558490E+02 -0.15662641652E+03  0.44821151703E+02  0.18000253081E+03  0.00000000000E+00 0.  1.
</event>
<event>
12    1  0.9966151E-001  0.2039013E+03  0.7818608E-02  0.1146625E+00
         21   -1    0    0  501  502  0.00000000000E+00  0.00000000000E+00  0.94990541365E+02  0.94990541365E+02  0.00000000000E+00 0.  1.
         21   -1    0    0  502  503 -0.00000000000E+00 -0.00000000000E+00 -0.62504356111E+03  0.62504356111E+03  0.00000000000E+00 0.  1.
         -6    2    1    2    0  503 -0.91291734179E+02  0.59010854853E+02 -0.67474021344E+02  0.21477540676E+03  0.17250875361E+03 0.  0.
        -24    2    3    3    0    0 -0.43238614353E+02  0.10781462714E+03 -0.58959272096E+02  0.14559808772E+03  0.65031037075E+02 0.  0.
          6    2    1    2  501    0  0.91291734179E+02 -0.59010854853E+02 -0.46257899840E+03  0.50525869572E+03  0.17172815179E+03 0.  0.
         24    2    5    5    0    0  0.39111930098E+02  0.12274359191E+02 -0.35437149583E+03  0.36549007511E+03  0.79520028768E+02 0.  0.
          5    1    5    5  501    0  0.52179804081E+02 -0.71285214044E+02 -0.10820750257E+03  0.13976862061E+03  0.47000000000E+01 0. -1.
        -13    1    6    6    0    0  0.39026345116E+00  0.40403764587E+02 -0.13291659051E+03  0.13892241191E+03  0.00000000000E+00 0.  1.
         14    1    6    6    0    0  0.38721666647E+02 -0.28129405396E+02 -0.22145490532E+03  0.22656766320E+03  0.00000000000E+00 0. -1.
         -5    1    3    3    0  503 -0.48053119826E+02 -0.48803772290E+02 -0.85147492475E+01  0.69177319040E+02  0.47000000000E+01 0.  1.
         11    1    4    4    0    0 -0.52093198212E+02  0.45264315033E+02 -0.22130771166E+02  0.72472964255E+02  0.00000000000E+00 0. -1.
        -12    1    4    4    0    0  0.88545838593E+01  0.62550312110E+02 -0.36828500930E+02  0.73125123461E+02  0.00000000000E+00 0.  1.
</event>
<event>
12    1  0.9966151E-001  0.3019352E+03  0.7818608E-02  0.1084301E+00
         21   -1    0    0  503  502  0.00000000000E+00  0.00000000000E+00  0.12416685560E+04  0.12416685560E+04  0.00000000000E+00 0.  1.
         21   -1    0    0  501  503 -0.00000000000E+00 -0.00000000000E+00 -0.10524168494E+03  0.10524168494E+03  0.00000000000E+00 0.  1.
          6    2    1    2  501    0  0.80605008029E+02  0.23458794520E+03  0.93866986712E+03  0.98597710756E+03  0.17181695446E+03 0.  0.
         24    2    3    3    0    0  0.90251943297E+02  0.78150850390E+02  0.49805630781E+03  0.51829342531E+03  0.79467101917E+02 0.  0.
         -6    2    1    2    0  502 -0.80605008029E+02 -0.23458794520E+03  0.19775700399E+03  0.36093313343E+03  0.17215174361E+03 0.  0.
        -24    2    5    5    0    0 -0.62096943131E+02 -0.21659265650E+03  0.22001589195E+03  0.32652489350E+03  0.86273426799E+02 0.  0.
          5    1    3    3  501    0 -0.96469352676E+01  0.15643709481E+03  0.44061355931E+03  0.46768368225E+03  0.47000000000E+01 0. -1.
        -13    1    4    4    0    0  0.38083584480E+02  0.69436505110E+02  0.39033418916E+03  0.39828704081E+03  0.00000000000E+00 0.  1.
         14    1    4    4    0    0  0.52168358817E+02  0.87143452799E+01  0.10772211865E+03  0.12000638451E+03  0.00000000000E+00 0. -1.
         -5    1    5    5    0  502 -0.18508064898E+02 -0.17995288696E+02 -0.22258887959E+02  0.34408239924E+02  0.47000000000E+01 0.  1.
         13    1    6    6    0    0  0.32792133361E+01 -0.13291894107E+03  0.10061650595E+03  0.16673895587E+03  0.00000000000E+00 0. -1.
        -14    1    6    6    0    0 -0.65376156467E+02 -0.83673715431E+02  0.11939938600E+03  0.15978593763E+03  0.00000000000E+00 0.  1.
</event>
<event>
12    1  0.9966151E-001  0.2062502E+03  0.7818608E-02  0.1145837E+00
         21   -1    0    0  501  502  0.00000000000E+00  0.00000000000E+00  0.33402050508E+03  0.33402050508E+03  0.00000000000E+00 0. -1.
         21   -1    0    0  502  503 -0.00000000000E+00 -0.00000000000E+00 -0.13313298642E+03  0.13313298642E+03  0.00000000000E+00 0. -1.
         -6    2    1    2    0  503  0.89096110174E+02  0.52077741081E+02  0.16440243608E+03  0.26375617656E+03  0.17857477907E+03 0.  0.
        -24    2    3    3    0    0  0.89399146432E+02 -0.25944024344E+02  0.12705021468E+03  0.17712612315E+03  0.81034601677E+02 0.  0.
          6    2    1    2  501    0 -0.89096110174E+02 -0.52077741081E+02  0.36485082581E+02  0.20339731493E+03  0.17143248965E+03 0.  0.
         24    2    5    5    0    0  0.86757812478E+01 -0.41889026748E+02  0.49442045720E+02  0.10413440370E+03  0.81052442331E+02 0.  0.
          5    1    5    5  501    0 -0.97771891422E+02 -0.10188714333E+02 -0.12956963139E+02  0.99262911230E+02  0.47000000000E+01 0. -1.
        -11    1    6    6    0    0  0.40585611153E+01  0.64226962328E+01 -0.18867528622E+02  0.20339778305E+02  0.00000000000E+00 0.  1.
         12    1    6    6    0    0  0.46172201325E+01 -0.48311722981E+02  0.68309574341E+02  0.83794625399E+02  0.00000000000E+00 0. -1.
         -5    1    3    3    0  503 -0.30303625729E+00  0.78021765425E+02  0.37352221395E+02  0.86630053412E+02  0.47000000000E+01 0.  1.
         11    1    4    4    0    0 -0.12754818059E+02  0.87641262465E+01  0.17694408376E+02  0.23507177210E+02  0.00000000000E+00 0. -1.
        -12    1    4    4    0    0  0.10215396449E+03 -0.34708150590E+02  0.10935580631E+03  0.15361894594E+03  0.00000000000E+00 0.  1.
</event>
<event>
12    1  0.9966151E-001  0.2984243E+03  0.7818608E-02  0.1086118E+00
         21   -1    0    0  503  502  0.00000000000E+00  0.00000000000E+00  0.29347448341E+03  0.29347448341E+03  0.00000000000E+00 0.  1.
         21   -1    0    0  501  503 -0.00000000000E+00 -0.00000000000E+00 -0.35685201429E+03  0.35685201429E+03  0.00000000000E+00 0. -1.
          6    2    1    2  501    0 -0.99326295372E+02  0.22205369348E+03  0.94946847789E+02  0.31250450696E+03  0.17167005338E+03 0.  0.
         24    2    3    3    0    0 -0.12263660269E+03  0.21923018303E+03  0.60707093212E+02  0.27072181399E+03  0.80643288216E+02 0.  0.
         -6    2    1    2    0  502  0.99326295372E+02 -0.22205369348E+03 -0.15832437866E+03  0.33782199074E+03  0.17286854199E+03 0.  0.
        -24    2    5    5    0    0  0.20620653030E+02 -0.14306354133E+03 -0.15644123902E+03  0.22619915039E+03  0.76156458569E+02 0.  0.
          5    1    3    3  501    0  0.23310307313E+02  0.28235104447E+01  0.34239754577E+02  0.41782692969E+02  0.47000000000E+01 0. -1.
        -13    1    4    4    0    0 -0.10829328127E+03  0.12950449205E+03  0.62018207559E+02  0.17984745285E+03  0.00000000000E+00 0.  1.
         14    1    4    4    0    0 -0.14343321418E+02  0.89725690984E+02 -0.13111143476E+01  0.90874361141E+02  0.00000000000E+00 0. -1.
         -5    1    5    5    0  502  0.78705642342E+02 -0.78990152151E+02 -0.18831396441E+01  0.11162284035E+03  0.47000000000E+01 0.  1.
         13    1    6    6    0    0  0.21588439066E+02 -0.35806064142E+02 -0.92032881183E+02  0.10108504414E+03  0.00000000000E+00 0. -1.
        -14    1    6    6    0    0 -0.96778603604E+00 -0.10725747719E+03 -0.64408357833E+02  0.12511410624E+03  0.00000000000E+00 0.  1.
</event>
<event>
12    1  0.9966151E-001  0.2015069E+03  0.7818608E-02  0.1148602E+00
         21   -1    0    0  503  502  0.00000000000E+00  0.00000000000E+00  0.95197677486E+02  0.95197677486E+02  0.00000000000E+00 0.  1.
         21   -1    0    0  501  503 -0.00000000000E+00 -0.00000000000E+00 -0.42672292853E+03  0.42672292853E+03  0.00000000000E+00 0.  1.
          6    2    1    2  501    0  0.70562346188E+02  0.75243021016E+02 -0.15063036204E+03  0.25158408895E+03  0.17310254455E+03 0.  0.
         24    2    3    3    0    0  0.29654047016E+02 -0.25403397188E+02 -0.95261698790E+02  0.12955552955E+03  0.78645717536E+02 0.  0.
         -6    2    1    2    0  502 -0.70562346188E+02 -0.75243021016E+02 -0.18089488900E+03  0.27033651707E+03  0.17239000749E+03 0.  0.
        -24    2    5    5    0    0 -0.50506625338E+02 -0.10782130142E+03 -0.18248093386E+03  0.23175955722E+03  0.78973722815E+02 0.  0.
          5    1    3    3  501    0  0.40908299172E+02  0.10064641820E+03 -0.55368663254E+02  0.12202855940E+03  0.47000000000E+01 0. -1.
        -11    1    4    4    0    0 -0.69768337014E+01  0.13088167337E+02  0.53560671807E+01  0.15769076967E+02  0.00000000000E+00 0.  1.
         12    1    4    4    0    0  0.36630880717E+02 -0.38491564525E+02 -0.10061776597E+03  0.11378645258E+03  0.00000000000E+00 0. -1.
         -5    1    5    5    0  502 -0.20055720849E+02  0.32578280403E+02  0.15860448663E+01  0.38576959849E+02  0.47000000000E+01 0.  1.
         13    1    6    6    0    0 -0.46595320934E+02 -0.38347292450E+02 -0.37778813317E+02  0.71196049797E+02  0.00000000000E+00 0. -1.
        -14    1    6    6    0    0 -0.39113044048E+01 -0.69474008969E+02 -0.14470212055E+03  0.16056350742E+03  0.00000000000E+00 0.  1.
</event>
<event>
12    1  0.9966151E-001  0.3100194E+03  0.7818608E-02  0.1080493E+00
         21   -1    0    0  501  502  0.00000000000E+00  0.00000000000E+00  0.11418632492E+04  0.11418632492E+04  0.00000000000E+00 0. -1.
         21   -1    0    0  502  503 -0.00000000000E+00 -0.00000000000E+00 -0.10063188577E+03  0.10063188577E+03  0.00000000000E+00 0. -1.
         -6    2    1    2    0  503 -0.24947438105E+03  0.61232300988E+02  0.77363912608E+03  0.83296167563E+03  0.17123315737E+03 0.  0.
        -24    2    3    3    0    0 -0.14088911717E+03  0.94720369603E+02  0.38112247638E+03  0.42430091098E+03  0.77170132194E+02 0.  0.
          6    2    1    2  501    0  0.24947438105E+03 -0.61232300988E+02  0.26759223738E+03  0.40953345936E+03  0.17356608928E+03 0.  0.
         24    2    5    5    0    0  0.23411557667E+03 -0.95099856414E+02  0.25961119013E+03  0.37120995094E+03  0.80899763322E+02 0.  0.
          5    1    5    5  501    0  0.15358804378E+02  0.33867555426E+02  0.79810472467E+01  0.38323508420E+02  0.47000000000E+01 0. -1.
        -11    1    6    6    0    0  0.11351878313E+03 -0.89483123102E+02  0.13773979196E+03  0.19966470327E+03  0.00000000000E+00 0.  1.
         12    1    6    6    0    0  0.12059679354E+03 -0.56167333123E+01  0.12187139817E+03  0.17154524767E+03  0.00000000000E+00 0. -1.
         -5    1    3    3    0  503 -0.10858526388E+03 -0.33488068615E+02  0.39251664971E+03  0.40866076465E+03  0.47000000000E+01 0.  1.
         13    1    4    4    0    0 -0.10350913758E+02  0.35245521217E+02  0.40349099810E+02  0.54565905445E+02  0.00000000000E+00 0. -1.
        -14    1    4    4    0    0 -0.13053820341E+03  0.59474848386E+02  0.34077337657E+03  0.36973500553E+03  0.00000000000E+00 0.  1.
</event>
<event>
12    1  0.9966151E-001  0.2684124E+03  0.7818608E-02  0.1102349E+00
         21   -1    0    0  501  502  0.00000000000E+00  0.00000000000E+00  0.42070974337E+03  0.42070974337E+03  0.00000000000E+00 0. -1.
         21   -1    0    0  502  503 -0.00000000000E+00 -0.00000000000E+00 -0.17578639541E+03  0.17578639541E+03  0.00000000000E+00 0. -1.
         -6    2    1    2    0  503 -0.18429387474E+03 -0.90835540624E+02  0.71249937507E+02  0.27770807937E+03  0.17271333487E+03 0.  0.
        -24    2    3    3    0    0 -0.17877430725E+03 -0.53428524873E+02  0.10350102458E+03  0.22778841320E+03  0.79751105921E+02 0.  0.
          6    2    1    2  501    0  0.18429387474E+03  0.90835540624E+02  0.17367341046E+03  0.31878805941E+03  0.17102059997E+03 0.  0.
         24    2    5    5    0    0  0.17408516113E+03  0.82698571768E+02  0.19987275015E+03  0.28914141548E+03  0.80678031684E+02 0.  0.
          5    1    5    5  501    0  0.10208713615E+02  0.81369688564E+01 -0.26199339694E+02  0.29646643929E+02  0.47000000000E+01 0. -1.
        -11    1    6    6    0    0  0.36075624152E+02  0.82059990083E+01  0.90976769377E+02  0.98211820287E+02  0.00000000000E+00 0.  1.
         12    1    6    6    0    0  0.13800953698E+03  0.74492572760E+02  0.10889598077E+03  0.19092959519E+03  0.00000000000E+00 0. -1.
         -5    1    3    3    0  503 -0.55195674920E+01 -0.37407015751E+02 -0.32251087074E+02  0.49919666167E+02  0.47000000000E+01 0.  1.
         11    1    4    4    0    0 -0.51368377212E+02 -0.95028593540E+01  0.72742843589E+02  0.89557444172E+02  0.00000000000E+00 0. -1.
        -12    1    4    4    0    0 -0.12740593004E+03 -0.43925665519E+02  0.30758180992E+02  0.13823096903E+03  0.00000000000E+00 0.  1.
</event>
<event>
12    1  0.9966151E-001  0.1727548E+03  0.7818608E-02  0.1175323E+00
         21   -1    0    0  501  502  0.00000000000E+00  0.00000000000E+00  0.57441164685E+02  0.57441164685E+02  0.00000000000E+00 0.  1.
         21   -1    0    0  502  503 -0.00000000000E+00 -0.00000000000E+00 -0.70749766121E+03  0.70749766121E+03  0.00000000000E+00 0.  1.
         -6    2    1    2    0  503  0.34277214235E+01 -0.47016880213E+01 -0.12510637513E+03  0.21229349874E+03  0.17141490415E+03 0.  0.
        -24    2    3    3    0    0  0.33821135102E+02 -0.26647483029E+02 -0.13080313178E+02  0.94067841327E+02  0.82605730114E+02 0.  0.
          6    2    1    2  501    0 -0.34277214235E+01  0.47016880213E+01 -0.52495012139E+03  0.55264532716E+03  0.17265680563E+03 0.  0.
         24    2    5    5    0    0 -0.15169560020E+02 -0.63344518568E+02 -0.29440464097E+03  0.31193499179E+03  0.79916849905E+02 0.  0.
          5    1    5    5  501    0  0.11741838597E+02  0.68046206589E+02 -0.23054548043E+03  0.24071033536E+03  0.47000000000E+01 0. -1.
        -11    1    6    6    0    0  0.14763287103E+02 -0.58163515399E+02 -0.11242767388E+03  0.12743991143E+03  0.00000000000E+00 0.  1.
         12    1    6    6    0    0 -0.29932847123E+02 -0.51810031692E+01 -0.18197696708E+03  0.18449508037E+03  0.00000000000E+00 0. -1.
         -5    1    3    3    0  503 -0.30393413679E+02  0.21945795008E+02 -0.11202606195E+03  0.11822565741E+03  0.47000000000E+01 0.  1.
         13    1    4    4    0    0  0.48449151074E+02 -0.35835058220E+02 -0.32179814909E+02  0.68315533556E+02  0.00000000000E+00 0. -1.
        -14    1    4    4    0    0 -0.14628015972E+02  0.91875751909E+01  0.19099501732E+02  0.25752307771E+02  0.00000000000E+00 0.  1.
</event>
<event>
12    1  0.9966151E-001  0.2642401E+03  0.7818608E-02  0.1104660E+00
         21   -1    0    0  503  502  0.00000000000E+00  0.00000000000E+00  0.78942604095E+02  0.78942604095E+02  0.00000000000E+00 0. -1.
         21   -1    0    0  501  503 -0.00000000000E+00 -0.00000000000E+00 -0.11547318939E+04  0.11547318939E+04  0.00000000000E+00 0. -1.
          6    2    1    2  501    0 -0.19080570944E+03  0.59345831824E+02 -0.23920892539E+03  0.35643196729E+03  0.17289907696E+03 0.  0.
         24    2    3    3    0    0 -0.21029417129E+03  0.36320585984E+02 -0.23236472071E+03  0.32514466589E+03  0.78631208095E+02 0.  0.
         -6    2    1    2    0  502  0.19080570944E+03 -0.59345831824E+02 -0.83658036438E+03  0.87724253067E+03  0.17250798542E+03 0.  0.
        -24    2    5    5    0    0  0.20699465950E+03 -0.22108835860E+02 -0.70318988502E+03  0.73772985756E+03  0.80210589442E+02 0.  0.
          5    1    3    3  501    0  0.19488461848E+02  0.23025245840E+02 -0.68442046830E+01  0.31287301401E+02  0.47000000000E+01 0. -1.
        -11    1    4    4    0    0 -0.95634759296E+02  0.43481697062E+02 -0.69976001974E+02  0.12622719999E+03  0.00000000000E+00 0.  1.
         12    1    4    4    0    0 -0.11465941199E+03 -0.71611110782E+01 -0.16238871873E+03  0.19891746590E+03  0.00000000000E+00 0. -1.
         -5    1    5    5    0  502 -0.16188950066E+02 -0.37236995964E+02 -0.13339047936E+03  0.13951267311E+03  0.47000000000E+01 0.  1.
         13    1    6    6    0    0  0.30268950863E+02  0.13068148930E+02 -0.48137525345E+02  0.58345584658E+02  0.00000000000E+00 0. -1.
        -14    1    6    6    0    0  0.17672570864E+03 -0.35176984790E+02 -0.65505235968E+03  0.67938427290E+03  0.00000000000E+00 0.  1.
</event>
<event>
12    1  0.9966151E-001  0.6063438E+03  0.7818608E-02  0.9892441E-01
         21   -1    0    0  503  502  0.00000000000E+00  0.00000000000E+00  0.33798150432E+03  0.33798150432E+03  0.00000000000E+00 0.  1.
         21   -1    0    0  501  503 -0.00000000000E+00 -0.00000000000E+00 -0.24951817200E+04  0.24951817200E+04  0.00000000000E+00 0. -1.
          6    2    1    2  501    0  0.20052720697E+03  0.54557488230E+03 -0.21427220448E+04  0.22268611435E+04  0.17259686556E+03 0.  0.
         24    2    3    3    0    0  0.63115279250E+02  0.17304332722E+03 -0.89098792229E+03  0.91365049742E+03  0.83487856518E+02 0.  0.
         -6    2    1    2    0  502 -0.20052720697E+03 -0.54557488230E+03 -0.14478170842E+02  0.60630208083E+03  0.17184144687E+03 0.  0.
        -24    2    5    5    0    0 -0.70907268568E+02 -0.12105243100E+03 -0.48380735020E+01  0.16230246195E+03  0.81468708193E+02 0.  0.
          5    1    3    3  501    0  0.13741192772E+03  0.37253155507E+03 -0.12517341225E+04  0.13132106461E+04  0.47000000000E+01 0. -1.
        -13    1    4    4    0    0  0.53857012240E+01  0.10068879588E+03 -0.32946618684E+03  0.34455073308E+03  0.00000000000E+00 0.  1.
         14    1    4    4    0    0  0.57729578026E+02  0.72354531346E+02 -0.56152173545E+03  0.56909976434E+03  0.00000000000E+00 0. -1.
         -5    1    5    5    0  502 -0.12961993840E+03 -0.42452245130E+03 -0.96400973397E+01  0.44399961888E+03  0.47000000000E+01 0.  1.
         13    1    6    6    0    0  0.16366629906E+02 -0.22763897048E+02 -0.12367934821E+02  0.30643553890E+02  0.00000000000E+00 0. -1.
        -14    1    6    6    0    0 -0.87273898474E+02 -0.98288533951E+02  0.75298613186E+01  0.13165890806E+03  0.00000000000E+00 0.  1.
</event>
<event>
12    1  0.9966151E-001  0.1848482E+03  0.7818608E-02  0.1164221E+00
         21   -1    0    0  501  502  0.00000000000E+00  0.00000000000E+00  0.25553591731E+03  0.25553591731E+03  0.00000000000E+00 0. -1.
         21   -1    0    0  502  503 -0.00000000000E+00 -0.00000000000E+00 -0.91673562037E+03  0.91673562037E+03  0.00000000000E+00 0. -1.
         -6    2    1    2    0  503  0.57311539041E+02 -0.39757741292E+02  0.21274102879E+03  0.27899595250E+03  0.16647734284E+03 0.  0.
        -24    2    3    3    0    0  0.96130894232E+02 -0.55285060982E+02  0.17815337331E+03  0.22453095543E+03  0.79861998032E+02 0.  0.
          6    2    1    2  501    0 -0.57311539041E+02  0.39757741292E+02 -0.87394073186E+03  0.89327558518E+03  0.17118287818E+03 0.  0.
         24    2    5    5    0    0 -0.10484541315E+03  0.14691999506E+02 -0.63610220129E+03  0.64939648149E+03  0.76690052586E+02 0.  0.
          5    1    5    5  501    0  0.47533874108E+02  0.25065741786E+02 -0.23783853056E+03  0.24387910370E+03  0.47000000000E+01 0. -1.
        -11    1    6    6    0    0 -0.88070973817E+02 -0.26537095995E+01 -0.30653474263E+03  0.31894684046E+03  0.00000000000E+00 0.  1.
         12    1    6    6    0    0 -0.16774439332E+02  0.17345709105E+02 -0.32956745867E+03  0.33044964102E+03  0.00000000000E+00 0. -1.
         -5    1    3    3    0  503 -0.38819355191E+02  0.15527319690E+02  0.34587655477E+02  0.54464997068E+02  0.47000000000E+01 0.  1.
         11    1    4    4    0    0  0.90897021944E+02 -0.58607132374E+02  0.18561785640E+03  0.21482796181E+03  0.00000000000E+00 0. -1.
        -12    1    4    4    0    0  0.52338722878E+01  0.33220713920E+01 -0.74644830822E+01  0.97029936176E+01  0.00000000000E+00 0.  1.
</event>
<event>
12    1  0.1290870E+000  0.5467851E+03  0.7818608E-02  0.1002260E+00
         21   -1    0    0  501  502  0.00000000000E+00  0.00000000000E+00  0.69120667341E+03  0.69120667341E+03  0.00000000000E+00 0. -1.
         21   -1    0    0  502  503 -0.00000000000E+00 -0.00000000000E+00 -0.72385776714E+03  0.72385776714E+03  0.00000000000E+00 0. -1.
         -6    2    1    2    0  503  0.45550251373E+03  0.24860839163E+03  0.43273201610E+03  0.69704257499E+03  0.17123866732E+03 0.  0.
        -24    2    3    3    0    0  0.11917861076E+03  0.82921023560E+02  0.88374624143E+02  0.18795498425E+03  0.80234434637E+02 0.  0.
          6    2    1    2  501    0 -0.45550251373E+03 -0.24860839163E+03 -0.46538310983E+03  0.71802186556E+03  0.17229419059E+03 0.  0.
         24    2    5    5    0    0 -0.12039643750E+03 -0.11883418685E+03 -0.15316954132E+03  0.24195797394E+03  0.80410737068E+02 0.  0.
          5    1    5    5  501    0 -0.33510607623E+03 -0.12977420478E+03 -0.31221356851E+03  0.47606389163E+03  0.47000000000E+01 0. -1.
        -13    1    6    6    0    0 -0.11223097899E+03 -0.62381044200E+02 -0.12120110532E+03  0.17656980277E+03  0.00000000000E+00 0.  1.
         14    1    6    6    0    0 -0.81654585145E+01 -0.56453142654E+02 -0.31968436001E+02  0.65388171167E+02  0.00000000000E+00 0. -1.
         -5    1    3    3    0  503  0.33632390297E+03  0.16568736807E+03  0.34435739195E+03  0.50908759074E+03  0.47000000000E+01 0.  1.
         11    1    4    4    0    0  0.14477696765E+02  0.54153711741E+02  0.41205636799E+02  0.69571062252E+02  0.00000000000E+00 0. -1.
        -12    1    4    4    0    0  0.10470091400E+03  0.28767311820E+02  0.47168987344E+02  0.11838392200E+03  0.00000000000E+00 0.  1.
</event>
<event>
12    1  0.9966151E-001  0.1722839E+03  0.7818608E-02  0.1177078E+00
         21   -1    0    0  503  502  0.00000000000E+00  0.00000000000E+00  0.10909672420E+03  0.10909672420E+03  0.00000000000E+00 0. -1.
         21   -1    0    0  501  503 -0.00000000000E+00 -0.00000000000E+00 -0.26448465431E+03  0.26448465431E+03  0.00000000000E+00 0. -1.
          6    2    1    2  501    0  0.22035990089E+02 -0.12728216987E+02 -0.63048515305E+02  0.18345803966E+03  0.17039408636E+03 0.  0.
         24    2    3    3    0    0  0.33195065701E+02  0.55225315269E+02 -0.28746067448E+02  0.10638044601E+03  0.79616047791E+02 0.  0.
         -6    2    1    2    0  502 -0.22035990089E+02  0.12728216987E+02 -0.92339414803E+02  0.19012333885E+03  0.16423374830E+03 0.  0.
        -24    2    5    5    0    0  0.39260456073E+02 -0.10795812589E+02 -0.86119803573E+02  0.12400671580E+03  0.79392140764E+02 0.  0.
          5    1    3    3  501    0 -0.11159075612E+02 -0.67953532255E+02 -0.34302447857E+02  0.77077593654E+02  0.47000000000E+01 0. -1.
        -11    1    4    4    0    0 -0.23541330578E+02  0.14390533818E+01 -0.11856289984E+02  0.26397665279E+02  0.00000000000E+00 0.  1.
         12    1    4    4    0    0  0.56736396279E+02  0.53786261887E+02 -0.16889777463E+02  0.79982780730E+02  0.00000000000E+00 0. -1.
         -5    1    5    5    0  502 -0.61296446163E+02  0.23524029575E+02 -0.62196112299E+01  0.66116623050E+02  0.47000000000E+01 0.  1.
         13    1    6    6    0    0  0.11358130996E+02  0.28987097409E+02 -0.62832049189E+02  0.70122217315E+02  0.00000000000E+00 0. -1.
        -14    1    6    6    0    0  0.27902325078E+02 -0.39782909997E+02 -0.23287754385E+02  0.53884498484E+02  0.00000000000E+00 0.  1.
</event>
<event>
12    1  0.9966151E-001  0.2981811E+03  0.7818608E-02  0.1086393E+00
         21   -1    0    0  501  502  0.00000000000E+00  0.00000000000E+00  0.24727834085E+03  0.24727834085E+03  0.00000000000E+00 0.  1.
         21   -1    0    0  502  503 -0.00000000000E+00 -0.00000000000E+00 -0.44041346406E+03  0.44041346406E+03  0.00000000000E+00 0.  1.
         -6    2    1    2    0  503  0.14646649047E+03 -0.19360850335E+03 -0.24570937913E+03  0.38491131087E+03  0.16984384840E+03 0.  0.
        -24    2    3    3    0    0  0.33472410710E+01 -0.67426120990E+02 -0.10314017273E+03  0.14668204780E+03  0.79499950322E+02 0.  0.
          6    2    1    2  501    0 -0.14646649047E+03  0.19360850335E+03  0.52574255916E+02  0.30278049405E+03  0.17313373383E+03 0.  0.
         24    2    5    5    0    0 -0.82104469858E+02  0.24028177949E+02  0.12491182302E+02  0.11696149811E+03  0.78774774510E+02 0.  0.
          5    1    5    5  501    0 -0.64362020615E+02  0.16958032540E+03  0.40083073614E+02  0.18581899593E+03  0.47000000000E+01 0. -1.
        -11    1    6    6    0    0 -0.25242057866E+01 -0.17552537998E+02  0.20156084000E+02  0.26846432300E+02  0.00000000000E+00 0.  1.
         12    1    6    6    0    0 -0.79580264071E+02  0.41580715947E+02 -0.76649016979E+01  0.90115065812E+02  0.00000000000E+00 0. -1.
         -5    1    3    3    0  503  0.14311924940E+03 -0.12618238236E+03 -0.14256920640E+03  0.23822926306E+03  0.47000000000E+01 0.  1.
         13    1    4    4    0    0 -0.81023941381E+01 -0.72299799496E+02 -0.41413816575E+02  0.83713881772E+02  0.00000000000E+00 0. -1.
        -14    1    4    4    0    0  0.11449635209E+02  0.48736785063E+01 -0.61726356158E+02  0.62968166030E+02  0.00000000000E+00 0.  1.
</event>
<event>
12    1  0.9966151E-001  0.1995329E+03  0.7818608E-02  0.1150267E+00
         21   -1    0    0  501  502  0.00000000000E+00  0.00000000000E+00  0.13847693863E+04  0.13847693863E+04  0.00000000000E+00 0. -1.
         21   -1    0    0  502  503 -0.00000000000E+00 -0.00000000000E+00 -0.35230035393E+02  0.35230035393E+02  0.00000000000E+00 0. -1.
         -6    2    1    2    0  503  0.92724217474E+02  0.41721729186E+02  0.98050237121E+03  0.10004738803E+04  0.17095204610E+03 0.  0.
        -24    2    3    3    0    0  0.10107096477E+03 -0.19543836317E+02  0.51706365475E+03  0.53290498527E+03  0.77689116373E+02 0.  0.
          6    2    1    2  501    0 -0.92724217474E+02 -0.41721729186E+02  0.36903697971E+03  0.41952554138E+03  0.17168256839E+03 0.  0.
         24    2    5    5    0    0 -0.95570056745E+02  0.28884387122E+02  0.21154218053E+03  0.24684078748E+03  0.78818377654E+02 0.  0.
          5    1    5    5  501    0  0.28458392710E+01 -0.70606116308E+02  0.15749479917E+03  0.17268475390E+03  0.47000000000E+01 0. -1.
        -13    1    6    6    0    0 -0.84702209437E+02 -0.50243148863E+01  0.18110603951E+03  0.19999776391E+03  0.00000000000E+00 0.  1.
         14    1    6    6    0    0 -0.10867847308E+02  0.33908702008E+02  0.30436141026E+02  0.46843023574E+02  0.00000000000E+00 0. -1.
         -5    1    3    3    0  503 -0.83467472984E+01  0.61265565504E+02  0.46343871645E+03  0.46756889505E+03  0.47000000000E+01 0.  1.
         13    1    4    4    0    0  0.47052446859E+01 -0.26595305530E+02  0.60898563526E+02  0.66618951082E+02  0.00000000000E+00 0. -1.
        -14    1    4    4    0    0  0.96365720086E+02  0.70514692123E+01  0.45616509123E+03  0.46628603419E+03  0.00000000000E+00 0.  1.
</event>
<event>
12    1  0.9966151E-001  0.3886517E+03  0.7818608E-02  0.1047800E+00
         21   -1    0    0  503  502  0.00000000000E+00  0.00000000000E+00  0.16303945115E+03  0.16303945115E+03  0.00000000000E+00 0. -1.
         21   -1    0    0  501  503 -0.00000000000E+00 -0.00000000000E+00 -0.10365226085E+04  0.10365226085E+04  0.00000000000E+00 0. -1.
          6    2    1    2  501    0 -0.33654183276E+03  0.90291801059E+02 -0.24097433189E+03  0.45729508596E+03  0.17215444367E+03 0.  0.
         24    2    3    3    0    0 -0.34588362864E+03  0.64735915554E+02 -0.21968595663E+03  0.42242880777E+03  0.79736784294E+02 0.  0.
         -6    2    1    2    0  502  0.33654183276E+03 -0.90291801059E+02 -0.63250882544E+03  0.74226697367E+03  0.17169691728E+03 0.  0.
        -24    2    5    5    0    0  0.19906406122E+03  0.15951155624E+02 -0.34897076833E+03  0.40969574319E+03  0.78670610805E+02 0.  0.
          5    1    3    3  501    0  0.93417958709E+01  0.25555885505E+02 -0.21288375256E+02  0.34866278194E+02  0.47000000000E+01 0. -1.
        -11    1    4    4    0    0 -0.23950036485E+03  0.66281930959E+02 -0.11739307280E+03  0.27483604690E+03  0.00000000000E+00 0.  1.
         12    1    4    4    0    0 -0.10638326378E+03 -0.15460154050E+01 -0.10229288383E+03  0.14759276087E+03  0.00000000000E+00 0. -1.
         -5    1    5    5    0  502  0.13747777154E+03 -0.10624295668E+03 -0.28353805712E+03  0.33257123049E+03  0.47000000000E+01 0.  1.
         13    1    6    6    0    0 -0.46664668133E+01  0.93812581972E+01 -0.12645383416E+02  0.16422230044E+02  0.00000000000E+00 0. -1.
        -14    1    6    6    0    0  0.20373052803E+03  0.65698974267E+01 -0.33632538491E+03  0.39327351315E+03  0.00000000000E+00 0.  1.
</event>
<event>
12    1  0.9966151E-001  0.3487296E+03  0.7818608E-02  0.1063283E+00
         21   -1    0    0  501  502  0.00000000000E+00  0.00000000000E+00  0.55338115643E+02  0.55338115643E+02  0.00000000000E+00 0.  1.
         21   -1    0    0  502  503 -0.00000000000E+00 -0.00000000000E+00 -0.22627660068E+04  0.22627660068E+04  0.00000000000E+00 0.  1.
         -6    2    1    2    0  503  0.11822054804E+03 -0.27996472556E+03 -0.89628114961E+03  0.96173398743E+03  0.17104390633E+03 0.  0.
        -24    2    3    3    0    0  0.44181296098E+02 -0.22950192659E+03 -0.75330099700E+03  0.79293316116E+03  0.81593411227E+02 0.  0.
          6    2    1    2  501    0 -0.11822054804E+03  0.27996472556E+03 -0.13111467415E+04  0.13563701350E+04  0.16816010156E+03 0.  0.
         24    2    5    5    0    0 -0.14356546862E+03  0.17980458489E+03 -0.95859354119E+03  0.98895991760E+03  0.78736325046E+02 0.  0.
          5    1    5    5  501    0  0.25344920581E+02  0.10016014067E+03 -0.35255320036E+03  0.36741021741E+03  0.47000000000E+01 0. -1.
        -13    1    6    6    0    0 -0.38821661393E+02  0.10945426653E+02 -0.24146677734E+03  0.24481243497E+03  0.00000000000E+00 0.  1.
         14    1    6    6    0    0 -0.10474380723E+03  0.16885915823E+03 -0.71712676385E+03  0.74414748263E+03  0.00000000000E+00 0. -1.
         -5    1    3    3    0  503  0.74039251945E+02 -0.50462798963E+02 -0.14298015261E+03  0.16880082627E+03  0.47000000000E+01 0.  1.
         11    1    4    4    0    0 -0.15789786208E+02 -0.88793780368E+02 -0.21080317383E+03  0.22928504286E+03  0.00000000000E+00 0. -1.
        -12    1    4    4    0    0  0.59971082307E+02 -0.14070814623E+03 -0.54249782317E+03  0.56364811830E+03  0.00000000000E+00 0.  1.
</event>
<event>
12    1  0.9966151E-001  0.2260236E+03  0.7818608E-02  0.1129599E+00
         21   -1    0    0  501  502  0.00000000000E+00  0.00000000000E+00  0.14006921921E+03  0.14006921921E+03  0.00000000000E+00 0. -1.
         21   -1    0    0  502  503 -0.00000000000E+00 -0.00000000000E+00 -0.36359513416E+03  0.36359513416E+03  0.00000000000E+00 0. -1.
         -6    2    1    2    0  503 -0.86332670736E+02 -0.11727063168E+03 -0.11001894158E+03  0.25137782898E+03  0.17286096813E+03 0.  0.
        -24    2    3    3    0    0 -0.77400694891E+02 -0.45424841209E+01 -0.46116754622E+02  0.12140477430E+03  0.81245691785E+02 0.  0.
          6    2    1    2  501    0  0.86332670736E+02  0.11727063168E+03 -0.11350697337E+03  0.25228652440E+03  0.17192709589E+03 0.  0.
         24    2    5    5    0    0  0.10761569693E+03  0.12749551300E+03 -0.58563775485E+02  0.19230018932E+03  0.75587055470E+02 0.  0.
          5    1    5    5  501    0 -0.21283026195E+02 -0.10224881320E+02 -0.54943197884E+02  0.59986335075E+02  0.47000000000E+01 0. -1.
        -13    1    6    6    0    0  0.27010414896E+01  0.19101625617E+02 -0.34518899146E+02  0.39543926519E+02  0.00000000000E+00 0.  1.
         14    1    6    6    0    0  0.10491465544E+03  0.10839388738E+03 -0.24044876339E+02  0.15275626280E+03  0.00000000000E+00 0. -1.
         -5    1    3    3    0  503 -0.89319758457E+01 -0.11272814756E+03 -0.63902186962E+02  0.12997305468E+03  0.47000000000E+01 0.  1.
         13    1    4    4    0    0 -0.56238294464E+01 -0.70906031511E+01 -0.48702438099E+02  0.49536164441E+02  0.00000000000E+00 0. -1.
        -14    1    4    4    0    0 -0.71776865444E+02  0.25481190302E+01  0.25856834771E+01  0.71868609856E+02  0.00000000000E+00 0.  1.
</event>
<event>
12    1  0.9966151E-001  0.2479762E+03  0.7818608E-02  0.1114616E+00
         21   -1    0    0  503  502  0.00000000000E+00  0.00000000000E+00  0.10229890439E+03  0.10229890439E+03  0.00000000000E+00 0. -1.
         21   -1    0    0  501  503 -0.00000000000E+00 -0.00000000000E+00 -0.63913192305E+03  0.63913192305E+03  0.00000000000E+00 0. -1.
          6    2    1    2  501    0 -0.87208415891E+02  0.15595964922E+03 -0.17745540379E+03  0.30480229806E+03  0.17171284337E+03 0.  0.
         24    2    3    3    0    0 -0.10384781853E+03  0.79319059887E+02 -0.16613455118E+03  0.22542408091E+03  0.78354607291E+02 0.  0.
         -6    2    1    2    0  502  0.87208415891E+02 -0.15595964922E+03 -0.35937761486E+03  0.43662852938E+03  0.17194034610E+03 0.  0.
        -24    2    5    5    0    0  0.78870231191E+02 -0.10980921133E+03 -0.35646438798E+03  0.38940602275E+03  0.79319697396E+02 0.  0.
          5    1    3    3  501    0  0.16639402638E+02  0.76640589338E+02 -0.11320852613E+02  0.79378217151E+02  0.47000000000E+01 0. -1.
        -11    1    4    4    0    0 -0.22666550256E+02  0.63052014802E+02 -0.54106020325E+02  0.86120790210E+02  0.00000000000E+00 0.  1.
         12    1    4    4    0    0 -0.81181268273E+02  0.16267045085E+02 -0.11202853085E+03  0.13930329070E+03  0.00000000000E+00 0. -1.
         -5    1    5    5    0  502  0.83381846999E+01 -0.46150437890E+02 -0.29132268833E+01  0.47222506630E+02  0.47000000000E+01 0.  1.
         11    1    6    6    0    0  0.90953582424E+02 -0.83699267308E+02 -0.31942102276E+03  0.34250242523E+03  0.00000000000E+00 0. -1.
        -12    1    6    6    0    0 -0.12083351233E+02 -0.26109944027E+02 -0.37043365217E+02  0.46903597524E+02  0.00000000000E+00 0.  1.
</event>
<event>
12    1  0.9966151E-001  0.1953517E+03  0.7818608E-02  0.1153756E+00
         21   -1    0    0  503  502  0.00000000000E+00  0.00000000000E+00  0.38772521266E+02  0.38772521266E+02  0.00000000000E+00 0.  1.
         21   -1    0    0  501  503 -0.00000000000E+00 -0.00000000000E+00 -0.99306966530E+03  0.99306966530E+03  0.00000000000E+00 0.  1.
          6    2    1    2  501    0 -0.83058453124E+02  0.41059775725E+02 -0.52773476721E+03  0.56267511648E+03  0.17179840036E+03 0.  0.
         24    2    3    3    0    0  0.14977579203E+02  0.18320528374E+01 -0.17348915084E+03  0.19299697999E+03  0.83196541585E+02 0.  0.
         -6    2    1    2    0  502  0.83058453124E+02 -0.41059775725E+02 -0.42656237682E+03  0.46916707008E+03  0.17198158771E+03 0.  0.
        -24    2    5    5    0    0  0.99917110605E+01 -0.47759563295E+02 -0.11154862115E+03  0.14568694363E+03  0.80004877895E+02 0.  0.
          5    1    3    3  501    0 -0.98036032327E+02  0.39227722888E+02 -0.35424561637E+03  0.36967813649E+03  0.47000000000E+01 0. -1.
        -11    1    4    4    0    0  0.65597967359E+01 -0.46057153048E+01  0.79261520167E+01  0.11272419105E+02  0.00000000000E+00 0.  1.
         12    1    4    4    0    0  0.84177824674E+01  0.64377681422E+01 -0.18141530286E+03  0.18172456089E+03  0.00000000000E+00 0. -1.
         -5    1    5    5    0  502  0.73066742063E+02  0.66997875696E+01 -0.31501375567E+03  0.32348012645E+03  0.47000000000E+01 0.  1.
         13    1    6    6    0    0  0.35185763487E+02 -0.53990631686E+02 -0.95376897669E+02  0.11510768380E+03  0.00000000000E+00 0. -1.
        -14    1    6    6    0    0 -0.25194052426E+02  0.62310683911E+01 -0.16171723481E+02  0.30579259822E+02  0.00000000000E+00 0.  1.
</event>
<event>
12    1  0.9966151E-001  0.1854782E+03  0.7818608E-02  0.1164202E+00
         21   -1    0    0  503  502  0.00000000000E+00  0.00000000000E+00  0.37930843069E+03  0.37930843069E+03  0.00000000000E+00 0.  1.
         21   -1    0    0  501  503 -0.00000000000E+00 -0.00000000000E+00 -0.10485398229E+03  0.10485398229E+03  0.00000000000E+00 0.  1.
          6    2    1    2  501    0 -0.11254625911E+02 -0.46811855373E+02  0.40684839207E+02  0.18988787518E+03  0.17912044158E+03 0.  0.
         24    2    3    3    0    0  0.11807940055E+02  0.22144650308E+02 -0.32385747211E+02  0.86697360969E+02  0.76405384568E+02 0.  0.
         -6    2    1    2    0  502  0.11254625911E+02  0.46811855373E+02  0.23376960919E+03  0.29427453780E+03  0.17213732021E+03 0.  0.
        -24    2    5    5    0    0  0.54842963365E+02  0.33177703584E+01  0.71656206682E+02  0.12079680474E+03  0.80240250807E+02 0.  0.
          5    1    3    3  501    0 -0.23062565965E+02 -0.68956505680E+02  0.73070586418E+02  0.10319051422E+03  0.47000000000E+01 0. -1.
        -13    1    4    4    0    0 -0.78549168037E+01  0.40144672704E+02  0.45373384978E+01  0.41156796586E+02  0.00000000000E+00 0.  1.
         14    1    4    4    0    0  0.19662856858E+02 -0.18000022397E+02 -0.36923085709E+02  0.45540564384E+02  0.00000000000E+00 0. -1.
         -5    1    5    5    0  502 -0.43588337455E+02  0.43494085015E+02  0.16211340251E+03  0.17347773306E+03  0.47000000000E+01 0.  1.
         13    1    6    6    0    0  0.24103693293E+02  0.35203365073E+02  0.82517354661E+01  0.43455219261E+02  0.00000000000E+00 0. -1.
        -14    1    6    6    0    0  0.30739270073E+02 -0.31885594715E+02  0.63404471215E+02  0.77341585483E+02  0.00000000000E+00 0.  1.
</event>
<event>
12    1  0.9966151E-001  0.2025656E+03  0.7818608E-02  0.1147780E+00
         21   -1    0    0  503  502  0.00000000000E+00  0.00000000000E+00  0.25228680731E+04  0.25228680731E+04  0.00000000000E+00 0. -1.
         21   -1    0    0  501  503 -0.00000000000E+00 -0.00000000000E+00 -0.20267539957E+02  0.20267539957E+02  0.00000000000E+00 0. -1.
          6    2    1    2  501    0 -0.10100658185E+03  0.31321003995E+02  0.18192682490E+04  0.18304113887E+04  0.17171358465E+03 0.  0.
         24    2    3    3    0    0 -0.41411411874E+02  0.63645389192E+02  0.67767250190E+03  0.68679458662E+03  0.81738263920E+02 0.  0.
         -6    2    1    2    0  502  0.10100658185E+03 -0.31321003995E+02  0.68333228414E+03  0.71272422437E+03  0.17277000487E+03 0.  0.
        -24    2    5    5    0    0  0.86627134004E+02 -0.44415802977E+02  0.26050286059E+03  0.28942166862E+03  0.80163195995E+02 0.  0.
          5    1    3    3  501    0 -0.59595169979E+02 -0.32324385196E+02  0.11415957471E+04  0.11436168021E+04  0.47000000000E+01 0. -1.
        -13    1    4    4    0    0  0.10395763027E+02  0.44096937355E+02  0.45859901630E+03  0.46083149798E+03  0.00000000000E+00 0.  1.
         14    1    4    4    0    0 -0.51807174901E+02  0.19548451836E+02  0.21907348559E+03  0.22596308865E+03  0.00000000000E+00 0. -1.
         -5    1    5    5    0  502  0.14379447849E+02  0.13094798981E+02  0.42282942355E+03  0.42330255574E+03  0.47000000000E+01 0.  1.
         13    1    6    6    0    0  0.85824336136E+02 -0.14761665920E+02  0.23386242926E+03  0.24955031411E+03  0.00000000000E+00 0. -1.
        -14    1    6    6    0    0  0.80279786762E+00 -0.29654137056E+02  0.26640431331E+02  0.39871354510E+02  0.00000000000E+00 0.  1.
</event>
<event>
12    1  0.9966151E-001  0.2430759E+03  0.7818608E-02  0.1118274E+00
         21   -1    0    0  501  502  0.00000000000E+00  0.00000000000E+00  0.43771243159E+02  0.43771243159E+02  0.00000000000E+00 0. -1.
         21   -1    0    0  502  503 -0.00000000000E+00 -0.00000000000E+00 -0.15961449327E+04  0.15961449327E+04  0.00000000000E+00 0. -1.
         -6    2    1    2    0  503  0.57275792777E+02  0.16145001581E+03 -0.44722306931E+03  0.50901313585E+03  0.17245078920E+03 0.  0.
        -24    2    3    3    0    0  0.48248747121E+02  0.13344378406E+03 -0.45044200184E+03  0.47904168115E+03  0.80297883876E+02 0.  0.
          6    2    1    2  501    0 -0.57275792777E+02 -0.16145001581E+03 -0.11051506203E+04  0.11309030401E+04  0.16803918733E+03 0.  0.
         24    2    5    5    0    0 -0.66392512750E+02 -0.99006044268E+02 -0.44727522020E+03  0.46999117287E+03  0.81402809672E+02 0.  0.
          5    1    5    5  501    0  0.91167199733E+01 -0.62443971537E+02 -0.65787540007E+03  0.66091186719E+03  0.47000000000E+01 0. -1.
        -13    1    6    6    0    0 -0.56098868734E+02 -0.39837702912E+02 -0.34143700157E+03  0.34830066277E+03  0.00000000000E+00 0.  1.
         14    1    6    6    0    0 -0.10293644016E+02 -0.59168341356E+02 -0.10583821864E+03  0.12169051011E+03  0.00000000000E+00 0. -1.
         -5    1    3    3    0  503  0.90270456552E+01  0.28006231747E+02  0.32189325279E+01  0.29971454695E+02  0.47000000000E+01 0.  1.
         13    1    4    4    0    0  0.25971765943E+02  0.21911822863E+01 -0.11983524969E+03  0.12263694784E+03  0.00000000000E+00 0. -1.
        -14    1    4    4    0    0  0.22276981179E+02  0.13125260177E+03 -0.33060675215E+03  0.35640473332E+03  0.00000000000E+00 0.  1.
</event>
<event>
12    1  0.9966151E-001  0.2102606E+03  0.7818608E-02  0.1142572E+00
         21   -1    0    0  503  502  0.00000000000E+00  0.00000000000E+00  0.20620361057E+04  0.20620361057E+04  0.00000000000E+00 0. -1.
         21   -1    0    0  501  503 -0.00000000000E+00 -0.00000000000E+00 -0.24797588725E+02  0.24797588725E+02  0.00000000000E+00 0. -1.
          6    2    1    2  501    0 -0.66703016282E+02 -0.94326577213E+02  0.14484780078E+04  0.14636591295E+04  0.17567786645E+03 0.  0.
         24    2    3    3    0    0 -0.51075939922E+02 -0.11174373814E+03  0.14149755905E+04  0.14225244121E+04  0.79525886790E+02 0.  0.
         -6    2    1    2    0  502  0.66703016282E+02  0.94326577213E+02  0.58876050921E+03  0.62317456495E+03  0.16840666747E+03 0.  0.
        -24    2    5    5    0    0  0.34796014796E+02  0.35685423857E+02  0.18164183487E+03  0.21059178949E+03  0.94185633217E+02 0.  0.
          5    1    3    3  501    0 -0.15627076360E+02  0.17417160929E+02  0.33502417266E+02  0.41134717370E+02  0.47000000000E+01 0. -1.
        -11    1    4    4    0    0  0.17608141195E+02 -0.11253865921E+02  0.34833020963E+03  0.34895648880E+03  0.00000000000E+00 0.  1.
         12    1    4    4    0    0 -0.68684081117E+02 -0.10048987222E+03  0.10666453809E+04  0.10735679233E+04  0.00000000000E+00 0. -1.
         -5    1    5    5    0  502  0.31907001486E+02  0.58641153357E+02  0.40711867434E+03  0.41258277546E+03  0.47000000000E+01 0.  1.
         11    1    6    6    0    0  0.66110059288E+02  0.31037991503E+02  0.10736850915E+03  0.12985335426E+03  0.00000000000E+00 0. -1.
        -12    1    6    6    0    0 -0.31314044492E+02  0.46474323534E+01  0.74273325723E+02  0.80738435233E+02  0.00000000000E+00 0.  1.
</event>
<event>
12    1  0.9966151E-001  0.1903404E+03  0.7818608E-02  0.1158544E+00
         21   -1    0    0  501  502  0.00000000000E+00  0.00000000000E+00  0.23865521192E+03  0.23865521192E+03  0.00000000000E+00 0. -1.
         21   -1    0    0  502  503 -0.00000000000E+00 -0.00000000000E+00 -0.15069563162E+03  0.15069563162E+03  0.00000000000E+00 0. -1.
         -6    2    1    2    0  503 -0.76066661053E+02 -0.82163265053E+01  0.35714849560E+02  0.19197059493E+03  0.17240508662E+03 0.  0.
        -24    2    3    3    0    0 -0.70577816822E+01  0.42692072455E+02 -0.15259418172E+02  0.92098894794E+02  0.79855690132E+02 0.  0.
          6    2    1    2  501    0  0.76066661053E+02  0.82163265053E+01  0.52244730740E+02  0.19738024861E+03  0.17428656204E+03 0.  0.
         24    2    5    5    0    0  0.70114347175E+02  0.42226594220E+02 -0.20321317544E+02  0.11688149263E+03  0.80927253963E+02 0.  0.
          5    1    5    5  501    0  0.59523138788E+01 -0.34010267715E+02  0.72566048284E+02  0.80498755979E+02  0.47000000000E+01 0. -1.
        -11    1    6    6    0    0 -0.33213794860E+01 -0.12171673230E+02  0.14376075849E+02  0.19127277582E+02  0.00000000000E+00 0.  1.
         12    1    6    6    0    0  0.73435726660E+02  0.54398267450E+02 -0.34697393392E+02  0.97754215049E+02  0.00000000000E+00 0. -1.
         -5    1    3    3    0  503 -0.69008879371E+02 -0.50908398960E+02  0.50974267732E+02  0.99871700133E+02  0.47000000000E+01 0.  1.
         13    1    4    4    0    0 -0.38949496471E+01  0.29207609522E+02  0.31617014818E+02  0.43219101249E+02  0.00000000000E+00 0. -1.
        -14    1    4    4    0    0 -0.31628320351E+01  0.13484462933E+02 -0.46876432990E+02  0.48879793545E+02  0.00000000000E+00 0.  1.
</event>
<event>
12    1  0.9966151E-001  0.2580040E+03  0.7818608E-02  0.1108431E+00
         21   -1    0    0  503  502  0.00000000000E+00  0.00000000000E+00  0.88333978663E+02  0.88333978663E+02  0.00000000000E+00 0.  1.
         21   -1    0    0  501  503 -0.00000000000E+00 -0.00000000000E+00 -0.76541437302E+03  0.76541437302E+03  0.00000000000E+00 0.  1.
          6    2    1    2  501    0 -0.77008562946E+02  0.17739291616E+03 -0.28236345101E+03  0.38248555921E+03  0.17078500832E+03 0.  0.
         24    2    3    3    0    0 -0.11206044568E+02  0.73482824257E+02 -0.21855026197E+03  0.24384396473E+03  0.78551646907E+02 0.  0.
         -6    2    1    2    0  502  0.77008562946E+02 -0.17739291616E+03 -0.39471694335E+03  0.47126279248E+03  0.16996643413E+03 0.  0.
        -24    2    5    5    0    0  0.16883151898E+01 -0.11602983239E+03 -0.14531035031E+03  0.20356089404E+03  0.82801976204E+02 0.  0.
          5    1    3    3  501    0 -0.65802518378E+02  0.10391009190E+03 -0.63813189033E+02  0.13864159448E+03  0.47000000000E+01 0. -1.
        -11    1    4    4    0    0 -0.69112020058E+01 -0.12629015883E+02 -0.75177239997E+02  0.76543282977E+02  0.00000000000E+00 0.  1.
         12    1    4    4    0    0 -0.42948425626E+01  0.86111840140E+02 -0.14337302198E+03  0.16730068176E+03  0.00000000000E+00 0. -1.
         -5    1    5    5    0  502  0.75320247756E+02 -0.61363083768E+02 -0.24940659304E+03  0.26770189843E+03  0.47000000000E+01 0.  1.
         13    1    6    6    0    0  0.23333762959E+02 -0.34143324312E+02 -0.78384473885E+01  0.42091238356E+02  0.00000000000E+00 0. -1.
        -14    1    6    6    0    0 -0.21645447769E+02 -0.81886508081E+02 -0.13747190292E+03  0.16146965569E+03  0.00000000000E+00 0.  1.
</event>
<event>
12    1  0.9966151E-001  0.2399703E+03  0.7818608E-02  0.1119875E+00
         21   -1    0    0  501  502  0.00000000000E+00  0.00000000000E+00  0.20335389586E+03  0.20335389586E+03  0.00000000000E+00 0.  1.
         21   -1    0    0  502  503 -0.00000000000E+00 -0.00000000000E+00 -0.28274486981E+03  0.28274486981E+03  0.00000000000E+00 0.  1.
         -6    2    1    2    0  503 -0.85770428166E+02  0.14359395768E+03 -0.38266287220E+02  0.24263009248E+03  0.17154959053E+03 0.  0.
        -24    2    3    3    0    0 -0.16211399778E+02  0.11741482913E+03  0.25267502958E+02  0.14474016605E+03  0.79134173286E+02 0.  0.
          6    2    1    2  501    0  0.85770428166E+02 -0.14359395768E+03 -0.41124686732E+02  0.24346867318E+03  0.17207545999E+03 0.  0.
         24    2    5    5    0    0  0.22805755221E+02 -0.15394116634E+03 -0.19557981657E+02  0.17594958304E+03  0.79735537624E+02 0.  0.
          5    1    5    5  501    0  0.62964672945E+02  0.10347208652E+02 -0.21566705074E+02  0.67519090143E+02  0.47000000000E+01 0. -1.
        -11    1    6    6    0    0 -0.61130220724E+01 -0.37834507544E+02  0.27714510508E+02  0.47296015611E+02  0.00000000000E+00 0.  1.
         12    1    6    6    0    0  0.28918777293E+02 -0.11610665879E+03 -0.47272492165E+02  0.12865356743E+03  0.00000000000E+00 0. -1.
         -5    1    3    3    0  503 -0.69559028387E+02  0.26179128556E+02 -0.63533790178E+02  0.97889926430E+02  0.47000000000E+01 0.  1.
         13    1    4    4    0    0 -0.25424069319E+02  0.82774936545E+02  0.51111442457E+02  0.10055074824E+03  0.00000000000E+00 0. -1.
        -14    1    4    4    0    0  0.92126695408E+01  0.34639892584E+02 -0.25843939499E+02  0.44189417818E+02  0.00000000000E+00 0.  1.
</event>
<event>
12    1  0.9966151E-001  0.2895193E+03  0.7818608E-02  0.1090635E+00
         21   -1    0    0  501  502  0.00000000000E+00  0.00000000000E+00  0.10707277301E+04  0.10707277301E+04  0.00000000000E+00 0.  1.
         21   -1    0    0  502  503 -0.00000000000E+00 -0.00000000000E+00 -0.96620491369E+02  0.96620491369E+02  0.00000000000E+00 0.  1.
         -6    2    1    2    0  503  0.18474167741E+03  0.14161337404E+03  0.74163468058E+03  0.79604657830E+03  0.17170998893E+03 0.  0.
        -24    2    3    3    0    0  0.93239134081E+02  0.11919296541E+03  0.61519838278E+03  0.63830115820E+03  0.77838417650E+02 0.  0.
          6    2    1    2  501    0 -0.18474167741E+03 -0.14161337404E+03  0.23247255816E+03  0.37130164318E+03  0.17215569945E+03 0.  0.
         24    2    5    5    0    0 -0.39986788704E+02 -0.82370101814E+02  0.15481768351E+03  0.19661302688E+03  0.79400190600E+02 0.  0.
          5    1    5    5  501    0 -0.14475488871E+03 -0.59243272222E+02  0.77654874642E+02  0.17468861630E+03  0.47000000000E+01 0. -1.
        -11    1    6    6    0    0  0.38719752040E+01 -0.32366054010E+02  0.53749980077E+01  0.33037013299E+02  0.00000000000E+00 0.  1.
         12    1    6    6    0    0 -0.43858763908E+02 -0.50004047804E+02  0.14944268551E+03  0.16357601358E+03  0.00000000000E+00 0. -1.
         -5    1    3    3    0  503  0.91502543329E+02  0.22420408630E+02  0.12643629780E+03  0.15774542009E+03  0.47000000000E+01 0.  1.
         13    1    4    4    0    0  0.98703328058E+02  0.86728146660E+02  0.54718035119E+03  0.56273479999E+03  0.00000000000E+00 0. -1.
        -14    1    4    4    0    0 -0.54641939768E+01  0.32464818746E+02  0.68018031585E+02  0.75566358207E+02  0.00000000000E+00 0.  1.
</event>
<event>
12    1  0.9966151E-001  0.1850986E+03  0.7818608E-02  0.1163158E+00
         21   -1    0    0  501  502  0.00000000000E+00  0.00000000000E+00  0.27597099247E+03  0.27597099247E+03  0.00000000000E+00 0. -1.
         21   -1    0    0  502  503 -0.00000000000E+00 -0.00000000000E+00 -0.14626881674E+03  0.14626881674E+03  0.00000000000E+00 0. -1.
         -6    2    1    2    0  503 -0.60949962569E+02  0.33195570521E+02  0.14813614539E+03  0.23707767716E+03  0.17159447426E+03 0.  0.
        -24    2    3    3    0    0  0.46530880674E+01  0.72725885012E+02  0.92591050153E+02  0.14234777891E+03  0.79869155586E+02 0.  0.
          6    2    1    2  501    0  0.60949962569E+02 -0.33195570521E+02 -0.18433969660E+02  0.18516213205E+03  0.17067032568E+03 0.  0.
         24    2    5    5    0    0  0.81016428215E+02  0.21610854929E+02  0.15074445329E+02  0.11769872575E+03  0.81209977531E+02 0.  0.
          5    1    5    5  501    0 -0.20066465645E+02 -0.54806425451E+02 -0.33508414989E+02  0.67463406298E+02  0.47000000000E+01 0. -1.
        -13    1    6    6    0    0  0.68041202953E+02  0.29732996202E+02 -0.22118943225E+02  0.77478409972E+02  0.00000000000E+00 0.  1.
         14    1    6    6    0    0  0.12975225262E+02 -0.81221412730E+01  0.37193388554E+02  0.40220315781E+02  0.00000000000E+00 0. -1.
         -5    1    3    3    0  503 -0.65603050637E+02 -0.39530314491E+02  0.55545095235E+02  0.94729898244E+02  0.47000000000E+01 0.  1.
         13    1    4    4    0    0  0.38398976990E+02  0.59678766225E+02  0.52030574129E+02  0.87995552252E+02  0.00000000000E+00 0. -1.
        -14    1    4    4    0    0 -0.33745888922E+02  0.13047118787E+02  0.40560476024E+02  0.54352226661E+02  0.00000000000E+00 0.  1.
</event>
<event>
12    1  0.9966151E-001  0.4430805E+03  0.7818608E-02  0.1029893E+00
         21   -1    0    0  501  502  0.00000000000E+00  0.00000000000E+00  0.10499405643E+04  0.10499405643E+04  0.00000000000E+00 0. -1.
         21   -1    0    0  502  503 -0.00000000000E+00 -0.00000000000E+00 -0.19462458512E+03  0.19462458512E+03  0.00000000000E+00 0. -1.
         -6    2    1    2    0  503  0.37023279374E+03  0.17027710831E+03  0.55427172226E+03  0.70888987234E+03  0.17100027439E+03 0.  0.
        -24    2    3    3    0    0  0.36073698367E+03  0.15052035220E+03  0.44687442243E+03  0.59917765866E+03  0.80805751042E+02 0.  0.
          6    2    1    2  501    0 -0.37023279374E+03 -0.17027710831E+03  0.30104425697E+03  0.53567527713E+03  0.17393603047E+03 0.  0.
         24    2    5    5    0    0 -0.30703175110E+03 -0.15889472315E+03  0.17800149233E+03  0.39680288097E+03  0.79069373655E+02 0.  0.
          5    1    5    5  501    0 -0.63201042639E+02 -0.11382385165E+02  0.12304276464E+03  0.13887239615E+03  0.47000000000E+01 0. -1.
        -11    1    6    6    0    0 -0.11333787976E+03 -0.98964642548E+02  0.58386077385E+02  0.16139519663E+03  0.00000000000E+00 0.  1.
         12    1    6    6    0    0 -0.19369387134E+03 -0.59930080597E+02  0.11961541494E+03  0.23540768434E+03  0.00000000000E+00 0. -1.
         -5    1    3    3    0  503  0.94958100703E+01  0.19756756106E+02  0.10739729983E+03  0.10971221368E+03  0.47000000000E+01 0.  1.
         13    1    4    4    0    0  0.37285886057E+01  0.15784349298E+02  0.29467662715E+02  0.33636159140E+02  0.00000000000E+00 0. -1.
        -14    1    4    4    0    0  0.35700839507E+03  0.13473600291E+03  0.41740675971E+03  0.56554149952E+03  0.00000000000E+00 0.  1.
</event>
<event>
12    1  0.9966151E-001  0.2496038E+03  0.7818608E-02  0.1114218E+00
         21   -1    0    0  501  502  0.00000000000E+00  0.00000000000E+00  0.13803977617E+03  0.13803977617E+03  0.00000000000E+00 0.  1.
         21   -1    0    0  502  503 -0.00000000000E+00 -0.00000000000E+00 -0.52144521016E+03  0.52144521016E+03  0.00000000000E+00 0.  1.
         -6    2    1    2    0  503  0.14851751614E+03  0.92477279731E+02 -0.63146749538E+02  0.25344598358E+03  0.17215648332E+03 0.  0.
        -24    2    3    3    0    0  0.17396184226E+03  0.99871161564E+02 -0.43728367164E+02  0.22026094486E+03  0.79785601845E+02 0.  0.
          6    2    1    2  501    0 -0.14851751614E+03 -0.92477279731E+02 -0.32025868446E+03  0.40603900275E+03  0.17802400658E+03 0.  0.
         24    2    5    5    0    0 -0.78858863783E+02 -0.67948737665E+02 -0.30238692360E+03  0.32991103772E+03  0.81041285129E+02 0.  0.
          5    1    5    5  501    0 -0.69658652355E+02 -0.24528542066E+02 -0.17871760854E+02  0.76127965031E+02  0.47000000000E+01 0. -1.
        -11    1    6    6    0    0 -0.54186346903E+02  0.22090175811E+01 -0.16504348126E+03  0.17372504326E+03  0.00000000000E+00 0.  1.
         12    1    6    6    0    0 -0.24672516880E+02 -0.70157755246E+02 -0.13734344234E+03  0.15618599445E+03  0.00000000000E+00 0. -1.
         -5    1    3    3    0  503 -0.25444326126E+02 -0.73938818337E+01 -0.19418382375E+02  0.33185038717E+02  0.47000000000E+01 0.  1.
         11    1    4    4    0    0  0.14551491279E+03  0.91721914640E+02 -0.57379038100E+01  0.17210584827E+03  0.00000000000E+00 0. -1.
        -12    1    4    4    0    0  0.28446929473E+02  0.81492469241E+01 -0.37990463354E+02  0.48155096591E+02  0.00000000000E+00 0.  1.
</event>
<event>
12    1  0.9966151E-001  0.1980350E+03  0.7818608E-02  0.1151855E+00
         21   -1    0    0  501  502  0.00000000000E+00  0.00000000000E+00  0.69034133677E+03  0.69034133677E+03  0.00000000000E+00 0.  1.
         21   -1    0    0  502  503 -0.00000000000E+00 -0.00000000000E+00 -0.68895825832E+02  0.68895825832E+02  0.00000000000E+00 0.  1.
         -6    2    1    2    0  503  0.56452905042E+02 -0.76755021868E+02  0.14650834307E+03  0.24466630408E+03  0.17122687259E+03 0.  0.
        -24    2    3    3    0    0  0.34103849695E+02  0.11927567813E+02  0.25588242305E+02  0.92982940606E+02  0.81766311287E+02 0.  0.
          6    2    1    2  501    0 -0.56452905042E+02  0.76755021868E+02  0.47493716787E+03  0.51457085852E+03  0.17360757801E+03 0.  0.
         24    2    5    5    0    0 -0.24142279959E+02 -0.28937419429E+02  0.18616699832E+03  0.20533766259E+03  0.78007566880E+02 0.  0.
          5    1    5    5  501    0 -0.32310625083E+02  0.10569244130E+03  0.28877016955E+03  0.30923319593E+03  0.47000000000E+01 0. -1.
        -11    1    6    6    0    0 -0.50602764844E+02 -0.49453254386E+01  0.10520515471E+03  0.11684699667E+03  0.00000000000E+00 0.  1.
         12    1    6    6    0    0  0.26460484885E+02 -0.23992093991E+02  0.80961843610E+02  0.88490665921E+02  0.00000000000E+00 0. -1.
         -5    1    3    3    0  503  0.22349055347E+02 -0.88682589681E+02  0.12092010076E+03  0.15168336348E+03  0.47000000000E+01 0.  1.
         13    1    4    4    0    0 -0.19481611102E+02 -0.56803521301E+01 -0.13486861001E+02  0.24365857078E+02  0.00000000000E+00 0. -1.
        -14    1    4    4    0    0  0.53585460797E+02  0.17607919943E+02  0.39075103306E+02  0.68617083528E+02  0.00000000000E+00 0.  1.
</event>
<event>
12    1  0.9966151E-001  0.2220229E+03  0.7818608E-02  0.1132391E+00
         21   -1    0    0  501  502  0.00000000000E+00  0.00000000000E+00  0.42261223886E+02  0.42261223886E+02  0.00000000000E+00 0. -1.
         21   -1    0    0  502  503 -0.00000000000E+00 -0.00000000000E+00 -0.12743515302E+04  0.12743515302E+04  0.00000000000E+00 0. -1.
         -6    2    1    2    0  503 -0.10915911636E+03 -0.87325167784E+02 -0.80776557922E+03  0.83771230858E+03  0.17243921637E+03 0.  0.
        -24    2    3    3    0    0 -0.65630233604E+02 -0.17838771898E+02 -0.66516261849E+03  0.67314980599E+03  0.77870423905E+02 0.  0.
          6    2    1    2  501    0  0.10915911636E+03  0.87325167784E+02 -0.42432472705E+03  0.47890044547E+03  0.17248989847E+03 0.  0.
         24    2    5    5    0    0  0.10937644966E+03  0.11131421491E+02 -0.33199663871E+03  0.35910019462E+03  0.81511136511E+02 0.  0.
          5    1    5    5  501    0 -0.21733330025E+00  0.76193746293E+02 -0.92328088338E+02  0.11980025085E+03  0.47000000000E+01 0. -1.
        -13    1    6    6    0    0  0.44565987743E+01  0.29916438895E+02 -0.70456791840E+02  0.76674729248E+02  0.00000000000E+00 0.  1.
         14    1    6    6    0    0  0.10491985089E+03 -0.18785017404E+02 -0.26153984687E+03  0.28242546538E+03  0.00000000000E+00 0. -1.
         -5    1    3    3    0  503 -0.43528882760E+02 -0.69486395885E+02 -0.14260296074E+03  0.16456250259E+03  0.47000000000E+01 0.  1.
         11    1    4    4    0    0 -0.22234291827E+02  0.28997139549E+02 -0.32490064744E+03  0.32694896933E+03  0.00000000000E+00 0. -1.
        -12    1    4    4    0    0 -0.43395941777E+02 -0.46835911447E+02 -0.34026197105E+03  0.34620083666E+03  0.00000000000E+00 0.  1.
</event>
<event>
12    1  0.9966151E-001  0.1774701E+03  0.7818608E-02  0.1170599E+00
         21   -1    0    0  501  502  0.00000000000E+00  0.00000000000E+00  0.19524593030E+03  0.19524593030E+03  0.00000000000E+00 0.  1.
         21   -1    0    0  502  503 -0.00000000000E+00 -0.00000000000E+00 -0.27070135739E+03  0.27070135739E+03  0.00000000000E+00 0.  1.
         -6    2    1    2    0  503  0.17975084020E+02 -0.35303869573E+02 -0.18654633249E+03  0.25657484871E+03  0.17164396864E+03 0.  0.
        -24    2    3    3    0    0  0.66275753962E+02 -0.50785023705E+02 -0.83621227479E+02  0.14173457663E+03  0.78259736331E+02 0.  0.
          6    2    1    2  501    0 -0.17975084020E+02  0.35303869573E+02  0.11109090540E+03  0.20937243898E+03  0.17299179775E+03 0.  0.
         24    2    5    5    0    0  0.29314661653E+02 -0.30500337908E+02  0.84034373180E+02  0.12381158517E+03  0.80485481593E+02 0.  0.
          5    1    5    5  501    0 -0.47289745673E+02  0.65804207481E+02  0.27056532222E+02  0.85560853805E+02  0.47000000000E+01 0. -1.
        -13    1    6    6    0    0  0.28893967021E+02 -0.32194358993E+02  0.99369582368E+02  0.10837735917E+03  0.00000000000E+00 0.  1.
         14    1    6    6    0    0  0.42069463244E+00  0.16940210859E+01 -0.15335209188E+02  0.15434226001E+02  0.00000000000E+00 0. -1.
         -5    1    3    3    0  503 -0.48300669942E+02  0.15481154132E+02 -0.10292510501E+03  0.11484027208E+03  0.47000000000E+01 0.  1.
         13    1    4    4    0    0  0.72092218754E+02 -0.17803218301E+02 -0.78142959052E+02  0.10779872279E+03  0.00000000000E+00 0. -1.
        -14    1    4    4    0    0 -0.58164647919E+01 -0.32981805404E+02 -0.54782684269E+01  0.33935853832E+02  0.00000000000E+00 0.  1.
</event>
<event>
12    1  0.9966151E-001  0.1782471E+03  0.7818608E-02  0.1169875E+00
         21   -1    0    0  501  502  0.00000000000E+00  0.00000000000E+00  0.20923213614E+03  0.20923213614E+03  0.00000000000E+00 0. -1.
         21   -1    0    0  502  503 -0.00000000000E+00 -0.00000000000E+00 -0.15905609271E+03  0.15905609271E+03  0.00000000000E+00 0. -1.
         -6    2    1    2    0  503  0.35736113493E+02  0.10985017285E+01  0.67465102039E+02  0.18920461933E+03  0.17311433063E+03 0.  0.
        -24    2    3    3    0    0  0.41709976170E+02 -0.47888450348E+02 -0.10194045473E+01  0.10466098473E+03  0.83185676351E+02 0.  0.
          6    2    1    2  501    0 -0.35736113493E+02 -0.10985017285E+01 -0.17289058610E+02  0.17908360952E+03  0.17462460061E+03 0.  0.
         24    2    5    5    0    0 -0.10976344726E+01  0.64666069959E+02 -0.23155238196E+00  0.10267777442E+03  0.79748143164E+02 0.  0.
          5    1    5    5  501    0 -0.34638479020E+02 -0.65764571687E+02 -0.17057506228E+02  0.76405835096E+02  0.47000000000E+01 0. -1.
        -11    1    6    6    0    0  0.27396231028E+02  0.68535617165E+02 -0.23366785135E+01  0.73845408532E+02  0.00000000000E+00 0.  1.
         12    1    6    6    0    0 -0.28493865501E+02 -0.38695472063E+01  0.21051261315E+01  0.28832365889E+02  0.00000000000E+00 0. -1.
         -5    1    3    3    0  503 -0.59738626770E+01  0.48986952077E+02  0.68484506586E+02  0.84543634600E+02  0.47000000000E+01 0.  1.
         11    1    4    4    0    0  0.51524608509E+02  0.20339593951E+01 -0.11217943392E+02  0.52770868164E+02  0.00000000000E+00 0. -1.
        -12    1    4    4    0    0 -0.98146323395E+01 -0.49922409744E+02  0.10198538845E+02  0.51890116565E+02  0.00000000000E+00 0.  1.
</event>
<event>
12    1  0.9966151E-001  0.2426314E+03  0.7818608E-02  0.1118323E+00
         21   -1    0    0  501  502  0.00000000000E+00  0.00000000000E+00  0.33611274038E+02  0.33611274038E+02  0.00000000000E+00 0.  1.
         21   -1    0    0  502  503 -0.00000000000E+00 -0.00000000000E+00 -0.18362445924E+04  0.18362445924E+04  0.00000000000E+00 0.  1.
         -6    2    1    2    0  503 -0.15868117273E+03  0.58269954754E+02 -0.68400602265E+03  0.72521748513E+03  0.17175872473E+03 0.  0.
        -24    2    3    3    0    0 -0.13444171316E+02  0.11851189420E+02 -0.15091010582E+03  0.17072507319E+03  0.77794563737E+02 0.  0.
          6    2    1    2  501    0  0.15868117273E+03 -0.58269954754E+02 -0.11186272957E+04  0.11446383813E+04  0.17405428760E+03 0.  0.
         24    2    5    5    0    0  0.69408572758E+02 -0.93830284389E+02 -0.54160121783E+03  0.55964665597E+03  0.79062178972E+02 0.  0.
          5    1    5    5  501    0  0.89272599971E+02  0.35560329635E+02 -0.57702607789E+03  0.58499172534E+03  0.47000000000E+01 0. -1.
        -11    1    6    6    0    0  0.16583655884E+01 -0.42122130334E+02 -0.81905084566E+02  0.92116594152E+02  0.00000000000E+00 0.  1.
         12    1    6    6    0    0  0.67750207169E+02 -0.51708154055E+02 -0.45969613327E+03  0.46753006182E+03  0.00000000000E+00 0. -1.
         -5    1    3    3    0  503 -0.14523700141E+03  0.46418765334E+02 -0.53309591683E+03  0.55449241194E+03  0.47000000000E+01 0.  1.
         13    1    4    4    0    0 -0.22638906062E+02  0.36710879405E+02 -0.12998949234E+03  0.13695793827E+03  0.00000000000E+00 0. -1.
        -14    1    4    4    0    0  0.91947347459E+01 -0.24859689985E+02 -0.20920613471E+02  0.33767134928E+02  0.00000000000E+00 0.  1.
</event>
<event>
12    1  0.9966151E-001  0.2284704E+03  0.7818608E-02  0.1127961E+00
         21   -1    0    0  503  502  0.00000000000E+00  0.00000000000E+00  0.54937137442E+03  0.54937137442E+03  0.00000000000E+00 0.  1.
         21   -1    0    0  501  503 -0.00000000000E+00 -0.00000000000E+00 -0.19980673444E+03  0.19980673444E+03  0.00000000000E+00 0.  1.
          6    2    1    2  501    0 -0.14622555041E+03 -0.37847412964E+02  0.44653730697E+03  0.50097977076E+03  0.16961965079E+03 0.  0.
         24    2    3    3    0    0 -0.19637981767E+02 -0.46655921860E+02  0.15657459099E+03  0.18443203499E+03  0.83289540845E+02 0.  0.
         -6    2    1    2    0  502  0.14622555041E+03  0.37847412964E+02 -0.96972666987E+02  0.24819833810E+03  0.17141872311E+03 0.  0.
        -24    2    5    5    0    0  0.10671658790E+03 -0.54105744893E+01 -0.12481569814E+03  0.18316345530E+03  0.80945589161E+02 0.  0.
          5    1    3    3  501    0 -0.12658756864E+03  0.88085088964E+01  0.28996271598E+03  0.31654773577E+03  0.47000000000E+01 0. -1.
        -11    1    4    4    0    0 -0.85161436457E+01 -0.22131610336E+02 -0.18025138516E+01  0.23781966589E+02  0.00000000000E+00 0.  1.
         12    1    4    4    0    0 -0.11121838122E+02 -0.24524311524E+02  0.15837710484E+03  0.16065006840E+03  0.00000000000E+00 0. -1.
         -5    1    5    5    0  502  0.39508962504E+02  0.43257987453E+02  0.27843031155E+02  0.65034882798E+02  0.47000000000E+01 0.  1.
         13    1    6    6    0    0  0.76380419524E+02 -0.13882947324E+02 -0.29955393430E+02  0.83210758371E+02  0.00000000000E+00 0. -1.
        -14    1    6    6    0    0  0.30336168379E+02  0.84723728349E+01 -0.94860304712E+02  0.99952696929E+02  0.00000000000E+00 0.  1.
</event>
<event>
12    1  0.9966151E-001  0.4125217E+03  0.7818608E-02  0.1039623E+00
         21   -1    0    0  503  502  0.00000000000E+00  0.00000000000E+00  0.38302886270E+03  0.38302886270E+03  0.00000000000E+00 0. -1.
         21   -1    0    0  501  503 -0.00000000000E+00 -0.00000000000E+00 -0.56385520270E+03  0.56385520270E+03  0.00000000000E+00 0.  1.
          6    2    1    2  501    0  0.36365976010E+03 -0.89151981803E+02  0.12862443797E+03  0.43210928828E+03  0.17314067690E+03 0.  0.
         24    2    3    3    0    0  0.15164349243E+03 -0.96678585461E+02  0.32795215682E+02  0.19927269888E+03  0.79319509974E+02 0.  0.
         -6    2    1    2    0  502 -0.36365976010E+03  0.89151981803E+02 -0.30945077797E+03  0.51477477712E+03  0.17040184915E+03 0.  0.
        -24    2    5    5    0    0 -0.22389636473E+03  0.20480712820E+02 -0.11150517225E+03  0.26287379917E+03  0.78231637548E+02 0.  0.
          5    1    3    3  501    0  0.21201626767E+03  0.75266036573E+01  0.95829222286E+02  0.23283658940E+03  0.47000000000E+01 0. -1.
        -11    1    4    4    0    0  0.62454627766E+02 -0.56857295929E+02 -0.22000348840E+02  0.87277419638E+02  0.00000000000E+00 0.  1.
         12    1    4    4    0    0  0.89188864665E+02 -0.39821289532E+02  0.54795564522E+02  0.11199527924E+03  0.00000000000E+00 0. -1.
         -5    1    5    5    0  502 -0.13976339538E+03  0.68671268983E+02 -0.19794560572E+03  0.25190097795E+03  0.47000000000E+01 0.  1.
         13    1    6    6    0    0 -0.90363363380E+02  0.15126072919E+02 -0.88279022236E+02  0.12723019017E+03  0.00000000000E+00 0. -1.
        -14    1    6    6    0    0 -0.13353300135E+03  0.53546399007E+01 -0.23226150014E+02  0.13564360900E+03  0.00000000000E+00 0.  1.
</event>
<event>
12    1  0.9966151E-001  0.2009548E+03  0.7818608E-02  0.1150950E+00
         21   -1    0    0  503  502  0.00000000000E+00  0.00000000000E+00  0.17444610200E+04  0.17444610200E+04  0.00000000000E+00 0.  1.
         21   -1    0    0  501  503 -0.00000000000E+00 -0.00000000000E+00 -0.22742918253E+02  0.22742918253E+02  0.00000000000E+00 0.  1.
          6    2    1    2  501    0  0.76117776923E+02 -0.40503604138E+00  0.10313117199E+04  0.10507077188E+04  0.18598055470E+03 0.  0.
         24    2    3    3    0    0  0.64486010667E+02  0.73665058453E+02  0.51986658889E+03  0.53377456169E+03  0.71197093037E+02 0.  0.
         -6    2    1    2    0  502 -0.76117776923E+02  0.40503604138E+00  0.69040638182E+03  0.71649621943E+03  0.17581746323E+03 0.  0.
        -24    2    5    5    0    0 -0.17292093311E+02  0.61388123167E+02  0.46882217372E+03  0.47921779806E+03  0.76078572843E+02 0.  0.
          5    1    3    3  501    0  0.11631766255E+02 -0.74070094494E+02  0.51144513105E+03  0.51693315715E+03  0.47000000000E+01 0. -1.
        -11    1    4    4    0    0 -0.14515822905E+02  0.19401518935E+02  0.13473897997E+03  0.13690040459E+03  0.00000000000E+00 0.  1.
         12    1    4    4    0    0  0.79001833572E+02  0.54263539518E+02  0.38512760892E+03  0.39687415711E+03  0.00000000000E+00 0. -1.
         -5    1    5    5    0  502 -0.58825683612E+02 -0.60983087126E+02  0.22158420810E+03  0.23727842137E+03  0.47000000000E+01 0.  1.
         13    1    6    6    0    0 -0.16341937542E+02 -0.36768161727E+01  0.21840053184E+02  0.27523913654E+02  0.00000000000E+00 0. -1.
        -14    1    6    6    0    0 -0.95015576897E+00  0.65064939340E+02  0.44698212054E+03  0.45169388440E+03  0.00000000000E+00 0.  1.
</event>
<event>
12    1  0.9966151E-001  0.2000471E+03  0.7818608E-02  0.1149880E+00
         21   -1    0    0  501  502  0.00000000000E+00  0.00000000000E+00  0.19033303072E+03  0.19033303072E+03  0.00000000000E+00 0.  1.
         21   -1    0    0  502  503 -0.00000000000E+00 -0.00000000000E+00 -0.38570603931E+03  0.38570603931E+03  0.00000000000E+00 0.  1.
         -6    2    1    2    0  503  0.10148568050E+03  0.18114459420E+02  0.96950500044E+02  0.22230211603E+03  0.17143906890E+03 0.  0.
        -24    2    3    3    0    0  0.76657786299E+02 -0.46617207677E+02  0.90922472642E+02  0.15255227610E+03  0.83400963191E+02 0.  0.
          6    2    1    2  501    0 -0.10148568050E+03 -0.18114459420E+02 -0.29232350864E+03  0.35373695400E+03  0.17043861633E+03 0.  0.
         24    2    5    5    0    0 -0.13479987125E+03 -0.35006220741E+02 -0.22206968994E+03  0.27403214895E+03  0.79888864617E+02 0.  0.
          5    1    5    5  501    0  0.33314190754E+02  0.16891761321E+02 -0.70253818697E+02  0.79704805047E+02  0.47000000000E+01 0. -1.
        -13    1    6    6    0    0 -0.29814079417E+02 -0.39779115473E+02 -0.10822006017E+03  0.11909172424E+03  0.00000000000E+00 0.  1.
         14    1    6    6    0    0 -0.10498579184E+03  0.47728947323E+01 -0.11384962977E+03  0.15494042471E+03  0.00000000000E+00 0. -1.
         -5    1    3    3    0  503  0.24827894201E+02  0.64731667097E+02  0.60280274018E+01  0.69749839928E+02  0.47000000000E+01 0.  1.
         11    1    4    4    0    0  0.45147399239E+01 -0.15547248160E+01 -0.15554539090E+02  0.16270947488E+02  0.00000000000E+00 0. -1.
        -12    1    4    4    0    0  0.72143046375E+02 -0.45062482861E+02  0.10647701173E+03  0.13628132862E+03  0.00000000000E+00 0.  1.
</event>
<event>
12    1  0.9966151E-001  0.1802349E+03  0.7818608E-02  0.1169121E+00
         21   -1    0    0  503  502  0.00000000000E+00  0.00000000000E+00  0.85999685002E+02  0.85999685002E+02  0.00000000000E+00 0. -1.
         21   -1    0    0  501  503 -0.00000000000E+00 -0.00000000000E+00 -0.39093751548E+03  0.39093751548E+03  0.00000000000E+00 0. -1.
          6    2    1    2  501    0 -0.17394177100E+02 -0.65414911379E+01 -0.88166878493E+02  0.19502538463E+03  0.17296286793E+03 0.  0.
         24    2    3    3    0    0  0.32878791414E+02  0.19150632369E+02  0.22069164176E+01  0.88362507393E+02  0.79720139161E+02 0.  0.
         -6    2    1    2    0  502  0.17394177100E+02  0.65414911379E+01 -0.21677095198E+03  0.28191181585E+03  0.17927430878E+03 0.  0.
        -24    2    5    5    0    0 -0.32500333854E+02 -0.33406119941E+02 -0.54775014798E+02  0.10769916557E+03  0.80165874710E+02 0.  0.
          5    1    3    3  501    0 -0.50272968514E+02 -0.25692123506E+02 -0.90373794910E+02  0.10666287723E+03  0.47000000000E+01 0. -1.
        -11    1    4    4    0    0 -0.18465083180E+02  0.26639081202E+02 -0.12004283799E+02  0.34564472709E+02  0.00000000000E+00 0.  1.
         12    1    4    4    0    0  0.51343874594E+02 -0.74884488334E+01  0.14211200216E+02  0.53798034684E+02  0.00000000000E+00 0. -1.
         -5    1    5    5    0  502  0.49894510954E+02  0.39947611079E+02 -0.16199593718E+03  0.17421265028E+03  0.47000000000E+01 0.  1.
         13    1    6    6    0    0  0.10735620592E+00 -0.20007876288E+02 -0.67358765103E+02  0.70267559194E+02  0.00000000000E+00 0. -1.
        -14    1    6    6    0    0 -0.32607690060E+02 -0.13398243653E+02  0.12583750306E+02  0.37431606374E+02  0.00000000000E+00 0.  1.
</event>
<event>
12    1  0.9966151E-001  0.2505984E+03  0.7818608E-02  0.1113415E+00
         21   -1    0    0  503  502  0.00000000000E+00  0.00000000000E+00  0.12328770101E+03  0.12328770101E+03  0.00000000000E+00 0. -1.
         21   -1    0    0  501  503 -0.00000000000E+00 -0.00000000000E+00 -0.54938686512E+03  0.54938686512E+03  0.00000000000E+00 0.  1.
          6    2    1    2  501    0  0.18276573454E+01 -0.17817876375E+03 -0.11426595589E+03  0.27262520286E+03  0.17180448299E+03 0.  0.
         24    2    3    3    0    0  0.27855752457E+02 -0.19265976713E+03 -0.12190590410E+03  0.24151861187E+03  0.74675709642E+02 0.  0.
         -6    2    1    2    0  502 -0.18276573454E+01  0.17817876375E+03 -0.31183320822E+03  0.40004936327E+03  0.17620593385E+03 0.  0.
        -24    2    5    5    0    0  0.58686697965E+02  0.15743978151E+03 -0.21727024417E+03  0.28578503484E+03  0.78964003275E+02 0.  0.
          5    1    3    3  501    0 -0.26028095111E+02  0.14481003385E+02  0.76399482085E+01  0.31106590986E+02  0.47000000000E+01 0. -1.
        -13    1    4    4    0    0 -0.18025489361E+02 -0.57655971076E+02 -0.12238816212E+02  0.61635362331E+02  0.00000000000E+00 0.  1.
         14    1    4    4    0    0  0.45881241817E+02 -0.13500379606E+03 -0.10966708788E+03  0.17988324954E+03  0.00000000000E+00 0. -1.
         -5    1    5    5    0  502 -0.60514355311E+02  0.20738982234E+02 -0.94562964049E+02  0.11426432843E+03  0.47000000000E+01 0.  1.
         11    1    6    6    0    0  0.10845234515E+02  0.66649251613E+01  0.43947488417E+01  0.13466779737E+02  0.00000000000E+00 0. -1.
        -12    1    6    6    0    0  0.47841463450E+02  0.15077485635E+03 -0.22166499301E+03  0.27231825510E+03  0.00000000000E+00 0.  1.
</event>
<event>
12    1  0.9966151E-001  0.1812076E+03  0.7818608E-02  0.1166776E+00
         21   -1    0    0  503  502  0.00000000000E+00  0.00000000000E+00  0.31813927554E+02  0.31813927554E+02  0.00000000000E+00 0. -1.
         21   -1    0    0  501  503 -0.00000000000E+00 -0.00000000000E+00 -0.11312308962E+04  0.11312308962E+04  0.00000000000E+00 0. -1.
          6    2    1    2  501    0 -0.52430368480E+02  0.12781959919E+02 -0.37402967376E+03  0.41536647937E+03  0.17239139565E+03 0.  0.
         24    2    3    3    0    0 -0.56582722615E+02 -0.12344036031E+02 -0.37754728951E+03  0.38923180245E+03  0.74869623334E+02 0.  0.
         -6    2    1    2    0  502  0.52430368480E+02 -0.12781959919E+02 -0.72538729488E+03  0.74767834438E+03  0.17298513532E+03 0.  0.
        -24    2    5    5    0    0 -0.28811417643E+02 -0.20316231355E+02 -0.51014161800E+03  0.51743980617E+03  0.79098897308E+02 0.  0.
          5    1    3    3  501    0  0.41523541350E+01  0.25125995951E+02  0.35176157457E+01  0.26134676924E+02  0.47000000000E+01 0. -1.
        -11    1    4    4    0    0  0.17525115550E+02 -0.57661257346E+01 -0.48802464631E+02  0.52173349855E+02  0.00000000000E+00 0.  1.
         12    1    4    4    0    0 -0.74107838165E+02 -0.65779102968E+01 -0.32874482488E+03  0.33705845259E+03  0.00000000000E+00 0. -1.
         -5    1    5    5    0  502  0.81241786123E+02  0.75342714356E+01 -0.21524567688E+03  0.23023853821E+03  0.47000000000E+01 0.  1.
         11    1    6    6    0    0 -0.81709338577E+01  0.64156976601E+00 -0.19856558135E+01  0.84331845042E+01  0.00000000000E+00 0. -1.
        -12    1    6    6    0    0 -0.20640483785E+02 -0.20957801121E+02 -0.50815596219E+03  0.50900662167E+03  0.00000000000E+00 0.  1.
</event>
<event>
12    1  0.9966151E-001  0.2906184E+03  0.7818608E-02  0.1090586E+00
         21   -1    0    0  503  502  0.00000000000E+00  0.00000000000E+00  0.16238434994E+03  0.16238434994E+03  0.00000000000E+00 0.  1.
         21   -1    0    0  501  503 -0.00000000000E+00 -0.00000000000E+00 -0.62885340567E+03  0.62885340567E+03  0.00000000000E+00 0. -1.
          6    2    1    2  501    0 -0.13557395381E+03  0.19128783612E+03 -0.64480282443E+02  0.29768568778E+03  0.17171991348E+03 0.  0.
         24    2    3    3    0    0 -0.14137016049E+03  0.92240364199E+02 -0.67693741494E+02  0.19830553873E+03  0.79049585639E+02 0.  0.
         -6    2    1    2    0  502  0.13557395381E+03 -0.19128783612E+03 -0.40198877329E+03  0.49355206784E+03  0.16439992889E+03 0.  0.
        -24    2    5    5    0    0  0.18754208978E+01 -0.67045215494E+02 -0.14920559819E+03  0.18173008321E+03  0.79151339149E+02 0.  0.
          5    1    3    3  501    0  0.57962066813E+01  0.99047471921E+02  0.32134590509E+01  0.99380149049E+02  0.47000000000E+01 0. -1.
        -11    1    4    4    0    0 -0.89049101343E+02  0.97000106948E+02 -0.61739106657E+02  0.14543204767E+03  0.00000000000E+00 0.  1.
         12    1    4    4    0    0 -0.52321059149E+02 -0.47597427487E+01 -0.59546348375E+01  0.52873491066E+02  0.00000000000E+00 0. -1.
         -5    1    5    5    0  502  0.13369853291E+03 -0.12424262063E+03 -0.25278317510E+03  0.31182198462E+03  0.47000000000E+01 0.  1.
         11    1    6    6    0    0 -0.97392165988E+01 -0.68300238734E+02 -0.59022092652E+02  0.90793074472E+02  0.00000000000E+00 0. -1.
        -12    1    6    6    0    0  0.11614637497E+02  0.12550232400E+01 -0.90183505538E+02  0.90937008740E+02  0.00000000000E+00 0.  1.
</event>
<event>
12    1  0.9966151E-001  0.2159395E+03  0.7818608E-02  0.1137012E+00
         21   -1    0    0  501  502  0.00000000000E+00  0.00000000000E+00  0.20840892407E+04  0.20840892407E+04  0.00000000000E+00 0.  1.
         21   -1    0    0  502  503 -0.00000000000E+00 -0.00000000000E+00 -0.58032773697E+02  0.58032773697E+02  0.00000000000E+00 0.  1.
         -6    2    1    2    0  503  0.20836327083E+02  0.12992968862E+03  0.17273116265E+03  0.27625906153E+03  0.17078389274E+03 0.  0.
        -24    2    3    3    0    0 -0.39795695580E+02  0.45993851402E+02  0.40918214367E+02  0.10857420749E+03  0.80093236364E+02 0.  0.
          6    2    1    2  501    0 -0.20836327083E+02 -0.12992968862E+03  0.18533253043E+04  0.18658629528E+04  0.17121331312E+03 0.  0.
         24    2    5    5    0    0  0.76981664082E+01 -0.99559571047E+01  0.46636576511E+03  0.47342380982E+03  0.80465483222E+02 0.  0.
          5    1    5    5  501    0 -0.28534493492E+02 -0.11997373152E+03  0.13869595392E+04  0.13924391430E+04  0.47000000000E+01 0. -1.
        -13    1    6    6    0    0 -0.23403416003E+01 -0.33170463644E+02  0.85798900102E+02  0.92017433761E+02  0.00000000000E+00 0.  1.
         14    1    6    6    0    0  0.10038508009E+02  0.23214506540E+02  0.38056686500E+03  0.38140637606E+03  0.00000000000E+00 0. -1.
         -5    1    3    3    0  503  0.60632022663E+02  0.83935837219E+02  0.13181294828E+03  0.16768485405E+03  0.47000000000E+01 0.  1.
         11    1    4    4    0    0 -0.35444021674E+02  0.60205251005E+01  0.55224135431E+02  0.65895603260E+02  0.00000000000E+00 0. -1.
        -12    1    4    4    0    0 -0.43516739062E+01  0.39973326302E+02 -0.14305921063E+02  0.42678604229E+02  0.00000000000E+00 0.  1.
</event>
<event>
12    1  0.9966151E-001  0.1837381E+03  0.7818608E-02  0.1164323E+00
         21   -1    0    0  503  502  0.00000000000E+00  0.00000000000E+00  0.25196974918E+03  0.25196974918E+03  0.00000000000E+00 0. -1.
         21   -1    0    0  501  503 -0.00000000000E+00 -0.00000000000E+00 -0.14195733658E+03  0.14195733658E+03  0.00000000000E+00 0. -1.
          6    2    1    2  501    0  0.64335478845E+02 -0.91426243971E+01  0.10243407116E+03  0.21003277116E+03  0.17145957135E+03 0.  0.
         24    2    3    3    0    0  0.18828847778E+02  0.40357448841E+02  0.10610471210E+03  0.14252962807E+03  0.84102531248E+02 0.  0.
         -6    2    1    2    0  502 -0.64335478845E+02  0.91426243971E+01  0.75783414392E+01  0.18389431460E+03  0.17186345238E+03 0.  0.
        -24    2    5    5    0    0 -0.62969272670E+01  0.53442787444E+02  0.40107919523E+02  0.10382408689E+03  0.79214979563E+02 0.  0.
          5    1    3    3  501    0  0.45506631068E+02 -0.49500073238E+02 -0.36706409405E+01  0.67503143087E+02  0.47000000000E+01 0. -1.
        -13    1    4    4    0    0  0.36651440526E+02  0.26757711068E+02  0.11070404577E+03  0.11964400923E+03  0.00000000000E+00 0.  1.
         14    1    4    4    0    0 -0.17822592748E+02  0.13599737772E+02 -0.45993336664E+01  0.22885618845E+02  0.00000000000E+00 0. -1.
         -5    1    5    5    0  502 -0.58038551578E+02 -0.44300163047E+02 -0.32529578084E+02  0.80070227710E+02  0.47000000000E+01 0.  1.
         13    1    6    6    0    0  0.34050289082E+02  0.29824133656E+02  0.53762023945E+01  0.45582942940E+02  0.00000000000E+00 0. -1.
        -14    1    6    6    0    0 -0.40347216349E+02  0.23618653787E+02  0.34731717129E+02  0.58241143949E+02  0.00000000000E+00 0.  1.
</event>
<event>
12    1  0.9966151E-001  0.2055934E+03  0.7818608E-02  0.1145157E+00
         21   -1    0    0  501  502  0.00000000000E+00  0.00000000000E+00  0.48416536769E+03  0.48416536769E+03  0.00000000000E+00 0.  1.
         21   -1    0    0  502  503 -0.00000000000E+00 -0.00000000000E+00 -0.87921321271E+02  0.87921321271E+02  0.00000000000E+00 0.  1.
         -6    2    1    2    0  503 -0.78694778058E+02  0.81888802381E+02  0.17218898554E+03  0.26817475758E+03  0.17137680653E+03 0.  0.
        -24    2    3    3    0    0 -0.27381970369E+01 -0.40721006476E+01  0.11638840118E+03  0.14052494652E+03  0.78593389919E+02 0.  0.
          6    2    1    2  501    0  0.78694778058E+02 -0.81888802381E+02  0.22405506089E+03  0.30391193138E+03  0.17106474703E+03 0.  0.
         24    2    5    5    0    0  0.74166425264E+02 -0.12169820880E+03  0.19392427620E+03  0.25356067514E+03  0.79845340615E+02 0.  0.
          5    1    5    5  501    0  0.45283527940E+01  0.39809406422E+02  0.30130784686E+02  0.50351256235E+02  0.47000000000E+01 0. -1.
        -11    1    6    6    0    0  0.79877149538E+02 -0.56717257033E+02  0.12191857935E+03  0.15640123482E+03  0.00000000000E+00 0.  1.
         12    1    6    6    0    0 -0.57107242741E+01 -0.64980951769E+02  0.72005696850E+02  0.97159440320E+02  0.00000000000E+00 0. -1.
         -5    1    3    3    0  503 -0.75956581021E+02  0.85960903028E+02  0.55800584357E+02  0.12764981106E+03  0.47000000000E+01 0.  1.
         13    1    4    4    0    0  0.36613397439E+02  0.54771325235E+01  0.68035803372E+02  0.77455860935E+02  0.00000000000E+00 0. -1.
        -14    1    4    4    0    0 -0.39351594476E+02 -0.95492331711E+01  0.48352597808E+02  0.63069085587E+02  0.00000000000E+00 0.  1.
</event>
<event>
12    1  0.9966151E-001  0.2013396E+03  0.7818608E-02  0.1148667E+00
         21   -1    0    0  501  502  0.00000000000E+00  0.00000000000E+00  0.60217638300E+03  0.60217638300E+03  0.00000000000E+00 0. -1.
         21   -1    0    0  502  503 -0.00000000000E+00 -0.00000000000E+00 -0.70454708850E+02  0.70454708850E+02  0.00000000000E+00 0. -1.
         -6    2    1    2    0  503  0.19643223220E+02 -0.10251234772E+03  0.33761266308E+03  0.39295997272E+03  0.17187376830E+03 0.  0.
        -24    2    3    3    0    0  0.13903329950E+02 -0.60526381087E+02  0.68763103366E+02  0.12075059828E+03  0.77431241823E+02 0.  0.
          6    2    1    2  501    0 -0.19643223220E+02  0.10251234772E+03  0.19410901107E+03  0.27967111914E+03  0.17217139440E+03 0.  0.
         24    2    5    5    0    0  0.22494027347E+02 -0.12047238757E+01  0.45582524966E+02  0.93620088774E+02  0.78609934576E+02 0.  0.
          5    1    5    5  501    0 -0.42137250566E+02  0.10371707159E+03  0.14852648611E+03  0.18605103036E+03  0.47000000000E+01 0. -1.
        -13    1    6    6    0    0 -0.19061761965E+02 -0.23796299561E+02  0.42089286487E+01  0.30778721909E+02  0.00000000000E+00 0.  1.
         14    1    6    6    0    0  0.41555789312E+02  0.22591575685E+02  0.41373596317E+02  0.62841366865E+02  0.00000000000E+00 0. -1.
         -5    1    3    3    0  503  0.57398932698E+01 -0.41985966629E+02  0.26884955972E+03  0.27220937443E+03  0.47000000000E+01 0.  1.
         11    1    4    4    0    0  0.43529899474E+02 -0.18120079943E+02  0.38059182443E+02  0.60594478408E+02  0.00000000000E+00 0. -1.
        -12    1    4    4    0    0 -0.29626569524E+02 -0.42406301144E+02  0.30703920923E+02  0.60156119876E+02  0.00000000000E+00 0.  1.
</event>
<event>
12    1  0.9966151E-001  0.2012418E+03  0.7818608E-02  0.1148831E+00
         21   -1    0    0  501  502  0.00000000000E+00  0.00000000000E+00  0.11757004737E+04  0.11757004737E+04  0.00000000000E+00 0.  1.
         21   -1    0    0  502  503 -0.00000000000E+00 -0.00000000000E+00 -0.36121945267E+02  0.36121945267E+02  0.00000000000E+00 0.  1.
         -6    2    1    2    0  503  0.68265292576E+02  0.78100901353E+02  0.70365789208E+03  0.73169216411E+03  0.17169476685E+03 0.  0.
        -24    2    3    3    0    0  0.59607400173E+02  0.88289217271E+02  0.70541289242E+03  0.71741172615E+03  0.75658495779E+02 0.  0.
          6    2    1    2  501    0 -0.68265292576E+02 -0.78100901353E+02  0.43592063631E+03  0.48013025482E+03  0.17244813559E+03 0.  0.
         24    2    5    5    0    0 -0.81390739656E+02 -0.39902764524E+02  0.41911915735E+03  0.43613304225E+03  0.79589442597E+02 0.  0.
          5    1    5    5  501    0  0.13125447080E+02 -0.38198136829E+02  0.16801478966E+02  0.43997212567E+02  0.47000000000E+01 0. -1.
        -11    1    6    6    0    0 -0.94528727405E+02 -0.24513934496E+02  0.37643491368E+03  0.38889568978E+03  0.00000000000E+00 0.  1.
         12    1    6    6    0    0  0.13137987750E+02 -0.15388830028E+02  0.42684243662E+02  0.47237352474E+02  0.00000000000E+00 0. -1.
         -5    1    3    3    0  503  0.86578924035E+01 -0.10188315918E+02 -0.17550003362E+01  0.14280437959E+02  0.47000000000E+01 0.  1.
         13    1    4    4    0    0  0.93069644907E+00  0.46452311509E+02  0.14197628719E+03  0.14938523878E+03  0.00000000000E+00 0. -1.
        -14    1    4    4    0    0  0.58676703723E+02  0.41836905762E+02  0.56343660523E+03  0.56802648737E+03  0.00000000000E+00 0.  1.
</event>
<event>
12    1  0.9966151E-001  0.1993347E+03  0.7818608E-02  0.1150337E+00
         21   -1    0    0  501  502  0.00000000000E+00  0.00000000000E+00  0.21805005675E+03  0.21805005675E+03  0.00000000000E+00 0.  1.
         21   -1    0    0  502  503 -0.00000000000E+00 -0.00000000000E+00 -0.23687888709E+03  0.23687888709E+03  0.00000000000E+00 0.  1.
         -6    2    1    2    0  503 -0.86087000864E+02 -0.48602837185E+02  0.99999944414E+02  0.22286300551E+03  0.17290090469E+03 0.  0.
        -24    2    3    3    0    0 -0.53161821208E+02 -0.61740127756E+02  0.13242797736E+03  0.17458958446E+03  0.79412412157E+02 0.  0.
          6    2    1    2  501    0  0.86087000864E+02  0.48602837185E+02 -0.11882877476E+03  0.23206593833E+03  0.17309279166E+03 0.  0.
         24    2    5    5    0    0 -0.12005454441E+01  0.51292153688E+02 -0.94579132661E+02  0.14131086517E+03  0.91603613138E+02 0.  0.
          5    1    5    5  501    0  0.87287546308E+02 -0.26893165026E+01 -0.24249642095E+02  0.90755073167E+02  0.47000000000E+01 0. -1.
        -13    1    6    6    0    0 -0.14992382387E+02  0.14944524147E+02  0.14401980180E+02  0.25603268633E+02  0.00000000000E+00 0.  1.
         14    1    6    6    0    0  0.13791836943E+02  0.36347629541E+02 -0.10898111284E+03  0.11570759653E+03  0.00000000000E+00 0. -1.
         -5    1    3    3    0  503 -0.32925179656E+02  0.13137290571E+02 -0.32428032946E+02  0.48273421048E+02  0.47000000000E+01 0.  1.
         13    1    4    4    0    0 -0.63353013348E+02 -0.13968224192E+02  0.78144927861E+02  0.10156448857E+03  0.00000000000E+00 0. -1.
        -14    1    4    4    0    0  0.10191192139E+02 -0.47771903564E+02  0.54283049500E+02  0.73025095894E+02  0.00000000000E+00 0.  1.
</event>
<event>
12    1  0.9966151E-001  0.2285650E+03  0.7818608E-02  0.1127700E+00
         21   -1    0    0  501  502  0.00000000000E+00  0.00000000000E+00  0.58879294583E+03  0.58879294583E+03  0.00000000000E+00 0. -1.
         21   -1    0    0  502  503 -0.00000000000E+00 -0.00000000000E+00 -0.17381693363E+03  0.17381693363E+03  0.00000000000E+00 0. -1.
         -6    2    1    2    0  503  0.63388690863E+02 -0.13626903930E+03  0.47449452083E+03  0.52667543231E+03  0.17220506235E+03 0.  0.
        -24    2    3    3    0    0  0.57200513205E+02 -0.15386470623E+03  0.29748937466E+03  0.34862821158E+03  0.78073397151E+02 0.  0.
          6    2    1    2  501    0 -0.63388690863E+02  0.13626903930E+03 -0.59518508626E+02  0.23593444714E+03  0.17185817780E+03 0.  0.
         24    2    5    5    0    0 -0.32501577099E+02  0.16166300289E+03 -0.27888844271E+02  0.18473490759E+03  0.78472411917E+02 0.  0.
          5    1    5    5  501    0 -0.30887113764E+02 -0.25393963583E+02 -0.31629664355E+02  0.51199539552E+02  0.47000000000E+01 0. -1.
        -13    1    6    6    0    0  0.24243879132E+02  0.47676247232E+02 -0.20196253918E+02  0.57172361311E+02  0.00000000000E+00 0.  1.
         14    1    6    6    0    0 -0.56745456231E+02  0.11398675565E+03 -0.76925903528E+01  0.12756254628E+03  0.00000000000E+00 0. -1.
         -5    1    3    3    0  503  0.61881776574E+01  0.17595666928E+02  0.17700514617E+03  0.17804722072E+03  0.47000000000E+01 0.  1.
         11    1    4    4    0    0  0.19113724063E+02 -0.40810954818E+02  0.25863671661E+02  0.51959580373E+02  0.00000000000E+00 0. -1.
        -12    1    4    4    0    0  0.38086789142E+02 -0.11305375141E+03  0.27162570300E+03  0.29666863121E+03  0.00000000000E+00 0.  1.
</event>
<event>
12    1  0.9966151E-001  0.1994101E+03  0.7818608E-02  0.1152153E+00
         21   -1    0    0  503  502  0.00000000000E+00  0.00000000000E+00  0.11070943967E+03  0.11070943967E+03  0.00000000000E+00 0.  1.
         21   -1    0    0  501  503 -0.00000000000E+00 -0.00000000000E+00 -0.41649749930E+03  0.41649749930E+03  0.00000000000E+00 0.  1.
          6    2    1    2  501    0 -0.85067779169E+02 -0.49048806760E+02 -0.45376467837E+02  0.20450777704E+03  0.17355717945E+03 0.  0.
         24    2    3    3    0    0 -0.94668525096E+02  0.11760090659E+02  0.68625109147E+01  0.12363196342E+03  0.78341170187E+02 0.  0.
         -6    2    1    2    0  502  0.85067779169E+02  0.49048806760E+02 -0.26041159179E+03  0.32269916193E+03  0.16333474669E+03 0.  0.
        -24    2    5    5    0    0  0.40541908433E+02  0.91906626531E+02 -0.15628153056E+03  0.20151952036E+03  0.78075130169E+02 0.  0.
          5    1    3    3  501    0  0.96007459269E+01 -0.60808897419E+02 -0.52238978752E+02  0.80875813620E+02  0.47000000000E+01 0. -1.
        -11    1    4    4    0    0 -0.19164201341E+02  0.22092825019E+02  0.32031855021E+02  0.43375099613E+02  0.00000000000E+00 0.  1.
         12    1    4    4    0    0 -0.75504323755E+02 -0.10332734360E+02 -0.25169344106E+02  0.80256863805E+02  0.00000000000E+00 0. -1.
         -5    1    5    5    0  502  0.44525870736E+02 -0.42857819771E+02 -0.10413006123E+03  0.12117964158E+03  0.47000000000E+01 0.  1.
         11    1    6    6    0    0  0.58320554241E+02  0.73533817218E+02 -0.88190479921E+02  0.12878691731E+03  0.00000000000E+00 0. -1.
        -12    1    6    6    0    0 -0.17778645807E+02  0.18372809313E+02 -0.68091050639E+02  0.72732603046E+02  0.00000000000E+00 0.  1.
</event>
<event>
12    1  0.9966151E-001  0.6624376E+03  0.7818608E-02  0.9784073E-01
         21   -1    0    0  501  502  0.00000000000E+00  0.00000000000E+00  0.33141149063E+03  0.33141149063E+03  0.00000000000E+00 0. -1.
         21   -1    0    0  502  503 -0.00000000000E+00 -0.00000000000E+00 -0.15091303760E+04  0.15091303760E+04  0.00000000000E+00 0. -1.
         -6    2    1    2    0  503 -0.62311368610E+03  0.14102502953E+03 -0.26558194540E+03  0.71369271705E+03  0.17511367702E+03 0.  0.
        -24    2    3    3    0    0 -0.15309740728E+03  0.58958105656E+02 -0.39660019031E+02  0.18575987173E+03  0.77581818075E+02 0.  0.
          6    2    1    2  501    0  0.62311368610E+03 -0.14102502953E+03 -0.91213693992E+03  0.11268491496E+04  0.17215250189E+03 0.  0.
         24    2    5    5    0    0  0.37177347069E+03 -0.12837965906E+03 -0.47119621648E+03  0.61912617305E+03  0.81206485929E+02 0.  0.
          5    1    5    5  501    0  0.25134021541E+03 -0.12645370464E+02 -0.44094072344E+03  0.50772297650E+03  0.47000000000E+01 0. -1.
        -13    1    6    6    0    0  0.35053216995E+03 -0.12922811509E+03 -0.46595270979E+03  0.59723080602E+03  0.00000000000E+00 0.  1.
         14    1    6    6    0    0  0.21241300742E+02  0.84845602972E+00 -0.52435066906E+01  0.21895367027E+02  0.00000000000E+00 0. -1.
         -5    1    3    3    0  503 -0.47001627882E+03  0.82066923870E+02 -0.22592192637E+03  0.52793284532E+03  0.47000000000E+01 0.  1.
         13    1    4    4    0    0 -0.69059402308E+02  0.38398783102E+02 -0.57118414093E+02  0.97499645227E+02  0.00000000000E+00 0. -1.
        -14    1    4    4    0    0 -0.84038004974E+02  0.20559322554E+02  0.17458395062E+02  0.88260226501E+02  0.00000000000E+00 0.  1.
</event>
<event>
12    1  0.9966151E-001  0.1969608E+03  0.7818608E-02  0.1152610E+00
         21   -1    0    0  503  502  0.00000000000E+00  0.00000000000E+00  0.31425425099E+03  0.31425425099E+03  0.00000000000E+00 0. -1.
         21   -1    0    0  501  503 -0.00000000000E+00 -0.00000000000E+00 -0.12407480787E+03  0.12407480787E+03  0.00000000000E+00 0. -1.
          6    2    1    2  501    0 -0.92919969763E+02 -0.16804457323E+02  0.71764125313E+02  0.20962743564E+03  0.17284982362E+03 0.  0.
         24    2    3    3    0    0 -0.72818899612E+02  0.30037676457E+02  0.10067920723E+03  0.15083619071E+03  0.80064970574E+02 0.  0.
         -6    2    1    2    0  502  0.92919969763E+02  0.16804457323E+02  0.11841531781E+03  0.22870162322E+03  0.17136433236E+03 0.  0.
        -24    2    5    5    0    0 -0.14631868668E+00  0.50703607153E+02  0.42229140416E+02  0.10365399217E+03  0.79937304219E+02 0.  0.
          5    1    3    3  501    0 -0.20101070151E+02 -0.46842133780E+02 -0.28915081915E+02  0.58791244930E+02  0.47000000000E+01 0. -1.
        -11    1    4    4    0    0 -0.87947007967E+02  0.31171148610E+02  0.70118519503E+02  0.11671728018E+03  0.00000000000E+00 0.  1.
         12    1    4    4    0    0  0.15128108355E+02 -0.11334721521E+01  0.30560687725E+02  0.34118910530E+02  0.00000000000E+00 0. -1.
         -5    1    5    5    0  502  0.93066288450E+02 -0.33899149831E+02  0.76186177392E+02  0.12504763105E+03  0.47000000000E+01 0.  1.
         13    1    6    6    0    0 -0.10331498349E+02  0.26146048271E+02  0.63604588867E+02  0.69540631456E+02  0.00000000000E+00 0. -1.
        -14    1    6    6    0    0  0.10185179663E+02  0.24557558882E+02 -0.21375448451E+02  0.34113360718E+02  0.00000000000E+00 0.  1.
</event>
<event>
12    1  0.9966151E-001  0.2940297E+03  0.7818608E-02  0.1089182E+00
         21   -1    0    0  503  502  0.00000000000E+00  0.00000000000E+00  0.55676881647E+02  0.55676881647E+02  0.00000000000E+00 0.  1.
         21   -1    0    0  501  503 -0.00000000000E+00 -0.00000000000E+00 -0.15239604216E+04  0.15239604216E+04  0.00000000000E+00 0.  1.
          6    2    1    2  501    0 -0.21182735759E+03  0.88669230640E+02 -0.66706609386E+03  0.72617208378E+03  0.17209200970E+03 0.  0.
         24    2    3    3    0    0 -0.13443225229E+03  0.71300604693E+02 -0.59305736791E+03  0.61758546855E+03  0.80863852510E+02 0.  0.
         -6    2    1    2    0  502  0.21182735759E+03 -0.88669230640E+02 -0.80121744610E+03  0.85346521947E+03  0.18363121473E+03 0.  0.
        -24    2    5    5    0    0  0.13785779433E+03 -0.12278341909E+03 -0.45368199954E+03  0.49648027475E+03  0.81146577542E+02 0.  0.
          5    1    3    3  501    0 -0.77395105302E+02  0.17368625947E+02 -0.74008725951E+02  0.10858661524E+03  0.47000000000E+01 0. -1.
        -13    1    4    4    0    0  0.20357199604E+00 -0.97379853644E+00 -0.12925247731E+03  0.12925630590E+03  0.00000000000E+00 0.  1.
         14    1    4    4    0    0 -0.13463582429E+03  0.72274403229E+02 -0.46380489060E+03  0.48832916265E+03  0.00000000000E+00 0. -1.
         -5    1    5    5    0  502  0.73969563264E+02  0.34114188445E+02 -0.34753544656E+03  0.35698494472E+03  0.47000000000E+01 0.  1.
         11    1    6    6    0    0  0.37061024613E+02 -0.88835031284E+01 -0.17392047725E+03  0.17804709652E+03  0.00000000000E+00 0. -1.
        -12    1    6    6    0    0  0.10079676972E+03 -0.11389991596E+03 -0.27976152229E+03  0.31843317823E+03  0.00000000000E+00 0.  1.
</event>
<event>
12    1  0.9966151E-001  0.1939829E+03  0.7818608E-02  0.1155165E+00
         21   -1    0    0  501  502  0.00000000000E+00  0.00000000000E+00  0.26660792878E+03  0.26660792878E+03  0.00000000000E+00 0. -1.
         21   -1    0    0  502  503 -0.00000000000E+00 -0.00000000000E+00 -0.15290919385E+03  0.15290919385E+03  0.00000000000E+00 0. -1.
         -6    2    1    2    0  503 -0.55690687431E+02 -0.67731316546E+02 -0.31735223126E+01  0.19400886332E+03  0.17303289830E+03 0.  0.
        -24    2    3    3    0    0 -0.61547389785E+00 -0.20128559118E+02 -0.60433098580E+02  0.10127240482E+03  0.78729936325E+02 0.  0.
          6    2    1    2  501    0  0.55690687431E+02  0.67731316546E+02  0.11687225725E+03  0.22550825931E+03  0.17177271784E+03 0.  0.
         24    2    5    5    0    0 -0.13472276698E+02  0.51345878511E+02  0.82672589862E+01  0.95627029589E+02  0.79109289830E+02 0.  0.
          5    1    5    5  501    0  0.69162964129E+02  0.16385438035E+02  0.10860499826E+03  0.12988122972E+03  0.47000000000E+01 0. -1.
        -13    1    6    6    0    0  0.30083930651E+02  0.22978684710E+02  0.19297023375E+02  0.42490445344E+02  0.00000000000E+00 0.  1.
         14    1    6    6    0    0 -0.43556207349E+02  0.28367193801E+02 -0.11029764389E+02  0.53136584245E+02  0.00000000000E+00 0. -1.
         -5    1    3    3    0  503 -0.55075213533E+02 -0.47602757428E+02  0.57259576267E+02  0.92736458498E+02  0.47000000000E+01 0.  1.
         13    1    4    4    0    0  0.29989693532E+02 -0.21551551793E+02 -0.41138697069E+01  0.37158781288E+02  0.00000000000E+00 0. -1.
        -14    1    4    4    0    0 -0.30605167430E+02  0.14229926745E+01 -0.56319228873E+02  0.64113623532E+02  0.00000000000E+00 0.  1.
</event>
<event>
12    1  0.9966151E-001  0.2231152E+03  0.7818608E-02  0.1132654E+00
         21   -1    0    0  503  502  0.00000000000E+00  0.00000000000E+00  0.62108589452E+03  0.62108589452E+03  0.00000000000E+00 0. -1.
         21   -1    0    0  501  503 -0.00000000000E+00 -0.00000000000E+00 -0.78428264325E+02  0.78428264325E+02  0.00000000000E+00 0. -1.
          6    2    1    2  501    0 -0.53552205902E+02 -0.13173654841E+03  0.25184422142E+03  0.33646082616E+03  0.17192445647E+03 0.  0.
         24    2    3    3    0    0 -0.52564388726E+00 -0.21782392200E+02  0.16977654956E+03  0.18929110947E+03  0.80822635639E+02 0.  0.
         -6    2    1    2    0  502  0.53552205902E+02  0.13173654841E+03  0.29081340877E+03  0.36305333268E+03  0.16435609726E+03 0.  0.
        -24    2    5    5    0    0  0.73055694805E+02  0.77051291478E+02  0.26560154057E+03  0.29958214471E+03  0.89057548876E+02 0.  0.
          5    1    3    3  501    0 -0.53026562015E+02 -0.10995415621E+03  0.82067671860E+02  0.14716971669E+03  0.47000000000E+01 0. -1.
        -11    1    4    4    0    0 -0.14711727845E+02 -0.47406831545E+02  0.13492935870E+03  0.14376986629E+03  0.00000000000E+00 0.  1.
         12    1    4    4    0    0  0.14186083958E+02  0.25624439345E+02  0.34847190863E+02  0.45521243182E+02  0.00000000000E+00 0. -1.
         -5    1    5    5    0  502 -0.19503488903E+02  0.54685256931E+02  0.25211868205E+02  0.63471187979E+02  0.47000000000E+01 0.  1.
         13    1    6    6    0    0 -0.19556021740E+02  0.96915726999E+01  0.65351537168E+02  0.68899840188E+02  0.00000000000E+00 0. -1.
        -14    1    6    6    0    0  0.92611716546E+02  0.67359718778E+02  0.20025000340E+03  0.23068230452E+03  0.00000000000E+00 0.  1.
</event>
<event>
12    1  0.9966151E-001  0.2181180E+03  0.7818608E-02  0.1135697E+00
         21   -1    0    0  501  502  0.00000000000E+00  0.00000000000E+00  0.36805685320E+03  0.36805685320E+03  0.00000000000E+00 0.  1.
         21   -1    0    0  502  503 -0.00000000000E+00 -0.00000000000E+00 -0.15037439084E+03  0.15037439084E+03  0.00000000000E+00 0.  1.
         -6    2    1    2    0  503 -0.33312071400E+02  0.12653879797E+03  0.84062706599E+01  0.21615325236E+03  0.17184237436E+03 0.  0.
        -24    2    3    3    0    0  0.36788322025E+01  0.14964945362E+03 -0.60219610482E+01  0.16997216073E+03  0.80285606640E+02 0.  0.
          6    2    1    2  501    0  0.33312071400E+02 -0.12653879797E+03  0.20927619170E+03  0.30227799168E+03  0.17450988037E+03 0.  0.
         24    2    5    5    0    0  0.26845838464E+02 -0.16078799524E+03  0.16322949958E+03  0.24433657698E+03  0.80517171218E+02 0.  0.
          5    1    5    5  501    0  0.64662329360E+01  0.34249197265E+02  0.46046692126E+02  0.57941414700E+02  0.47000000000E+01 0. -1.
        -11    1    6    6    0    0 -0.43411567713E+01 -0.60885612234E-01  0.37902957882E+02  0.38150800324E+02  0.00000000000E+00 0.  1.
         12    1    6    6    0    0  0.31186995236E+02 -0.16072710963E+03  0.12532654169E+03  0.20618577665E+03  0.00000000000E+00 0. -1.
         -5    1    3    3    0  503 -0.36990903603E+02 -0.23110655648E+02  0.14428231708E+02  0.46181091629E+02  0.47000000000E+01 0.  1.
         11    1    4    4    0    0  0.35130478316E+02  0.35308484333E+02  0.83973999850E+01  0.50510948309E+02  0.00000000000E+00 0. -1.
        -12    1    4    4    0    0 -0.31451646113E+02  0.11434096929E+03 -0.14419361033E+02  0.11946121242E+03  0.00000000000E+00 0.  1.
</event>
<event>
12    1  0.9966151E-001  0.2322941E+03  0.7818608E-02  0.1125331E+00
         21   -1    0    0  503  502  0.00000000000E+00  0.00000000000E+00  0.92981268998E+03  0.92981268998E+03  0.00000000000E+00 0. -1.
         21   -1    0    0  501  503 -0.00000000000E+00 -0.00000000000E+00 -0.17167829615E+03  0.17167829615E+03  0.00000000000E+00 0. -1.
          6    2    1    2  501    0 -0.74738763099E+02  0.13631966375E+03  0.82845471117E+03  0.86040556736E+03  0.17260242884E+03 0.  0.
         24    2    3    3    0    0 -0.59741262912E+02  0.16505838968E+03  0.76707997203E+03  0.79083698261E+03  0.78728387926E+02 0.  0.
         -6    2    1    2    0  502  0.74738763099E+02 -0.13631966375E+03 -0.70320317344E+02  0.24108541877E+03  0.17031822767E+03 0.  0.
        -24    2    5    5    0    0  0.49613769984E+02 -0.19973864944E+02 -0.75504390172E+02  0.12185213989E+03  0.79287764558E+02 0.  0.
          5    1    3    3  501    0 -0.14997500188E+02 -0.28738725927E+02  0.61374739139E+02  0.69568584750E+02  0.47000000000E+01 0. -1.
        -11    1    4    4    0    0 -0.39282689628E+02  0.79658218443E+02  0.22868277206E+03  0.24532503278E+03  0.00000000000E+00 0.  1.
         12    1    4    4    0    0 -0.20458573284E+02  0.85400171238E+02  0.53839719997E+03  0.54551194982E+03  0.00000000000E+00 0. -1.
         -5    1    5    5    0  502  0.25124993115E+02 -0.11634579881E+03  0.51840728276E+01  0.11923327887E+03  0.47000000000E+01 0.  1.
         11    1    6    6    0    0  0.31592530404E+02  0.29019183990E+02 -0.27664276906E+02  0.51044228209E+02  0.00000000000E+00 0. -1.
        -12    1    6    6    0    0  0.18021239580E+02 -0.48993048934E+02 -0.47840113266E+02  0.70807911684E+02  0.00000000000E+00 0.  1.
</event>
<event>
12    1  0.9966151E-001  0.3151202E+03  0.7818608E-02  0.1077965E+00
         21   -1    0    0  503  502  0.00000000000E+00  0.00000000000E+00  0.68575178876E+03  0.68575178876E+03  0.00000000000E+00 0. -1.
         21   -1    0    0  501  503 -0.00000000000E+00 -0.00000000000E+00 -0.15480811412E+03  0.15480811412E+03  0.00000000000E+00 0. -1.
          6    2    1    2  501    0 -0.26380341255E+03  0.17983106133E+02  0.15748516964E+03  0.35191689709E+03  0.17067012398E+03 0.  0.
         24    2    3    3    0    0 -0.18780372224E+03 -0.48765893146E+02  0.12992273288E+03  0.24697329436E+03  0.80421024545E+02 0.  0.
         -6    2    1    2    0  502  0.26380341255E+03 -0.17983106133E+02  0.37345850501E+03  0.48864300579E+03  0.17142082595E+03 0.  0.
        -24    2    5    5    0    0  0.19522708913E+03 -0.75764224343E+02  0.27729641517E+03  0.35707322478E+03  0.82183647793E+02 0.  0.
          5    1    3    3  501    0 -0.75999690316E+02  0.66748999278E+02  0.27562436752E+02  0.10494360272E+03  0.47000000000E+01 0. -1.
        -13    1    4    4    0    0 -0.17714031866E+03 -0.20664334309E+02  0.12137166220E+03  0.21572386885E+03  0.00000000000E+00 0.  1.
         14    1    4    4    0    0 -0.10663403573E+02 -0.28101558836E+02  0.85510706839E+01  0.31249425509E+02  0.00000000000E+00 0. -1.
         -5    1    5    5    0  502  0.68576323417E+02  0.57781118210E+02  0.96162089835E+02  0.13156978102E+03  0.47000000000E+01 0.  1.
         13    1    6    6    0    0 -0.38361625547E+01 -0.47848135106E+01  0.35108546026E+02  0.35640154146E+02  0.00000000000E+00 0. -1.
        -14    1    6    6    0    0  0.19906325169E+03 -0.70979410832E+02  0.24218786915E+03  0.32143307063E+03  0.00000000000E+00 0.  1.
</event>
<event>
12    1  0.9966151E-001  0.1963943E+03  0.7818608E-02  0.1152990E+00
         21   -1    0    0  501  502  0.00000000000E+00  0.00000000000E+00  0.13530009191E+03  0.13530009191E+03  0.00000000000E+00 0. -1.
         21   -1    0    0  502  503 -0.00000000000E+00 -0.00000000000E+00 -0.32593244367E+03  0.32593244367E+03  0.00000000000E+00 0. -1.
         -6    2    1    2    0  503  0.89213628734E+02 -0.26704877939E+02 -0.12347522778E+02  0.19598510952E+03  0.17200430162E+03 0.  0.
        -24    2    3    3    0    0  0.12370010511E+03 -0.24635559785E+02  0.17580676839E+02  0.15003528620E+03  0.79327675482E+02 0.  0.
          6    2    1    2  501    0 -0.89213628734E+02  0.26704877939E+02 -0.17828482898E+03  0.26524742606E+03  0.17291181200E+03 0.  0.
         24    2    5    5    0    0 -0.22287103770E+02 -0.41545257529E+02 -0.50532196111E+02  0.10562266000E+03  0.79874401683E+02 0.  0.
          5    1    5    5  501    0 -0.66926524964E+02  0.68250135468E+02 -0.12775263287E+03  0.15962476606E+03  0.47000000000E+01 0. -1.
        -13    1    6    6    0    0 -0.40802918711E+02 -0.13582305008E+02 -0.57065164972E+02  0.71454812560E+02  0.00000000000E+00 0.  1.
         14    1    6    6    0    0  0.18515814941E+02 -0.27962952521E+02  0.65329688610E+01  0.34167847441E+02  0.00000000000E+00 0. -1.
         -5    1    3    3    0  503 -0.34486476377E+02 -0.20693181542E+01 -0.29928199618E+02  0.45949823317E+02  0.47000000000E+01 0.  1.
         13    1    4    4    0    0 -0.17120612585E+01 -0.17390766510E+02 -0.11721331165E+02  0.21041851578E+02  0.00000000000E+00 0. -1.
        -14    1    4    4    0    0  0.12541216637E+03 -0.72447932756E+01  0.29302008005E+02  0.12899343462E+03  0.00000000000E+00 0.  1.
</event>
<event>
12    1  0.9966151E-001  0.2341743E+03  0.7818608E-02  0.1123879E+00
         21   -1    0    0  503  502  0.00000000000E+00  0.00000000000E+00  0.83305261722E+03  0.83305261722E+03  0.00000000000E+00 0.  1.
         21   -1    0    0  501  503 -0.00000000000E+00 -0.00000000000E+00 -0.66984390069E+02  0.66984390069E+02  0.00000000000E+00 0.  1.
          6    2    1    2  501    0  0.15765063006E+03 -0.19194276314E+02  0.31752004442E+03  0.39403989889E+03  0.17095707621E+03 0.  0.
         24    2    3    3    0    0  0.18596111777E+03 -0.22211722188E+02  0.28299753109E+03  0.34904564791E+03  0.81672295183E+02 0.  0.
         -6    2    1    2    0  502 -0.15765063006E+03  0.19194276314E+02  0.44854818273E+03  0.50599710840E+03  0.17209142941E+03 0.  0.
        -24    2    5    5    0    0 -0.91544702337E+02  0.48436160396E+02  0.15425853861E+03  0.20292357590E+03  0.81583005352E+02 0.  0.
          5    1    3    3  501    0 -0.28310487710E+02  0.30174458735E+01  0.34522513332E+02  0.44994250975E+02  0.47000000000E+01 0. -1.
        -11    1    4    4    0    0 -0.78370523705E+01 -0.42970612208E+01  0.19627747770E+02  0.21566933196E+02  0.00000000000E+00 0.  1.
         12    1    4    4    0    0  0.19379817014E+03 -0.17914660967E+02  0.26336978332E+03  0.32747871472E+03  0.00000000000E+00 0. -1.
         -5    1    5    5    0  502 -0.66105927724E+02 -0.29241884082E+02  0.29428964412E+03  0.30307353250E+03  0.47000000000E+01 0.  1.
         13    1    6    6    0    0 -0.15401026164E+02  0.28351722463E+02  0.10545156617E+03  0.11027712628E+03  0.00000000000E+00 0. -1.
        -14    1    6    6    0    0 -0.76143676173E+02  0.20084437933E+02  0.48806972444E+02  0.92646449621E+02  0.00000000000E+00 0.  1.
</event>
<event>
12    1  0.9966151E-001  0.2209935E+03  0.7818608E-02  0.1135205E+00
         21   -1    0    0  501  502  0.00000000000E+00  0.00000000000E+00  0.78748789839E+03  0.78748789839E+03  0.00000000000E+00 0. -1.
         21   -1    0    0  502  503 -0.00000000000E+00 -0.00000000000E+00 -0.63727561979E+02  0.63727561979E+02  0.00000000000E+00 0. -1.
         -6    2    1    2    0  503  0.48971938518E+02 -0.11004638759E+03  0.46915024853E+03  0.51407389647E+03  0.17222530928E+03 0.  0.
        -24    2    3    3    0    0  0.24399283884E+02 -0.77643602255E+02  0.13160235624E+03  0.17405268325E+03  0.79695058527E+02 0.  0.
          6    2    1    2  501    0 -0.48971938518E+02  0.11004638759E+03  0.25461008789E+03  0.33714156390E+03  0.18528270040E+03 0.  0.
         24    2    5    5    0    0 -0.45934153006E+02  0.35301208782E+01  0.46551684286E+02  0.10333537808E+03  0.79929549530E+02 0.  0.
          5    1    5    5  501    0 -0.30377855115E+01  0.10651626672E+03  0.20805840360E+03  0.23380618582E+03  0.47000000000E+01 0. -1.
        -13    1    6    6    0    0  0.19378113446E+02 -0.78835838044E+01  0.27106451806E+02  0.34240646954E+02  0.00000000000E+00 0.  1.
         14    1    6    6    0    0 -0.65312266452E+02  0.11413704683E+02  0.19445232480E+02  0.69094731130E+02  0.00000000000E+00 0. -1.
         -5    1    3    3    0  503  0.24572654634E+02 -0.32402785340E+02  0.33754789229E+03  0.34002121322E+03  0.47000000000E+01 0.  1.
         13    1    4    4    0    0 -0.56408870743E+01 -0.29737302441E+02  0.10905491138E+03  0.11317729658E+03  0.00000000000E+00 0. -1.
        -14    1    4    4    0    0  0.30040170958E+02 -0.47906299814E+02  0.22547444853E+02  0.60875386672E+02  0.00000000000E+00 0.  1.
</event>
<event>
12    1  0.9966151E-001  0.2143375E+03  0.7818608E-02  0.1138235E+00
         21   -1    0    0  503  502  0.00000000000E+00  0.00000000000E+00  0.35458668423E+03  0.35458668423E+03  0.00000000000E+00 0.  1.
         21   -1    0    0  501  503 -0.00000000000E+00 -0.00000000000E+00 -0.17188058708E+03  0.17188058708E+03  0.00000000000E+00 0.  1.
          6    2    1    2  501    0 -0.47372893115E+02 -0.11790072804E+03  0.22229857570E+03  0.30879961622E+03  0.17261452298E+03 0.  0.
         24    2    3    3    0    0  0.33496820695E+02 -0.42003167228E+02  0.66827663774E+02  0.11776651750E+03  0.80726160229E+02 0.  0.
         -6    2    1    2    0  502  0.47372893115E+02  0.11790072804E+03 -0.39592478549E+02  0.21766765509E+03  0.17224073572E+03 0.  0.
        -24    2    5    5    0    0  0.64849052432E+02  0.14872988760E+03 -0.18151124719E+02  0.17598222745E+03  0.65683346312E+02 0.  0.
          5    1    3    3  501    0 -0.80869713811E+02 -0.75897560811E+02  0.15547091193E+03  0.19103309871E+03  0.47000000000E+01 0. -1.
        -11    1    4    4    0    0  0.76115216252E+01 -0.56290279141E+02  0.67464980819E+02  0.88193278793E+02  0.00000000000E+00 0.  1.
         12    1    4    4    0    0  0.25885299070E+02  0.14287111913E+02 -0.63731704524E+00  0.29573238710E+02  0.00000000000E+00 0. -1.
         -5    1    5    5    0  502 -0.17476159316E+02 -0.30829159560E+02 -0.21441353829E+02  0.41685427642E+02  0.47000000000E+01 0.  1.
         11    1    6    6    0    0  0.67012972318E+02  0.80330982651E+02  0.20401093813E+01  0.10463253451E+03  0.00000000000E+00 0. -1.
        -12    1    6    6    0    0 -0.21639198859E+01  0.68398904949E+02 -0.20191234101E+02  0.71349692936E+02  0.00000000000E+00 0.  1.
</event>
<event>
12    1  0.9966151E-001  0.4200344E+03  0.7818608E-02  0.1037352E+00
         21   -1    0    0  503  502  0.00000000000E+00  0.00000000000E+00  0.32163090346E+03  0.32163090346E+03  0.00000000000E+00 0. -1.
         21   -1    0    0  501  503 -0.00000000000E+00 -0.00000000000E+00 -0.94049035910E+03  0.94049035910E+03  0.00000000000E+00 0.  1.
          6    2    1    2  501    0  0.20442409228E+03 -0.32355612431E+03  0.10118739690E+03  0.42851683190E+03  0.16404271045E+03 0.  0.
         24    2    3    3    0    0  0.29874129378E+02 -0.97109396885E+02  0.43999241196E+02  0.13690341475E+03  0.80522749428E+02 0.  0.
         -6    2    1    2    0  502 -0.20442409228E+03  0.32355612431E+03 -0.72004685254E+03  0.83360443066E+03  0.17306386647E+03 0.  0.
        -24    2    5    5    0    0 -0.12991631124E+03  0.30943872736E+03 -0.58305910474E+03  0.67695691750E+03  0.75380200421E+02 0.  0.
          5    1    3    3  501    0  0.17454996290E+03 -0.22644672743E+03  0.57188155708E+02  0.29161341715E+03  0.47000000000E+01 0. -1.
        -13    1    4    4    0    0  0.22174226195E+02 -0.89952733263E+02  0.10136036589E+01  0.92651054615E+02  0.00000000000E+00 0.  1.
         14    1    4    4    0    0  0.76999031823E+01 -0.71566636222E+01  0.42985637538E+02  0.44252360137E+02  0.00000000000E+00 0. -1.
         -5    1    5    5    0  502 -0.74507781035E+02  0.14117396955E+02 -0.13698774780E+03  0.15664751316E+03  0.47000000000E+01 0.  1.
         11    1    6    6    0    0 -0.95834984636E+02  0.13119219098E+03 -0.27933194203E+03  0.32314403769E+03  0.00000000000E+00 0. -1.
        -12    1    6    6    0    0 -0.34081326607E+02  0.17824653638E+03 -0.30372716271E+03  0.35381287981E+03  0.00000000000E+00 0.  1.
</event>
<event>
12    1  0.9966151E-001  0.2406533E+03  0.7818608E-02  0.1120057E+00
         21   -1    0    0  501  502  0.00000000000E+00  0.00000000000E+00  0.36006058711E+03  0.36006058711E+03  0.00000000000E+00 0.  1.
         21   -1    0    0  502  503 -0.00000000000E+00 -0.00000000000E+00 -0.40871092651E+03  0.40871092651E+03  0.00000000000E+00 0.  1.
         -6    2    1    2    0  503  0.16350977508E+03  0.85948169384E+01 -0.32525047896E+03  0.40213593702E+03  0.17063446415E+03 0.  0.
        -24    2    3    3    0    0  0.47577230676E+02 -0.50961611448E+02 -0.15139091449E+03  0.18479620027E+03  0.79810700556E+02 0.  0.
          6    2    1    2  501    0 -0.16350977508E+03 -0.85948169384E+01  0.27660013957E+03  0.36663557661E+03  0.17636522163E+03 0.  0.
         24    2    5    5    0    0 -0.17966886538E+03  0.22043380429E+02  0.19507500612E+03  0.27793240462E+03  0.80158291623E+02 0.  0.
          5    1    5    5  501    0  0.16159090305E+02 -0.30638197367E+02  0.81525133442E+02  0.88703171985E+02  0.47000000000E+01 0. -1.
        -13    1    6    6    0    0 -0.57228847921E+02  0.26622995362E+02  0.11613527584E+03  0.13217914817E+03  0.00000000000E+00 0.  1.
         14    1    6    6    0    0 -0.12244001746E+03 -0.45796149335E+01  0.78939730282E+02  0.14575325645E+03  0.00000000000E+00 0. -1.
         -5    1    3    3    0  503  0.11593254440E+03  0.59556428386E+02 -0.17385956447E+03  0.21733973675E+03  0.47000000000E+01 0.  1.
         13    1    4    4    0    0 -0.44427836513E+01  0.66792324447E+01  0.55120524478E+01  0.97330979041E+01  0.00000000000E+00 0. -1.
        -14    1    4    4    0    0  0.52020014327E+02 -0.57640843893E+02 -0.15690296694E+03  0.17506310237E+03  0.00000000000E+00 0.  1.
</event>
<event>
12    1  0.9966151E-001  0.2311952E+03  0.7818608E-02  0.1125905E+00
         21   -1    0    0  503  502  0.00000000000E+00  0.00000000000E+00  0.28029082711E+03  0.28029082711E+03  0.00000000000E+00 0. -1.
         21   -1    0    0  501  503 -0.00000000000E+00 -0.00000000000E+00 -0.19197672085E+03  0.19197672085E+03  0.00000000000E+00 0. -1.
          6    2    1    2  501    0 -0.15355895579E+03  0.91964691593E+01  0.21557833748E+02  0.23219811063E+03  0.17258706335E+03 0.  0.
         24    2    3    3    0    0 -0.69913249224E+02 -0.27051662720E+02  0.68930174592E+02  0.12935473472E+03  0.79759786558E+02 0.  0.
         -6    2    1    2    0  502  0.15355895579E+03 -0.91964691593E+01  0.66756272518E+02  0.24006943732E+03  0.17179059016E+03 0.  0.
        -24    2    5    5    0    0  0.83443563407E+02  0.61352337514E+02  0.34905931265E+02  0.13552357844E+03  0.80132881405E+02 0.  0.
          5    1    3    3  501    0 -0.83645706571E+02  0.36248131879E+02 -0.47372340844E+02  0.10284337591E+03  0.47000000000E+01 0. -1.
        -11    1    4    4    0    0 -0.73033935850E+02 -0.48560067665E+02  0.54218434492E+02  0.10311001210E+03  0.00000000000E+00 0.  1.
         12    1    4    4    0    0  0.31206866259E+01  0.21508404945E+02  0.14711740100E+02  0.26244722614E+02  0.00000000000E+00 0. -1.
         -5    1    5    5    0  502  0.70115392388E+02 -0.70548806674E+02  0.31850341252E+02  0.10454585889E+03  0.47000000000E+01 0.  1.
         13    1    6    6    0    0 -0.81552247596E+01  0.13672111778E+02 -0.14057744193E+02  0.21238043769E+02  0.00000000000E+00 0. -1.
        -14    1    6    6    0    0  0.91598788167E+02  0.47680225736E+02  0.48963675458E+02  0.11428553467E+03  0.00000000000E+00 0.  1.
</event>
<event>
12    1  0.9966151E-001  0.3099614E+03  0.7818608E-02  0.1080674E+00
         21   -1    0    0  503  502  0.00000000000E+00  0.00000000000E+00  0.85737481893E+03  0.85737481893E+03  0.00000000000E+00 0. -1.
         21   -1    0    0  501  503 -0.00000000000E+00 -0.00000000000E+00 -0.22335391536E+03  0.22335391536E+03  0.00000000000E+00 0.  1.
          6    2    1    2  501    0 -0.81952293044E+02  0.24225313961E+03  0.70069251710E+03  0.76618930920E+03  0.17513792289E+03 0.  0.
         24    2    3    3    0    0 -0.62278165552E+01  0.85831253025E+02  0.16351802397E+03  0.20158278337E+03  0.80570991643E+02 0.  0.
         -6    2    1    2    0  502  0.81952293044E+02 -0.24225313961E+03 -0.66671613533E+02  0.31453942508E+03  0.17054965228E+03 0.  0.
        -24    2    5    5    0    0  0.72017852210E+01 -0.10668322568E+03 -0.83139033123E+02  0.15878286538E+03  0.82865693488E+02 0.  0.
          5    1    3    3  501    0 -0.75724476489E+02  0.15642188658E+03  0.53717449313E+03  0.56460652583E+03  0.47000000000E+01 0. -1.
        -11    1    4    4    0    0 -0.39929963684E+02  0.22571803190E+02  0.71401674584E+02  0.84865113164E+02  0.00000000000E+00 0.  1.
         12    1    4    4    0    0  0.33702147129E+02  0.63259449836E+02  0.92116349384E+02  0.11671767021E+03  0.00000000000E+00 0. -1.
         -5    1    5    5    0  502  0.74750507823E+02 -0.13556991393E+03  0.16467419590E+02  0.15575655970E+03  0.47000000000E+01 0.  1.
         13    1    6    6    0    0  0.16172842237E+02 -0.54414721940E+02  0.38554532626E+01  0.56898043110E+02  0.00000000000E+00 0. -1.
        -14    1    6    6    0    0 -0.89710570165E+01 -0.52268503740E+02 -0.86994486385E+02  0.10188482227E+03  0.00000000000E+00 0.  1.
</event>
<event>
12    1  0.9966151E-001  0.3005344E+03  0.7818608E-02  0.1084981E+00
         21   -1    0    0  501  502  0.00000000000E+00  0.00000000000E+00  0.55235773898E+03  0.55235773898E+03  0.00000000000E+00 0. -1.
         21   -1    0    0  502  503 -0.00000000000E+00 -0.00000000000E+00 -0.21263745086E+03  0.21263745086E+03  0.00000000000E+00 0.  1.
         -6    2    1    2    0  503 -0.11854463400E+02 -0.24588854121E+03 -0.14021177557E+02  0.30086129288E+03  0.17239263654E+03 0.  0.
        -24    2    3    3    0    0  0.20879082035E+02 -0.24743443338E+03  0.82079729307E+01  0.26098523602E+03  0.79913626572E+02 0.  0.
          6    2    1    2  501    0  0.11854463400E+02  0.24588854121E+03  0.35374146568E+03  0.46413389695E+03  0.17229494119E+03 0.  0.
         24    2    5    5    0    0 -0.19239105577E+02  0.48900212902E+02  0.76673552152E+02  0.12272515332E+03  0.80132737710E+02 0.  0.
          5    1    5    5  501    0  0.31093568977E+02  0.19698832831E+03  0.27706791353E+03  0.34140874363E+03  0.47000000000E+01 0. -1.
        -13    1    6    6    0    0  0.18230868425E+02 -0.13379826794E+02  0.12924735339E+02  0.26046748590E+02  0.00000000000E+00 0.  1.
         14    1    6    6    0    0 -0.37469974002E+02  0.62280039696E+02  0.63748816813E+02  0.96678404731E+02  0.00000000000E+00 0. -1.
         -5    1    3    3    0  503 -0.32733545435E+02  0.15458921690E+01 -0.22229150488E+02  0.39876056861E+02  0.47000000000E+01 0.  1.
         11    1    4    4    0    0 -0.90596298939E+01 -0.10611432171E+03  0.38757975490E+02  0.11333360856E+03  0.00000000000E+00 0. -1.
        -12    1    4    4    0    0  0.29938711928E+02 -0.14132011168E+03 -0.30550002559E+02  0.14765162746E+03  0.00000000000E+00 0.  1.
</event>
<event>
12    1  0.9966151E-001  0.2467677E+03  0.7818608E-02  0.1115366E+00
         21   -1    0    0  501  502  0.00000000000E+00  0.00000000000E+00  0.15267012858E+03  0.15267012858E+03  0.00000000000E+00 0.  1.
         21   -1    0    0  502  503 -0.00000000000E+00 -0.00000000000E+00 -0.39886353217E+03  0.39886353217E+03  0.00000000000E+00 0.  1.
         -6    2    1    2    0  503  0.16271968255E+03  0.70809488047E+02 -0.12175435359E+03  0.27516979112E+03  0.17147190044E+03 0.  0.
        -24    2    3    3    0    0  0.17935972521E+03  0.87964401341E+02 -0.87190564746E+02  0.23288589857E+03  0.82012195702E+02 0.  0.
          6    2    1    2  501    0 -0.16271968255E+03 -0.70809488047E+02 -0.12443905000E+03  0.27636386962E+03  0.17146496021E+03 0.  0.
         24    2    5    5    0    0 -0.17763607351E+03 -0.70177215581E+02 -0.14278551920E+03  0.25224787037E+03  0.82230574700E+02 0.  0.
          5    1    5    5  501    0  0.14916390959E+02 -0.63227246557E+00  0.18346469200E+02  0.24115999250E+02  0.47000000000E+01 0. -1.
        -11    1    6    6    0    0 -0.87953861213E+02  0.60435241138E+01 -0.43708904449E+02  0.98401596603E+02  0.00000000000E+00 0.  1.
         12    1    6    6    0    0 -0.89682212297E+02 -0.76220739695E+02 -0.99076614749E+02  0.15384627377E+03  0.00000000000E+00 0. -1.
         -5    1    3    3    0  503 -0.16640042656E+02 -0.17154913294E+02 -0.34563788845E+02  0.42283892548E+02  0.47000000000E+01 0.  1.
         11    1    4    4    0    0  0.14189167863E+03  0.29539503703E+02 -0.72014519469E+02  0.16183918487E+03  0.00000000000E+00 0. -1.
        -12    1    4    4    0    0  0.37468046575E+02  0.58424897638E+02 -0.15176045277E+02  0.71046713706E+02  0.00000000000E+00 0.  1.
</event>
<event>
12    1  0.9966151E-001  0.2107814E+03  0.7818608E-02  0.1142342E+00
         21   -1    0    0  501  502  0.00000000000E+00  0.00000000000E+00  0.17584686458E+04  0.17584686458E+04  0.00000000000E+00 0. -1.
         21   -1    0    0  502  503 -0.00000000000E+00 -0.00000000000E+00 -0.25959010062E+02  0.25959010062E+02  0.00000000000E+00 0. -1.
         -6    2    1    2    0  503  0.45392513275E+02  0.10561448496E+03  0.63679512370E+03  0.66862341270E+03  0.16832806878E+03 0.  0.
        -24    2    3    3    0    0 -0.22135173452E+02  0.82445583348E+02  0.49071583730E+03  0.50596415414E+03  0.88940722869E+02 0.  0.
          6    2    1    2  501    0 -0.45392513275E+02 -0.10561448496E+03  0.10957145120E+04  0.11158042431E+04  0.17667460906E+03 0.  0.
         24    2    5    5    0    0 -0.50674242255E+02 -0.90792031698E+02  0.10900248688E+04  0.10984242598E+04  0.87009010800E+02 0.  0.
          5    1    5    5  501    0  0.52817289799E+01 -0.14822453261E+02  0.56896431634E+01  0.17379983343E+02  0.47000000000E+01 0. -1.
        -13    1    6    6    0    0 -0.12857583516E+02  0.94405294476E+01  0.38273639847E+03  0.38306865150E+03  0.00000000000E+00 0.  1.
         14    1    6    6    0    0 -0.37816658739E+02 -0.10023256115E+03  0.70728847037E+03  0.71535560829E+03  0.00000000000E+00 0. -1.
         -5    1    3    3    0  503  0.67527686726E+02  0.23168901611E+02  0.14607928640E+03  0.16265925855E+03  0.47000000000E+01 0.  1.
         11    1    4    4    0    0  0.51386009565E+01  0.91922062440E+02  0.32661755874E+03  0.33934510525E+03  0.00000000000E+00 0. -1.
        -12    1    4    4    0    0 -0.27273774408E+02 -0.94764790925E+01  0.16409827856E+03  0.16661904889E+03  0.00000000000E+00 0.  1.
</event>
<event>
12    1  0.9966151E-001  0.2101706E+03  0.7818608E-02  0.1141911E+00
         21   -1    0    0  501  502  0.00000000000E+00  0.00000000000E+00  0.15376890749E+03  0.15376890749E+03  0.00000000000E+00 0.  1.
         21   -1    0    0  502  503 -0.00000000000E+00 -0.00000000000E+00 -0.64037750931E+03  0.64037750931E+03  0.00000000000E+00 0.  1.
         -6    2    1    2    0  503  0.11733990941E+03  0.19557882439E+00  0.52297409534E+02  0.21657957846E+03  0.17436456685E+03 0.  0.
        -24    2    3    3    0    0  0.12189363773E+03  0.54107540623E+02  0.38448876644E+02  0.16053399050E+03  0.80666976638E+02 0.  0.
          6    2    1    2  501    0 -0.11733990941E+03 -0.19557882439E+00 -0.53890601135E+03  0.57756683834E+03  0.17144990841E+03 0.  0.
         24    2    5    5    0    0 -0.81909782954E+02 -0.64371629752E+02 -0.29534114230E+03  0.32316598377E+03  0.79730442549E+02 0.  0.
          5    1    5    5  501    0 -0.35430126455E+02  0.64176050927E+02 -0.24356486905E+03  0.25440085458E+03  0.47000000000E+01 0. -1.
        -13    1    6    6    0    0 -0.60997960140E+02 -0.29178067799E+02 -0.26135212059E+03  0.26995748132E+03  0.00000000000E+00 0.  1.
         14    1    6    6    0    0 -0.20911822815E+02 -0.35193561953E+02 -0.33989021710E+02  0.53208502452E+02  0.00000000000E+00 0. -1.
         -5    1    3    3    0  503 -0.45537283207E+01 -0.53911961798E+02  0.13848532891E+02  0.56045587960E+02  0.47000000000E+01 0.  1.
         13    1    4    4    0    0  0.21745854811E+02  0.45543307218E+02  0.32117499827E+02  0.59821474647E+02  0.00000000000E+00 0. -1.
        -14    1    4    4    0    0  0.10014778292E+03  0.85642334041E+01  0.63313768168E+01  0.10071251585E+03  0.00000000000E+00 0.  1.
</event>
<event>
12    1  0.9966151E-001  0.2054919E+03  0.7818608E-02  0.1145189E+00
         21   -1    0    0  501  502  0.00000000000E+00  0.00000000000E+00  0.67537564543E+03  0.67537564543E+03  0.00000000000E+00 0.  1.
         21   -1    0    0  502  503 -0.00000000000E+00 -0.00000000000E+00 -0.10157593309E+03  0.10157593309E+03  0.00000000000E+00 0.  1.
         -6    2    1    2    0  503 -0.10551789810E+03  0.36657501072E+02  0.46017906912E+02  0.21058151483E+03  0.17247935363E+03 0.  0.
        -24    2    3    3    0    0 -0.90799245145E+02 -0.24038416808E+02  0.44934292225E+02  0.14794049462E+03  0.10509496149E+03 0.  0.
          6    2    1    2  501    0  0.10551789810E+03 -0.36657501072E+02  0.52778180543E+03  0.56637006369E+03  0.17246337493E+03 0.  0.
         24    2    5    5    0    0  0.36876838255E+02  0.24613842120E+02  0.13508272635E+03  0.16300865093E+03  0.79741676023E+02 0.  0.
          5    1    5    5  501    0  0.68641059849E+02 -0.61271343192E+02  0.39269907908E+03  0.40336141276E+03  0.47000000000E+01 0. -1.
        -13    1    6    6    0    0 -0.20548616373E+02  0.26797672833E+02  0.50567479798E+02  0.60806503906E+02  0.00000000000E+00 0.  1.
         14    1    6    6    0    0  0.57425454628E+02 -0.21838307128E+01  0.84515246554E+02  0.10220214702E+03  0.00000000000E+00 0. -1.
         -5    1    3    3    0  503 -0.14718652960E+02  0.60695917880E+02  0.10836146874E+01  0.62641020211E+02  0.47000000000E+01 0.  1.
         13    1    4    4    0    0 -0.11211608356E+03 -0.84277325603E+01  0.25901039359E+02  0.11537723653E+03  0.00000000000E+00 0. -1.
        -14    1    4    4    0    0  0.21316838419E+02 -0.15610684247E+02  0.19033252866E+02  0.32563258091E+02  0.00000000000E+00 0.  1.
</event>
<event>
12    1  0.9966151E-001  0.2744403E+03  0.7818608E-02  0.1098776E+00
         21   -1    0    0  501  502  0.00000000000E+00  0.00000000000E+00  0.48760565650E+02  0.48760565650E+02  0.00000000000E+00 0. -1.
         21   -1    0    0  502  503 -0.00000000000E+00 -0.00000000000E+00 -0.23075841344E+04  0.23075841344E+04  0.00000000000E+00 0.  1.
         -6    2    1    2    0  503 -0.16487378836E+03 -0.13670208843E+03 -0.18069471845E+04  0.18276578660E+04  0.17147688083E+03 0.  0.
        -24    2    3    3    0    0 -0.19154989864E+03 -0.13358640554E+03 -0.15753152480E+04  0.15944267224E+04  0.77728702741E+02 0.  0.
          6    2    1    2  501    0  0.16487378836E+03  0.13670208843E+03 -0.45187638420E+03  0.52868683396E+03  0.17160033431E+03 0.  0.
         24    2    5    5    0    0  0.18256080355E+03  0.84203615235E+02 -0.38486991088E+03  0.44161859830E+03  0.80519825223E+02 0.  0.
          5    1    5    5  501    0 -0.17687015186E+02  0.52498473195E+02 -0.67006473326E+02  0.87068235664E+02  0.47000000000E+01 0. -1.
        -11    1    6    6    0    0  0.17138372233E+03  0.98972857946E+02 -0.35614742790E+03  0.40744201709E+03  0.00000000000E+00 0.  1.
         12    1    6    6    0    0  0.11177081216E+02 -0.14769242711E+02 -0.28722482974E+02  0.34176581207E+02  0.00000000000E+00 0. -1.
         -5    1    3    3    0  503  0.26676110277E+02 -0.31156828887E+01 -0.23163193654E+03  0.23323114364E+03  0.47000000000E+01 0.  1.
         11    1    4    4    0    0 -0.23208078676E+02 -0.17435583438E+02 -0.43110871028E+03  0.43208486963E+03  0.00000000000E+00 0. -1.
        -12    1    4    4    0    0 -0.16834181996E+03 -0.11615082210E+03 -0.11442065377E+04  0.11623418528E+04  0.00000000000E+00 0.  1.
</event>
<event>
12    1  0.9966151E-001  0.3254380E+03  0.7818608E-02  0.1073192E+00
         21   -1    0    0  501  502  0.00000000000E+00  0.00000000000E+00  0.82072168026E+02  0.82072168026E+02  0.00000000000E+00 0.  1.
         21   -1    0    0  502  503 -0.00000000000E+00 -0.00000000000E+00 -0.19317183647E+04  0.19317183647E+04  0.00000000000E+00 0. -1.
         -6    2    1    2    0  503 -0.18173390370E+03  0.20778228648E+03 -0.34454622266E+03  0.47394304371E+03  0.17236362378E+03 0.  0.
        -24    2    3    3    0    0 -0.47837143877E+02  0.89389975890E+02 -0.22477576186E+03  0.25874050009E+03  0.78380757500E+02 0.  0.
          6    2    1    2  501    0  0.18173390370E+03 -0.20778228648E+03 -0.15050999741E+04  0.15398474891E+04  0.17205716297E+03 0.  0.
         24    2    5    5    0    0  0.23414932565E+02 -0.48666894692E+02 -0.37608887825E+03  0.38873031476E+03  0.82168653147E+02 0.  0.
          5    1    5    5  501    0  0.15831897113E+03 -0.15911539179E+03 -0.11290110958E+04  0.11511171743E+04  0.47000000000E+01 0. -1.
        -11    1    6    6    0    0  0.45820752155E+02 -0.46343762179E+02 -0.18157532349E+03  0.19291677927E+03  0.00000000000E+00 0.  1.
         12    1    6    6    0    0 -0.22405819590E+02 -0.23231325123E+01 -0.19451355476E+03  0.19581353549E+03  0.00000000000E+00 0. -1.
         -5    1    3    3    0  503 -0.13389675982E+03  0.11839231059E+03 -0.11977046080E+03  0.21520254361E+03  0.47000000000E+01 0.  1.
         13    1    4    4    0    0 -0.61628966570E+02  0.83681097969E+02 -0.21958561738E+03  0.24293723271E+03  0.00000000000E+00 0. -1.
        -14    1    4    4    0    0  0.13791822693E+02  0.57088779206E+01 -0.51901444814E+01  0.15803267385E+02  0.00000000000E+00 0.  1.
</event>
<event>
12    1  0.9966151E-001  0.3644001E+03  0.7818608E-02  0.1056899E+00
         21   -1    0    0  501  502  0.00000000000E+00  0.00000000000E+00  0.18900964293E+03  0.18900964293E+03  0.00000000000E+00 0.  1.
         21   -1    0    0  502  503 -0.00000000000E+00 -0.00000000000E+00 -0.89334440627E+03  0.89334440627E+03  0.00000000000E+00 0. -1.
         -6    2    1    2    0  503  0.27180238783E+03 -0.16854659137E+03 -0.60300342816E+03  0.70455699697E+03  0.17465089782E+03 0.  0.
        -24    2    3    3    0    0  0.64867448305E+02 -0.65118337101E+02 -0.29756499440E+03  0.32136748798E+03  0.79271386793E+02 0.  0.
          6    2    1    2  501    0 -0.27180238783E+03  0.16854659137E+03 -0.10133133518E+03  0.37779705223E+03  0.17371839769E+03 0.  0.
         24    2    5    5    0    0 -0.29167253104E+03  0.15721171714E+03 -0.95904932504E+02  0.35382127672E+03  0.78761351028E+02 0.  0.
          5    1    5    5  501    0  0.19870143213E+02  0.11334874234E+02 -0.54264026766E+01  0.23975775508E+02  0.47000000000E+01 0. -1.
        -13    1    6    6    0    0 -0.14762014615E+03  0.11925605650E+03 -0.35464199698E+02  0.19305808457E+03  0.00000000000E+00 0.  1.
         14    1    6    6    0    0 -0.14405238489E+03  0.37955660642E+02 -0.60440732805E+02  0.16076319215E+03  0.00000000000E+00 0. -1.
         -5    1    3    3    0  503  0.20693493952E+03 -0.10342825427E+03 -0.30543843376E+03  0.38318950898E+03  0.47000000000E+01 0.  1.
         13    1    4    4    0    0  0.21429844081E+02  0.95170845189E+01 -0.20463294386E+02  0.31121689096E+02  0.00000000000E+00 0. -1.
        -14    1    4    4    0    0  0.43437604224E+02 -0.74635421620E+02 -0.27710170001E+03  0.29024579889E+03  0.00000000000E+00 0.  1.
</event>
<event>
12    1  0.9966151E-001  0.3067106E+03  0.7818608E-02  0.1081998E+00
         21   -1    0    0  501  502  0.00000000000E+00  0.00000000000E+00  0.26650425109E+03  0.26650425109E+03  0.00000000000E+00 0.  1.
         21   -1    0    0  502  503 -0.00000000000E+00 -0.00000000000E+00 -0.45226330696E+03  0.45226330696E+03  0.00000000000E+00 0.  1.
         -6    2    1    2    0  503 -0.20446289323E+03 -0.15008460631E+03 -0.26183750886E+03  0.40327443754E+03  0.17245558028E+03 0.  0.
        -24    2    3    3    0    0 -0.18054650419E+03 -0.15850996538E+03 -0.16370357549E+03  0.30180848651E+03  0.81037353117E+02 0.  0.
          6    2    1    2  501    0  0.20446289323E+03  0.15008460631E+03  0.76078452995E+02  0.31549312051E+03  0.17151534720E+03 0.  0.
         24    2    5    5    0    0  0.22006173126E+03  0.16237187778E+03  0.76596868865E+02  0.29508088047E+03  0.80086537195E+02 0.  0.
          5    1    5    5  501    0 -0.15598838037E+02 -0.12287271475E+02 -0.51841587009E+00  0.20412240039E+02  0.47000000000E+01 0. -1.
        -13    1    6    6    0    0  0.17127971546E+03  0.94384052242E+02  0.80094590881E+02  0.21132968020E+03  0.00000000000E+00 0.  1.
         14    1    6    6    0    0  0.48782015799E+02  0.67987825539E+02 -0.34977220164E+01  0.83751200267E+02  0.00000000000E+00 0. -1.
         -5    1    3    3    0  503 -0.23916389038E+02  0.84253590732E+01 -0.98133933371E+02  0.10146595103E+03  0.47000000000E+01 0.  1.
         13    1    4    4    0    0 -0.16538112275E+03 -0.10473915420E+03 -0.14215571880E+03  0.24192861462E+03  0.00000000000E+00 0. -1.
        -14    1    4    4    0    0 -0.15165381435E+02 -0.53770811182E+02 -0.21547856695E+02  0.59879871888E+02  0.00000000000E+00 0.  1.
</event>
<event>
12    1  0.9966151E-001  0.2748123E+03  0.7818608E-02  0.1098630E+00
         21   -1    0    0  503  502  0.00000000000E+00  0.00000000000E+00  0.52367907441E+02  0.52367907441E+02  0.00000000000E+00 0. -1.
         21   -1    0    0  501  503 -0.00000000000E+00 -0.00000000000E+00 -0.14395924667E+04  0.14395924667E+04  0.00000000000E+00 0. -1.
          6    2    1    2  501    0  0.21418125219E+03 -0.36211731494E+01 -0.68546807559E+03  0.73850407330E+03  0.17214837190E+03 0.  0.
         24    2    3    3    0    0  0.22648326183E+03  0.85138719254E+01 -0.52815572296E+03  0.58017572761E+03  0.79298507591E+02 0.  0.
         -6    2    1    2    0  502 -0.21418125219E+03  0.36211731494E+01 -0.70175648369E+03  0.75345630086E+03  0.17131115907E+03 0.  0.
        -24    2    5    5    0    0 -0.69947798100E+02  0.54336935084E+02 -0.31546588643E+03  0.33798320508E+03  0.82877768080E+02 0.  0.
          5    1    3    3  501    0 -0.12302009642E+02 -0.12135045075E+02 -0.15731235263E+03  0.15832834569E+03  0.47000000000E+01 0. -1.
        -11    1    4    4    0    0  0.13755219914E+03 -0.76814792133E+01 -0.40220124248E+03  0.42514168469E+03  0.00000000000E+00 0.  1.
         12    1    4    4    0    0  0.88931062691E+02  0.16195351139E+02 -0.12595448048E+03  0.15503404292E+03  0.00000000000E+00 0. -1.
         -5    1    5    5    0  502 -0.14423345409E+03 -0.50715761935E+02 -0.38629059726E+03  0.41547309578E+03  0.47000000000E+01 0.  1.
         11    1    6    6    0    0 -0.27029009798E+02  0.65842409291E+02 -0.14097015222E+03  0.15791888439E+03  0.00000000000E+00 0. -1.
        -12    1    6    6    0    0 -0.42918788301E+02 -0.11505474207E+02 -0.17449573421E+03  0.18006432069E+03  0.00000000000E+00 0.  1.
</event>
<event>
12    1  0.9966151E-001  0.1818748E+03  0.7818608E-02  0.1166350E+00
         21   -1    0    0  501  502  0.00000000000E+00  0.00000000000E+00  0.30555433635E+03  0.30555433635E+03  0.00000000000E+00 0. -1.
         21   -1    0    0  502  503 -0.00000000000E+00 -0.00000000000E+00 -0.10742294592E+03  0.10742294592E+03  0.00000000000E+00 0. -1.
         -6    2    1    2    0  503 -0.53709723465E+02 -0.17565635899E+02  0.95897920649E+02  0.20560850529E+03  0.17287324924E+03 0.  0.
        -24    2    3    3    0    0 -0.78337476682E+02 -0.59372165771E+02  0.43340437001E+02  0.13392383988E+03  0.79971164092E+02 0.  0.
          6    2    1    2  501    0  0.53709723465E+02  0.17565635899E+02  0.10223346978E+03  0.20736877698E+03  0.17133838263E+03 0.  0.
         24    2    5    5    0    0  0.95525600907E+02  0.32718257869E+02  0.49565187672E+02  0.13827313675E+03  0.80418453671E+02 0.  0.
          5    1    5    5  501    0 -0.41815877442E+02 -0.15152621969E+02  0.52668282104E+02  0.69095640229E+02  0.47000000000E+01 0. -1.
        -13    1    6    6    0    0  0.16340421193E+02 -0.12001045606E+02 -0.16277227379E+02  0.25999665220E+02  0.00000000000E+00 0.  1.
         14    1    6    6    0    0  0.79185179714E+02  0.44719303474E+02  0.65842415051E+02  0.11227347153E+03  0.00000000000E+00 0. -1.
         -5    1    3    3    0  503  0.24627753217E+02  0.41806529872E+02  0.52557483647E+02  0.71684665416E+02  0.47000000000E+01 0.  1.
         11    1    4    4    0    0  0.15521898072E+02 -0.14980917445E+02  0.42421332151E+00  0.21576310254E+02  0.00000000000E+00 0. -1.
        -12    1    4    4    0    0 -0.93859374754E+02 -0.44391248326E+02  0.42916223680E+02  0.11234752962E+03  0.00000000000E+00 0.  1.
</event>
<event>
12    1  0.9966151E-001  0.2064856E+03  0.7818608E-02  0.1144791E+00
         21   -1    0    0  503  502  0.00000000000E+00  0.00000000000E+00  0.52853691982E+02  0.52853691982E+02  0.00000000000E+00 0. -1.
         21   -1    0    0  501  503 -0.00000000000E+00 -0.00000000000E+00 -0.26697940326E+04  0.26697940326E+04  0.00000000000E+00 0. -1.
          6    2    1    2  501    0  0.10279539246E+03 -0.41144135615E+02 -0.16693090385E+03  0.26395243392E+03  0.17188725405E+03 0.  0.
         24    2    3    3    0    0  0.19097015734E+02  0.34410887108E+02 -0.97961793404E+02  0.13169205466E+03  0.78724069588E+02 0.  0.
         -6    2    1    2    0  502 -0.10279539246E+03  0.41144135615E+02 -0.24500094367E+04  0.24586952906E+04  0.17428872451E+03 0.  0.
        -24    2    5    5    0    0  0.13613567997E+02 -0.10000414691E+01 -0.84356036773E+03  0.84747591418E+03  0.80218462983E+02 0.  0.
          5    1    3    3  501    0  0.83698376725E+02 -0.75555022724E+02 -0.68969110450E+02  0.13226037926E+03  0.47000000000E+01 0. -1.
        -13    1    4    4    0    0  0.36529063509E+02 -0.10921537285E+02 -0.54527717520E+02  0.66535136848E+02  0.00000000000E+00 0.  1.
         14    1    4    4    0    0 -0.17432047775E+02  0.45332424393E+02 -0.43434075885E+02  0.65156917813E+02  0.00000000000E+00 0. -1.
         -5    1    5    5    0  502 -0.11640896046E+03  0.42144177084E+02 -0.16064490690E+04  0.16112193764E+04  0.47000000000E+01 0.  1.
         13    1    6    6    0    0  0.47681193403E+01 -0.31260932465E+02 -0.15493234221E+03  0.15812656805E+03  0.00000000000E+00 0. -1.
        -14    1    6    6    0    0  0.88454486570E+01  0.30260890996E+02 -0.68862802551E+03  0.68934934613E+03  0.00000000000E+00 0.  1.
</event>
<event>
12    1  0.9966151E-001  0.1734149E+03  0.7818608E-02  0.1174352E+00
         21   -1    0    0  503  502  0.00000000000E+00  0.00000000000E+00  0.55430381328E+02  0.55430381328E+02  0.00000000000E+00 0. -1.
         21   -1    0    0  501  503 -0.00000000000E+00 -0.00000000000E+00 -0.57643139358E+03  0.57643139358E+03  0.00000000000E+00 0. -1.
          6    2    1    2  501    0  0.86892303156E+01  0.61897524947E+01 -0.33733470656E+03  0.37926322857E+03  0.17300889149E+03 0.  0.
         24    2    3    3    0    0  0.50938530106E+02  0.13376914802E+02 -0.31770720816E+03  0.33189248519E+03  0.80256313830E+02 0.  0.
         -6    2    1    2    0  502 -0.86892303156E+01 -0.61897524947E+01 -0.18366630569E+03  0.25259854634E+03  0.17308638885E+03 0.  0.
        -24    2    5    5    0    0  0.58404720144E+02  0.75383390068E+01 -0.13751379904E+03  0.16988093905E+03  0.80508078088E+02 0.  0.
          5    1    3    3  501    0 -0.42249299791E+02 -0.71871623069E+01 -0.19627498400E+02  0.47370743379E+02  0.47000000000E+01 0. -1.
        -13    1    4    4    0    0 -0.13639404081E+01  0.37698360749E+02 -0.14399266163E+03  0.14885198467E+03  0.00000000000E+00 0.  1.
         14    1    4    4    0    0  0.52302470515E+02 -0.24321445947E+02 -0.17371454653E+03  0.18304050052E+03  0.00000000000E+00 0. -1.
         -5    1    5    5    0  502 -0.67093950459E+02 -0.13728091502E+02 -0.46152506652E+02  0.82717607284E+02  0.47000000000E+01 0.  1.
         11    1    6    6    0    0  0.13906929997E+02  0.24264432356E+02 -0.41190997994E+01  0.28268929281E+02  0.00000000000E+00 0. -1.
        -12    1    6    6    0    0  0.44497790147E+02 -0.16726093350E+02 -0.13339469924E+03  0.14161200977E+03  0.00000000000E+00 0.  1.
</event>
<event>
12    1  0.9966151E-001  0.4803649E+03  0.7818608E-02  0.1019213E+00
         21   -1    0    0  501  502  0.00000000000E+00  0.00000000000E+00  0.75861695806E+03  0.75861695806E+03  0.00000000000E+00 0. -1.
         21   -1    0    0  502  503 -0.00000000000E+00 -0.00000000000E+00 -0.38814414130E+03  0.38814414130E+03  0.00000000000E+00 0. -1.
         -6    2    1    2    0  503 -0.27927454059E+03  0.35103277728E+03  0.45412537558E+03  0.65916679885E+03  0.16447714801E+03 0.  0.
        -24    2    3    3    0    0 -0.12716945323E+03  0.12027943127E+03  0.25034628909E+03  0.31575586369E+03  0.79933031815E+02 0.  0.
          6    2    1    2  501    0  0.27927454059E+03 -0.35103277728E+03 -0.83652558815E+02  0.48759430051E+03  0.17184926985E+03 0.  0.
         24    2    5    5    0    0  0.26139669642E+03 -0.23011754517E+03 -0.74584710315E+02  0.36493857686E+03  0.79592514564E+02 0.  0.
          5    1    5    5  501    0  0.17877844174E+02 -0.12091523211E+03 -0.90678484999E+01  0.12265572365E+03  0.47000000000E+01 0. -1.
        -11    1    6    6    0    0  0.76912781954E+02 -0.83976569593E+02 -0.61020107781E+02  0.12919401620E+03  0.00000000000E+00 0.  1.
         12    1    6    6    0    0  0.18448391446E+03 -0.14614097558E+03 -0.13564602534E+02  0.23574456066E+03  0.00000000000E+00 0. -1.
         -5    1    3    3    0  503 -0.15210508736E+03  0.23075334601E+03  0.20377908649E+03  0.34341093516E+03  0.47000000000E+01 0.  1.
         11    1    4    4    0    0 -0.17851278031E+02  0.27080567493E+02  0.11092185852E+03  0.11556679437E+03  0.00000000000E+00 0. -1.
        -12    1    4    4    0    0 -0.10931817520E+03  0.93198863778E+02  0.13942443057E+03  0.20018906932E+03  0.00000000000E+00 0.  1.
</event>
<event>
12    1  0.9966151E-001  0.1976297E+03  0.7818608E-02  0.1152049E+00
         21   -1    0    0  501  502  0.00000000000E+00  0.00000000000E+00  0.63867839358E+02  0.63867839358E+02  0.00000000000E+00 0.  1.
         21   -1    0    0  502  503 -0.00000000000E+00 -0.00000000000E+00 -0.89722258674E+03  0.89722258674E+03  0.00000000000E+00 0. -1.
         -6    2    1    2    0  503 -0.43399887790E+02  0.84730644468E+02 -0.69082006895E+03  0.71853314258E+03  0.17318971374E+03 0.  0.
        -24    2    3    3    0    0  0.17813243649E+02  0.95880788267E+02 -0.55379148394E+03  0.56796655838E+03  0.79941019151E+02 0.  0.
          6    2    1    2  501    0  0.43399887790E+02 -0.84730644468E+02 -0.14253467843E+03  0.24255728352E+03  0.17162479093E+03 0.  0.
         24    2    5    5    0    0  0.54063207281E+02 -0.97412477988E+02 -0.46305697687E+02  0.14479920447E+03  0.80066039795E+02 0.  0.
          5    1    5    5  501    0 -0.10663319491E+02  0.12681833521E+02 -0.96228980741E+02  0.97758079045E+02  0.47000000000E+01 0. -1.
        -13    1    6    6    0    0  0.25760439099E+02 -0.72663932293E+02 -0.66773471330E+02  0.10199188082E+03  0.00000000000E+00 0.  1.
         14    1    6    6    0    0  0.28302768182E+02 -0.24748545695E+02  0.20467773643E+02  0.42807323657E+02  0.00000000000E+00 0. -1.
         -5    1    3    3    0  503 -0.61213131440E+02 -0.11150143800E+02 -0.13702858501E+03  0.15056658420E+03  0.47000000000E+01 0.  1.
         11    1    4    4    0    0 -0.17096287832E+02  0.74469051330E+02 -0.44904410139E+03  0.45549810939E+03  0.00000000000E+00 0. -1.
        -12    1    4    4    0    0  0.34909531481E+02  0.21411736937E+02 -0.10474738255E+03  0.11246844899E+03  0.00000000000E+00 0.  1.
</event>
<event>
12    1  0.9966151E-001  0.1932757E+03  0.7818608E-02  0.1155680E+00
         21   -1    0    0  501  502  0.00000000000E+00  0.00000000000E+00  0.12725143586E+03  0.12725143586E+03  0.00000000000E+00 0.  1.
         21   -1    0    0  502  503 -0.00000000000E+00 -0.00000000000E+00 -0.34922709687E+03  0.34922709687E+03  0.00000000000E+00 0.  1.
         -6    2    1    2    0  503  0.63823784550E+02  0.60307558845E+02 -0.14891125196E+02  0.19321274839E+03  0.17146120087E+03 0.  0.
        -24    2    3    3    0    0  0.11556272817E+02  0.44795765752E+02  0.53625809352E+02  0.10552484257E+03  0.78227596791E+02 0.  0.
          6    2    1    2  501    0 -0.63823784550E+02 -0.60307558845E+02 -0.20708453581E+03  0.28326578434E+03  0.17217729954E+03 0.  0.
         24    2    5    5    0    0 -0.86369487448E+02  0.49814553105E+00 -0.17466664415E+03  0.21061145134E+03  0.79930034062E+02 0.  0.
          5    1    5    5  501    0  0.22545702899E+02 -0.60805704376E+02 -0.32417891665E+02  0.72654333001E+02  0.47000000000E+01 0. -1.
        -13    1    6    6    0    0  0.69450414891E+01 -0.13207583227E+02 -0.61551688614E+02  0.63334700025E+02  0.00000000000E+00 0.  1.
         14    1    6    6    0    0 -0.93314528938E+02  0.13705728758E+02 -0.11311495554E+03  0.14727675131E+03  0.00000000000E+00 0. -1.
         -5    1    3    3    0  503  0.52267511733E+02  0.15511793093E+02 -0.68516934548E+02  0.87687905823E+02  0.47000000000E+01 0.  1.
         13    1    4    4    0    0  0.25706823526E+02  0.62273133050E+02  0.46776400712E+02  0.82017166125E+02  0.00000000000E+00 0. -1.
        -14    1    4    4    0    0 -0.14150550709E+02 -0.17477367298E+02  0.68494086400E+01  0.23507676443E+02  0.00000000000E+00 0.  1.
</event>
<event>
12    1  0.9966151E-001  0.2004069E+03  0.7818608E-02  0.1149410E+00
         21   -1    0    0  503  502  0.00000000000E+00  0.00000000000E+00  0.27343692809E+03  0.27343692809E+03  0.00000000000E+00 0. -1.
         21   -1    0    0  501  503 -0.00000000000E+00 -0.00000000000E+00 -0.14923677890E+03  0.14923677890E+03  0.00000000000E+00 0. -1.
          6    2    1    2  501    0 -0.10220473802E+03 -0.72857968341E+01  0.35292738523E+02  0.20349080819E+03  0.17223251818E+03 0.  0.
         24    2    3    3    0    0  0.11618117962E+02  0.12765881849E+02 -0.19583123960E+01  0.81969439058E+02  0.80107462497E+02 0.  0.
         -6    2    1    2    0  502  0.10220473802E+03  0.72857968341E+01  0.88907410666E+02  0.21918289880E+03  0.17215610400E+03 0.  0.
        -24    2    5    5    0    0  0.43903767872E+01 -0.41551625013E+02  0.28672174203E+02  0.94270462475E+02  0.79492223343E+02 0.  0.
          5    1    3    3  501    0 -0.11382285598E+03 -0.20051678683E+02  0.37251050919E+02  0.12152136913E+03  0.47000000000E+01 0. -1.
        -11    1    4    4    0    0  0.61461078733E+01 -0.19822031253E+02 -0.31449027881E+02  0.37679290328E+02  0.00000000000E+00 0.  1.
         12    1    4    4    0    0  0.54720100887E+01  0.32587913102E+02  0.29490715485E+02  0.44290148730E+02  0.00000000000E+00 0. -1.
         -5    1    5    5    0  502  0.97814361231E+02  0.48837421847E+02  0.60235236463E+02  0.12491243632E+03  0.47000000000E+01 0.  1.
         11    1    6    6    0    0 -0.44838398477E+01 -0.20952713759E+02 -0.26871842909E+02  0.34368837266E+02  0.00000000000E+00 0. -1.
        -12    1    6    6    0    0  0.88742166349E+01 -0.20598911254E+02  0.55544017112E+02  0.59901625209E+02  0.00000000000E+00 0.  1.
</event>
<event>
12    1  0.9966151E-001  0.2008516E+03  0.7818608E-02  0.1149098E+00
         21   -1    0    0  501  502  0.00000000000E+00  0.00000000000E+00  0.61629507140E+03  0.61629507140E+03  0.00000000000E+00 0.  1.
         21   -1    0    0  502  503 -0.00000000000E+00 -0.00000000000E+00 -0.67392185464E+02  0.67392185464E+02  0.00000000000E+00 0.  1.
         -6    2    1    2    0  503 -0.97591520090E+02 -0.34390384192E+02  0.21505393215E+03  0.29426100746E+03  0.17214686595E+03 0.  0.
        -24    2    3    3    0    0 -0.24172437055E+02 -0.55252997454E+02  0.48818708368E+02  0.11128054398E+03  0.79767742489E+02 0.  0.
          6    2    1    2  501    0  0.97591520090E+02  0.34390384192E+02  0.33384895379E+03  0.38942624941E+03  0.17172907869E+03 0.  0.
         24    2    5    5    0    0  0.13834991951E+02  0.53627671910E+02  0.94756416891E+02  0.13531493435E+03  0.79145554002E+02 0.  0.
          5    1    5    5  501    0  0.83756528139E+02 -0.19237287718E+02  0.23909253690E+03  0.25411131506E+03  0.47000000000E+01 0. -1.
        -11    1    6    6    0    0  0.40217167555E+02  0.43483387817E+01  0.44628076172E+02  0.60232829911E+02  0.00000000000E+00 0.  1.
         12    1    6    6    0    0 -0.26382175604E+02  0.49279333129E+02  0.50128340719E+02  0.75082104435E+02  0.00000000000E+00 0. -1.
         -5    1    3    3    0  503 -0.73419083035E+02  0.20862613262E+02  0.16623522378E+03  0.18298046347E+03  0.47000000000E+01 0.  1.
         11    1    4    4    0    0  0.68489053441E+01 -0.67550819817E+01 -0.19617801926E+02  0.21849411649E+02  0.00000000000E+00 0. -1.
        -12    1    4    4    0    0 -0.31021342399E+02 -0.48497915472E+02  0.68436510295E+02  0.89431132335E+02  0.00000000000E+00 0.  1.
</event>
<event>
12    1  0.9966151E-001  0.2647729E+03  0.7818608E-02  0.1104323E+00
         21   -1    0    0  503  502  0.00000000000E+00  0.00000000000E+00  0.12626878482E+04  0.12626878482E+04  0.00000000000E+00 0. -1.
         21   -1    0    0  501  503 -0.00000000000E+00 -0.00000000000E+00 -0.63436997747E+02  0.63436997747E+02  0.00000000000E+00 0. -1.
          6    2    1    2  501    0 -0.20092885671E+03  0.11797360592E+02  0.83425820708E+03  0.87526648501E+03  0.17202639487E+03 0.  0.
         24    2    3    3    0    0 -0.18811626413E+03  0.61041129348E+02  0.68460358252E+03  0.71712822923E+03  0.80480330864E+02 0.  0.
         -6    2    1    2    0  502  0.20092885671E+03 -0.11797360592E+02  0.36499264333E+03  0.45085836090E+03  0.17187800536E+03 0.  0.
        -24    2    5    5    0    0  0.18768274580E+03  0.71746561554E+00  0.37700828711E+03  0.42853021667E+03  0.79231119024E+02 0.  0.
          5    1    3    3  501    0 -0.12812592575E+02 -0.49243768756E+02  0.14965462457E+03  0.15813825579E+03  0.47000000000E+01 0. -1.
        -13    1    4    4    0    0 -0.17307279128E+03  0.33255988360E+02  0.62846829036E+03  0.65271168507E+03  0.00000000000E+00 0.  1.
         14    1    4    4    0    0 -0.15043472851E+02  0.27785140988E+02  0.56135292159E+02  0.64416544155E+02  0.00000000000E+00 0. -1.
         -5    1    5    5    0  502  0.13246110905E+02 -0.12514826207E+02 -0.12015643778E+02  0.22328144224E+02  0.47000000000E+01 0.  1.
         13    1    6    6    0    0  0.11684748265E+03 -0.36566058748E+02  0.25056681802E+03  0.27888015553E+03  0.00000000000E+00 0. -1.
        -14    1    6    6    0    0  0.70835263153E+02  0.37283524363E+02  0.12644146909E+03  0.14965006114E+03  0.00000000000E+00 0.  1.
</event>
<event>
12    1  0.9966151E-001  0.2159362E+03  0.7818608E-02  0.1137111E+00
         21   -1    0    0  501  502  0.00000000000E+00  0.00000000000E+00  0.41799142576E+03  0.41799142576E+03  0.00000000000E+00 0. -1.
         21   -1    0    0  502  503 -0.00000000000E+00 -0.00000000000E+00 -0.11117410821E+03  0.11117410821E+03  0.00000000000E+00 0. -1.
         -6    2    1    2    0  503 -0.10732882732E+03 -0.72097131351E+02  0.15910609642E+03  0.26754170808E+03  0.17189049456E+03 0.  0.
        -24    2    3    3    0    0 -0.12947002007E+03 -0.16222908514E+02  0.96110079971E+02  0.18034796242E+03  0.79136408929E+02 0.  0.
          6    2    1    2  501    0  0.10732882732E+03  0.72097131351E+02  0.14771122113E+03  0.26162382589E+03  0.17294781844E+03 0.  0.
         24    2    5    5    0    0  0.70620512923E+02  0.10243196794E+03  0.15396942966E+03  0.21336454874E+03  0.79613318531E+02 0.  0.
          5    1    5    5  501    0  0.36708314398E+02 -0.30334836591E+02 -0.62582085296E+01  0.48259277149E+02  0.47000000000E+01 0. -1.
        -11    1    6    6    0    0  0.46919510569E+02  0.97589268936E+02  0.77497564927E+02  0.13315772022E+03  0.00000000000E+00 0.  1.
         12    1    6    6    0    0  0.23701002354E+02  0.48426990056E+01  0.76471864732E+02  0.80206828524E+02  0.00000000000E+00 0. -1.
         -5    1    3    3    0  503  0.22141192749E+02 -0.55874222837E+02  0.62996016446E+02  0.87193745659E+02  0.47000000000E+01 0.  1.
         13    1    4    4    0    0  0.99742889413E+01  0.28313369084E+01  0.85627867928E+00  0.10403659056E+02  0.00000000000E+00 0. -1.
        -14    1    4    4    0    0 -0.13944430901E+03 -0.19054245423E+02  0.95253801291E+02  0.16994430336E+03  0.00000000000E+00 0.  1.
</event>
<event>
12    1  0.9966151E-001  0.4551066E+03  0.7818608E-02  0.1026237E+00
         21   -1    0    0  503  502  0.00000000000E+00  0.00000000000E+00  0.23468857115E+03  0.23468857115E+03  0.00000000000E+00 0.  1.
         21   -1    0    0  501  503 -0.00000000000E+00 -0.00000000000E+00 -0.10330981867E+04  0.10330981867E+04  0.00000000000E+00 0. -1.
          6    2    1    2  501    0 -0.41561044567E+03  0.67842352982E+02 -0.15678449026E+03  0.48135578928E+03  0.17259024329E+03 0.  0.
         24    2    3    3    0    0 -0.32607342638E+03  0.10423331734E+03 -0.15685692294E+03  0.38459177037E+03  0.78219382029E+02 0.  0.
         -6    2    1    2    0  502  0.41561044567E+03 -0.67842352982E+02 -0.64162512525E+03  0.78643096854E+03  0.17162820137E+03 0.  0.
        -24    2    5    5    0    0  0.23169579511E+03 -0.96120278759E+01 -0.46369048699E+03  0.52394631195E+03  0.75733331631E+02 0.  0.
          5    1    3    3  501    0 -0.89537019291E+02 -0.36390964355E+02  0.72432676760E-01  0.96764018916E+02  0.47000000000E+01 0. -1.
        -11    1    4    4    0    0 -0.23509384516E+03  0.45695298664E+02 -0.82448178203E+02  0.25328813324E+03  0.00000000000E+00 0.  1.
         12    1    4    4    0    0 -0.90979581223E+02  0.58538018673E+02 -0.74408744733E+02  0.13130363713E+03  0.00000000000E+00 0. -1.
         -5    1    5    5    0  502  0.18391465056E+03 -0.58230325107E+02 -0.17793463826E+03  0.26248465659E+03  0.47000000000E+01 0.  1.
         13    1    6    6    0    0  0.17123506272E+03 -0.38989646962E+02 -0.35676386420E+03  0.39764568912E+03  0.00000000000E+00 0. -1.
        -14    1    6    6    0    0  0.60460732388E+02  0.29377619086E+02 -0.10692662279E+03  0.12630062282E+03  0.00000000000E+00 0.  1.
</event>
<event>
12    1  0.9966151E-001  0.2153987E+03  0.7818608E-02  0.1137452E+00
         21   -1    0    0  501  502  0.00000000000E+00  0.00000000000E+00  0.37583376165E+03  0.37583376165E+03  0.00000000000E+00 0.  1.
         21   -1    0    0  502  503 -0.00000000000E+00 -0.00000000000E+00 -0.14542179964E+03  0.14542179964E+03  0.00000000000E+00 0.  1.
         -6    2    1    2    0  503 -0.11524650283E+03  0.56312741285E+02  0.21725143151E+03  0.30593264699E+03  0.17304253452E+03 0.  0.
        -24    2    3    3    0    0 -0.12362508265E+03  0.47773388258E+02  0.93107597703E+02  0.18112518478E+03  0.81066948410E+02 0.  0.
          6    2    1    2  501    0  0.11524650283E+03 -0.56312741285E+02  0.13160530496E+02  0.21532291430E+03  0.17244673558E+03 0.  0.
         24    2    5    5    0    0  0.53028442561E+02  0.34592156373E+02  0.14974507503E+02  0.10504976274E+03  0.82477777452E+02 0.  0.
          5    1    5    5  501    0  0.62218060274E+02 -0.90904897658E+02 -0.18139770068E+01  0.11027315156E+03  0.47000000000E+01 0. -1.
        -13    1    6    6    0    0  0.30482127064E+01  0.29265629294E+02 -0.26718731757E+02  0.39744927794E+02  0.00000000000E+00 0.  1.
         14    1    6    6    0    0  0.49980229854E+02  0.53265270789E+01  0.41693239260E+02  0.65304834944E+02  0.00000000000E+00 0. -1.
         -5    1    3    3    0  503  0.83785798187E+01  0.85393530279E+01  0.12414383381E+03  0.12480746221E+03  0.47000000000E+01 0.  1.
         11    1    4    4    0    0 -0.14780852521E+02 -0.21604323802E+02  0.18298020588E+02  0.31938033215E+02  0.00000000000E+00 0. -1.
        -12    1    4    4    0    0 -0.10884423013E+03  0.69377712059E+02  0.74809577115E+02  0.14918715156E+03  0.00000000000E+00 0.  1.
</event>
<event>
12    1  0.9966151E-001  0.2211922E+03  0.7818608E-02  0.1133213E+00
         21   -1    0    0  501  502  0.00000000000E+00  0.00000000000E+00  0.42909862444E+02  0.42909862444E+02  0.00000000000E+00 0.  1.
         21   -1    0    0  502  503 -0.00000000000E+00 -0.00000000000E+00 -0.11405951007E+04  0.11405951007E+04  0.00000000000E+00 0.  1.
         -6    2    1    2    0  503  0.10345540902E+03  0.88051536417E+02 -0.59448669627E+03  0.63430309422E+03  0.17455626192E+03 0.  0.
        -24    2    3    3    0    0  0.11768021969E+03  0.10853402370E+03 -0.39733944942E+03  0.43552934227E+03  0.78605988990E+02 0.  0.
          6    2    1    2  501    0 -0.10345540902E+03 -0.88051536417E+02 -0.50319854193E+03  0.54920186887E+03  0.17308329050E+03 0.  0.
         24    2    5    5    0    0 -0.18432370319E+02  0.17290917547E+02 -0.17048515953E+03  0.18997181091E+03  0.79908517780E+02 0.  0.
          5    1    5    5  501    0 -0.85023038698E+02 -0.10534245396E+03 -0.33271338240E+03  0.35923005796E+03  0.47000000000E+01 0. -1.
        -11    1    6    6    0    0 -0.31199886892E+02  0.27942978312E+02 -0.16802101128E+03  0.17316264958E+03  0.00000000000E+00 0.  1.
         12    1    6    6    0    0  0.12767516573E+02 -0.10652060765E+02 -0.24641482569E+01  0.16809161330E+02  0.00000000000E+00 0. -1.
         -5    1    3    3    0  503 -0.14224810668E+02 -0.20482487287E+02 -0.19714724685E+03  0.19877375195E+03  0.47000000000E+01 0.  1.
         11    1    4    4    0    0  0.73520204306E+02  0.11043295343E+03 -0.32068902205E+03  0.34704770062E+03  0.00000000000E+00 0. -1.
        -12    1    4    4    0    0  0.44160015379E+02 -0.18989297242E+01 -0.76650427373E+02  0.88481641648E+02  0.00000000000E+00 0.  1.
</event>
<event>
12    1  0.9966151E-001  0.1715813E+03  0.7818608E-02  0.1176574E+00
         21   -1    0    0  503  502  0.00000000000E+00  0.00000000000E+00  0.25072880202E+02  0.25072880202E+02  0.00000000000E+00 0. -1.
         21   -1    0    0  501  503 -0.00000000000E+00 -0.00000000000E+00 -0.12585620967E+04  0.12585620967E+04  0.00000000000E+00 0. -1.
          6    2    1    2  501    0  0.97319715558E-01  0.10745049274E+01 -0.78980524838E+03  0.80792958474E+03  0.17016674031E+03 0.  0.
         24    2    3    3    0    0 -0.65791139677E+02  0.88501521648E+01 -0.46169899610E+03  0.47314972789E+03  0.79359326799E+02 0.  0.
         -6    2    1    2    0  502 -0.97319715558E-01 -0.10745049274E+01 -0.44368396809E+03  0.47570539212E+03  0.17157794884E+03 0.  0.
        -24    2    5    5    0    0 -0.41017114085E+02  0.28233711006E+02 -0.12678314299E+03  0.15479789137E+03  0.73545059260E+02 0.  0.
          5    1    3    3  501    0  0.65888459392E+02 -0.77756472374E+01 -0.32810625228E+03  0.33477985685E+03  0.47000000000E+01 0. -1.
        -11    1    4    4    0    0 -0.44962909069E+02 -0.33601415073E+02 -0.25763733839E+03  0.26368108847E+03  0.00000000000E+00 0.  1.
         12    1    4    4    0    0 -0.20828230608E+02  0.42451567238E+02 -0.20406165772E+03  0.20946863942E+03  0.00000000000E+00 0. -1.
         -5    1    5    5    0  502  0.40919794369E+02 -0.29308215934E+02 -0.31690082510E+03  0.32090750075E+03  0.47000000000E+01 0.  1.
         13    1    6    6    0    0 -0.81425050627E+01 -0.87765097988E+01  0.57795098346E+01  0.13293992887E+02  0.00000000000E+00 0. -1.
        -14    1    6    6    0    0 -0.32874609022E+02  0.37010220805E+02 -0.13256265283E+03  0.14150389848E+03  0.00000000000E+00 0.  1.
</event>
<event>
12    1  0.9966151E-001  0.1880402E+03  0.7818608E-02  0.1162035E+00
         21   -1    0    0  501  502  0.00000000000E+00  0.00000000000E+00  0.14171658848E+03  0.14171658848E+03  0.00000000000E+00 0. -1.
         21   -1    0    0  502  503 -0.00000000000E+00 -0.00000000000E+00 -0.24349075743E+03  0.24349075743E+03  0.00000000000E+00 0. -1.
         -6    2    1    2    0  503  0.70208403232E+02  0.31279623120E+02 -0.27049910759E+02  0.18997585761E+03  0.17161437614E+03 0.  0.
        -24    2    3    3    0    0  0.11350525171E+03  0.32117098989E+02 -0.31643497125E+02  0.14617506436E+03  0.80317422259E+02 0.  0.
          6    2    1    2  501    0 -0.70208403232E+02 -0.31279623120E+02 -0.74724258192E+02  0.19523148830E+03  0.16316857710E+03 0.  0.
         24    2    5    5    0    0 -0.10691842987E+03 -0.32522093365E+02 -0.41907453200E+02  0.14575217466E+03  0.83655391830E+02 0.  0.
          5    1    5    5  501    0  0.36710026638E+02  0.12424702447E+01 -0.32816804993E+02  0.49479313637E+02  0.47000000000E+01 0. -1.
        -13    1    6    6    0    0 -0.86564143891E+02 -0.17848358240E+02 -0.66507577886E+02  0.11061271543E+03  0.00000000000E+00 0.  1.
         14    1    6    6    0    0 -0.20354285978E+02 -0.14673735125E+02  0.24600124686E+02  0.35139459227E+02  0.00000000000E+00 0. -1.
         -5    1    3    3    0  503 -0.43296848477E+02 -0.83747586872E+00  0.45935863656E+01  0.43800793252E+02  0.47000000000E+01 0.  1.
         13    1    4    4    0    0 -0.12180069859E+02  0.75092627297E+01 -0.24612185355E+00  0.14310964484E+02  0.00000000000E+00 0. -1.
        -14    1    4    4    0    0  0.12568532157E+03  0.24607836259E+02 -0.31397375271E+02  0.13186409988E+03  0.00000000000E+00 0.  1.
</event>
<event>
12    1  0.9966151E-001  0.2210330E+03  0.7818608E-02  0.1133231E+00
         21   -1    0    0  501  502  0.00000000000E+00  0.00000000000E+00  0.71648915675E+03  0.71648915675E+03  0.00000000000E+00 0.  1.
         21   -1    0    0  502  503 -0.00000000000E+00 -0.00000000000E+00 -0.13860201108E+03  0.13860201108E+03  0.00000000000E+00 0.  1.
         -6    2    1    2    0  503 -0.13820335814E+03 -0.16556600653E+02  0.59429830862E+03  0.63407101713E+03  0.17170115289E+03 0.  0.
        -24    2    3    3    0    0 -0.14863529580E+03 -0.53126579793E+02  0.42970571508E+03  0.46507693277E+03  0.82065018067E+02 0.  0.
          6    2    1    2  501    0  0.13820335814E+03  0.16556600653E+02 -0.16411162956E+02  0.22102015070E+03  0.17089848308E+03 0.  0.
         24    2    5    5    0    0  0.37263213730E+02  0.16376030495E+00  0.46274699815E+02  0.10098163455E+03  0.81653957395E+02 0.  0.
          5    1    5    5  501    0  0.10094014441E+03  0.16392840348E+02 -0.62685862771E+02  0.12003851615E+03  0.47000000000E+01 0. -1.
        -11    1    6    6    0    0 -0.11413543506E+02  0.21724852189E+02  0.40601827328E+02  0.47442033687E+02  0.00000000000E+00 0.  1.
         12    1    6    6    0    0  0.48676757235E+02 -0.21561091884E+02  0.56728724866E+01  0.53539600862E+02  0.00000000000E+00 0. -1.
         -5    1    3    3    0  503  0.10431937655E+02  0.36569979140E+02  0.16459259355E+03  0.16899408436E+03  0.47000000000E+01 0.  1.
         11    1    4    4    0    0 -0.11459671617E+03 -0.86687371251E+01  0.34411502945E+03  0.36279843971E+03  0.00000000000E+00 0. -1.
        -12    1    4    4    0    0 -0.34038579629E+02 -0.44457842668E+02  0.85590685626E+02  0.10227849307E+03  0.00000000000E+00 0.  1.
</event>
<event>
12    1  0.9966151E-001  0.2571748E+03  0.7818608E-02  0.1109023E+00
         21   -1    0    0  501  502  0.00000000000E+00  0.00000000000E+00  0.58603708388E+02  0.58603708388E+02  0.00000000000E+00 0. -1.
         21   -1    0    0  502  503 -0.00000000000E+00 -0.00000000000E+00 -0.12116682811E+04  0.12116682811E+04  0.00000000000E+00 0. -1.
         -6    2    1    2    0  503  0.11963400960E+03  0.14890134151E+03 -0.74885393600E+03  0.79178347699E+03  0.17220613003E+03 0.  0.
        -24    2    3    3    0    0  0.68989571096E+02  0.94847742740E+02 -0.66402200627E+03  0.67906614473E+03  0.80311573770E+02 0.  0.
          6    2    1    2  501    0 -0.11963400960E+03 -0.14890134151E+03 -0.40421063674E+03  0.47848851252E+03  0.17053185042E+03 0.  0.
         24    2    5    5    0    0 -0.98238867194E+02 -0.17796666188E+03 -0.36289486078E+03  0.42342828813E+03  0.79220120184E+02 0.  0.
          5    1    5    5  501    0 -0.21395142408E+02  0.29065320370E+02 -0.41315775958E+02  0.55060224391E+02  0.47000000000E+01 0. -1.
        -11    1    6    6    0    0 -0.85767816241E+02 -0.85072052985E+02 -0.16537197682E+03  0.20479566211E+03  0.00000000000E+00 0.  1.
         12    1    6    6    0    0 -0.12471050953E+02 -0.92894608892E+02 -0.19752288396E+03  0.21863262602E+03  0.00000000000E+00 0. -1.
         -5    1    3    3    0  503  0.50644438506E+02  0.54053598766E+02 -0.84831929728E+02  0.11271733226E+03  0.47000000000E+01 0.  1.
         11    1    4    4    0    0  0.86699321110E+02  0.86775048565E+02 -0.57680765190E+03  0.58970649363E+03  0.00000000000E+00 0. -1.
        -12    1    4    4    0    0 -0.17709750014E+02  0.80726941757E+01 -0.87214354365E+02  0.89359651097E+02  0.00000000000E+00 0.  1.
</event>
<event>
12    1  0.9966151E-001  0.2313030E+03  0.7818608E-02  0.1126150E+00
         21   -1    0    0  503  502  0.00000000000E+00  0.00000000000E+00  0.58736912194E+03  0.58736912194E+03  0.00000000000E+00 0.  1.
         21   -1    0    0  501  503 -0.00000000000E+00 -0.00000000000E+00 -0.99348182938E+02  0.99348182938E+02  0.00000000000E+00 0.  1.
          6    2    1    2  501    0  0.54785031749E+01 -0.15486678311E+03  0.34739689200E+03  0.41602152718E+03  0.16845051499E+03 0.  0.
         24    2    3    3    0    0 -0.46730461006E+02 -0.54887446552E+02  0.22830610209E+03  0.25192902303E+03  0.78410385888E+02 0.  0.
         -6    2    1    2    0  502 -0.54785031749E+01  0.15486678311E+03  0.14062404700E+03  0.27069577769E+03  0.17171880199E+03 0.  0.
        -24    2    5    5    0    0 -0.52979520668E+02  0.88616497179E+02  0.13600576336E+03  0.18891029247E+03  0.80807287735E+02 0.  0.
          5    1    3    3  501    0  0.52208964181E+02 -0.99979336561E+02  0.11909078991E+03  0.16409250416E+03  0.47000000000E+01 0. -1.
        -13    1    4    4    0    0  0.21366711946E+02 -0.19271381619E+02  0.48570460887E+02  0.56453628756E+02  0.00000000000E+00 0.  1.
         14    1    4    4    0    0 -0.68097172953E+02 -0.35616064933E+02  0.17973564121E+03  0.19547539427E+03  0.00000000000E+00 0. -1.
         -5    1    5    5    0  502  0.47501017493E+02  0.66250285934E+02  0.46182836391E+01  0.81785485222E+02  0.47000000000E+01 0.  1.
         13    1    6    6    0    0 -0.59698212402E+01  0.83621548977E+02  0.87106273491E+02  0.12089543044E+03  0.00000000000E+00 0. -1.
        -14    1    6    6    0    0 -0.47009699428E+02  0.49949482019E+01  0.48899489869E+02  0.68014862033E+02  0.00000000000E+00 0.  1.
</event>
<event>
12    1  0.9966151E-001  0.4404501E+03  0.7818608E-02  0.1030619E+00
         21   -1    0    0  503  502  0.00000000000E+00  0.00000000000E+00  0.19307644263E+04  0.19307644263E+04  0.00000000000E+00 0. -1.
         21   -1    0    0  501  503 -0.00000000000E+00 -0.00000000000E+00 -0.17705529967E+03  0.17705529967E+03  0.00000000000E+00 0. -1.
          6    2    1    2  501    0 -0.40174279855E+03 -0.54196376472E+02  0.15701829362E+04  0.16307883908E+04  0.17222601145E+03 0.  0.
         24    2    3    3    0    0 -0.25608227728E+03 -0.71400939186E+01  0.75541313981E+03  0.80175088122E+03  0.80785828310E+02 0.  0.
         -6    2    1    2    0  502  0.40174279855E+03  0.54196376472E+02  0.18352619044E+03  0.47703133517E+03  0.17187934357E+03 0.  0.
        -24    2    5    5    0    0  0.25486997727E+03  0.11832425845E+02  0.45916807141E+02  0.27130150672E+03  0.79984015612E+02 0.  0.
          5    1    3    3  501    0 -0.14566052127E+03 -0.47056282553E+02  0.81476979638E+03  0.82903750957E+03  0.47000000000E+01 0. -1.
        -11    1    4    4    0    0 -0.20524587518E+03  0.25581956580E+02  0.61587553719E+03  0.64967913856E+03  0.00000000000E+00 0.  1.
         12    1    4    4    0    0 -0.50836402103E+02 -0.32722050499E+02  0.13953760262E+03  0.15207174265E+03  0.00000000000E+00 0. -1.
         -5    1    5    5    0  502  0.14687282128E+03  0.42363950626E+02  0.13760938330E+03  0.20572982846E+03  0.47000000000E+01 0.  1.
         13    1    6    6    0    0  0.14452155406E+03 -0.19270893582E+02  0.56057197375E+02  0.15620581393E+03  0.00000000000E+00 0. -1.
        -14    1    6    6    0    0  0.11034842321E+03  0.31103319427E+02 -0.10140390234E+02  0.11509569279E+03  0.00000000000E+00 0.  1.
</event>
<event>
12    1  0.9966151E-001  0.3005481E+03  0.7818608E-02  0.1085183E+00
         21   -1    0    0  501  502  0.00000000000E+00  0.00000000000E+00  0.47110243356E+02  0.47110243356E+02  0.00000000000E+00 0.  1.
         21   -1    0    0  502  503 -0.00000000000E+00 -0.00000000000E+00 -0.23214925092E+04  0.23214925092E+04  0.00000000000E+00 0.  1.
         -6    2    1    2    0  503  0.97829818220E+02 -0.22805631431E+03 -0.63370267229E+03  0.70062233165E+03  0.16646987388E+03 0.  0.
        -24    2    3    3    0    0  0.48034830304E+01 -0.45870279816E+02 -0.24166962262E+03  0.25840332229E+03  0.78999458572E+02 0.  0.
          6    2    1    2  501    0 -0.97829818220E+02  0.22805631431E+03 -0.16406795935E+04  0.16679804209E+04  0.16955471090E+03 0.  0.
         24    2    5    5    0    0 -0.67317450766E+02  0.10953190048E+03 -0.55167147010E+03  0.57210642076E+03  0.80221377167E+02 0.  0.
          5    1    5    5  501    0 -0.30512367454E+02  0.11852441382E+03 -0.10890081234E+04  0.10958740001E+04  0.47000000000E+01 0. -1.
        -13    1    6    6    0    0 -0.14090242381E+02  0.86032299035E+02 -0.40580854871E+03  0.41506706641E+03  0.00000000000E+00 0.  1.
         14    1    6    6    0    0 -0.53227208385E+02  0.23499601449E+02 -0.14586292138E+03  0.15703935435E+03  0.00000000000E+00 0. -1.
         -5    1    3    3    0  503  0.93026335190E+02 -0.18218603449E+03 -0.39203304967E+03  0.44221900936E+03  0.47000000000E+01 0.  1.
         11    1    4    4    0    0  0.33456808117E+02 -0.29810684291E+02 -0.66554771499E+02  0.80234484585E+02  0.00000000000E+00 0. -1.
        -12    1    4    4    0    0 -0.28653325086E+02 -0.16059595525E+02 -0.17511485112E+03  0.17816883771E+03  0.00000000000E+00 0.  1.
</event>
<event>
12    1  0.9966151E-001  0.1889239E+03  0.7818608E-02  0.1160013E+00
         21   -1    0    0  503  502  0.00000000000E+00  0.00000000000E+00  0.42811371038E+02  0.42811371038E+02  0.00000000000E+00 0. -1.
         21   -1    0    0  501  503 -0.00000000000E+00 -0.00000000000E+00 -0.85087702648E+03  0.85087702648E+03  0.00000000000E+00 0. -1.
          6    2    1    2  501    0  0.16657612496E+02  0.70692868444E+02 -0.31996688373E+03  0.37030265029E+03  0.17166912486E+03 0.  0.
         24    2    3    3    0    0  0.59403946679E+02  0.23153692771E+02 -0.27082259051E+03  0.28952843494E+03  0.80105659854E+02 0.  0.
         -6    2    1    2    0  502 -0.16657612496E+02 -0.70692868444E+02 -0.48809877172E+03  0.52338574723E+03  0.17440548084E+03 0.  0.
        -24    2    5    5    0    0 -0.21567626822E+02  0.17403702817E+02 -0.34437336229E+03  0.35467238847E+03  0.80196253586E+02 0.  0.
          5    1    3    3  501    0 -0.42746334183E+02  0.47539175672E+02 -0.49144293222E+02  0.80774215353E+02  0.47000000000E+01 0. -1.
        -11    1    4    4    0    0 -0.56949722795E+01  0.83227107927E+01 -0.15878620188E+03  0.15910612223E+03  0.00000000000E+00 0.  1.
         12    1    4    4    0    0  0.65098918958E+02  0.14830981979E+02 -0.11203638863E+03  0.13042231271E+03  0.00000000000E+00 0. -1.
         -5    1    5    5    0  502  0.49100143266E+01 -0.88096571261E+02 -0.14372540943E+03  0.16871335876E+03  0.47000000000E+01 0.  1.
         13    1    6    6    0    0 -0.26328009638E+02 -0.20829261702E+02 -0.25697444267E+03  0.25915803367E+03  0.00000000000E+00 0. -1.
        -14    1    6    6    0    0  0.47603828154E+01  0.38232964519E+02 -0.87398919626E+02  0.95514354796E+02  0.00000000000E+00 0.  1.
</event>
<event>
12    1  0.9966151E-001  0.1985987E+03  0.7818608E-02  0.1152241E+00
         21   -1    0    0  503  502  0.00000000000E+00  0.00000000000E+00  0.25918310378E+03  0.25918310378E+03  0.00000000000E+00 0.  1.
         21   -1    0    0  501  503 -0.00000000000E+00 -0.00000000000E+00 -0.17263111505E+03  0.17263111505E+03  0.00000000000E+00 0.  1.
          6    2    1    2  501    0  0.26812501814E+02 -0.95555200664E+02  0.12612183516E+03  0.23526193983E+03  0.17202254621E+03 0.  0.
         24    2    3    3    0    0 -0.18139189052E+02 -0.10207291173E+03  0.13598452925E+03  0.18854472883E+03  0.79431814071E+02 0.  0.
         -6    2    1    2    0  502 -0.26812501814E+02  0.95555200664E+02 -0.39569846426E+02  0.19655227899E+03  0.16497672261E+03 0.  0.
        -24    2    5    5    0    0 -0.41561935428E+00  0.11262044212E+03  0.85978448596E+01  0.13884409626E+03  0.80747900336E+02 0.  0.
          5    1    3    3  501    0  0.44951690866E+02  0.65177110640E+01 -0.98626940927E+01  0.46717211004E+02  0.47000000000E+01 0. -1.
        -11    1    4    4    0    0 -0.21288729288E+02 -0.17921583033E+00  0.52933556973E+02  0.57054391301E+02  0.00000000000E+00 0.  1.
         12    1    4    4    0    0  0.31495402362E+01 -0.10189369590E+03  0.83050972277E+02  0.13149033753E+03  0.00000000000E+00 0. -1.
         -5    1    5    5    0  502 -0.26396882459E+02 -0.17065241455E+02 -0.48167691285E+02  0.57708182723E+02  0.47000000000E+01 0.  1.
         13    1    6    6    0    0 -0.20339346371E+02  0.18293322168E+02  0.29462204848E+02  0.40203932162E+02  0.00000000000E+00 0. -1.
        -14    1    6    6    0    0  0.19923727017E+02  0.94327119951E+02 -0.20864359988E+02  0.98640164102E+02  0.00000000000E+00 0.  1.
</event>
<event>
12    1  0.9966151E-001  0.2262125E+03  0.7818608E-02  0.1129727E+00
         21   -1    0    0  501  502  0.00000000000E+00  0.00000000000E+00  0.25839418953E+03  0.25839418953E+03  0.00000000000E+00 0.  1.
         21   -1    0    0  502  503 -0.00000000000E+00 -0.00000000000E+00 -0.21796683709E+03  0.21796683709E+03  0.00000000000E+00 0.  1.
         -6    2    1    2    0  503 -0.12501958613E+03  0.77349674554E+02 -0.55066547224E+02  0.23281847459E+03  0.17192803268E+03 0.  0.
        -24    2    3    3    0    0 -0.25591999019E+02  0.60095952820E+02 -0.78543473084E+02  0.12910351887E+03  0.78944078070E+02 0.  0.
          6    2    1    2  501    0  0.12501958613E+03 -0.77349674554E+02  0.95493899657E+02  0.24354255202E+03  0.16905922248E+03 0.  0.
         24    2    5    5    0    0  0.83272371992E+02  0.78783636868E+01  0.10113584795E+02  0.11579852454E+03  0.79439644622E+02 0.  0.
          5    1    5    5  501    0  0.41747214138E+02 -0.85228038240E+02  0.85380314861E+02  0.12774402748E+03  0.47000000000E+01 0. -1.
        -11    1    6    6    0    0  0.61093549973E+01 -0.28216705002E+02  0.10173490924E+02  0.30610563164E+02  0.00000000000E+00 0.  1.
         12    1    6    6    0    0  0.77163016994E+02  0.36095068689E+02 -0.59906128198E-01  0.85187961380E+02  0.00000000000E+00 0. -1.
         -5    1    3    3    0  503 -0.99427587110E+02  0.17253721733E+02  0.23476925861E+02  0.10371495572E+03  0.47000000000E+01 0.  1.
         13    1    4    4    0    0  0.27109691355E+02  0.12176516321E+02 -0.33704139460E+02  0.44935197027E+02  0.00000000000E+00 0. -1.
        -14    1    4    4    0    0 -0.52701690375E+02  0.47919436499E+02 -0.44839333625E+02  0.84168321848E+02  0.00000000000E+00 0.  1.
</event>
<event>
12    1  0.9966151E-001  0.6667550E+03  0.7818608E-02  0.9776054E-01
         21   -1    0    0  501  502  0.00000000000E+00  0.00000000000E+00  0.89747717931E+03  0.89747717931E+03  0.00000000000E+00 0. -1.
         21   -1    0    0  502  503 -0.00000000000E+00 -0.00000000000E+00 -0.11231576238E+04  0.11231576238E+04  0.00000000000E+00 0. -1.
         -6    2    1    2    0  503  0.63491950678E+03  0.10600109743E+03 -0.86839162533E+03  0.10945463454E+04  0.17195544376E+03 0.  0.
        -24    2    3    3    0    0  0.43987849629E+03  0.11572685448E+03 -0.68779609951E+03  0.82851548245E+03  0.80552056478E+02 0.  0.
          6    2    1    2  501    0 -0.63491950678E+03 -0.10600109743E+03  0.64271118083E+03  0.92608845767E+03  0.17379055415E+03 0.  0.
         24    2    5    5    0    0 -0.45977694780E+03 -0.84029542852E+02  0.37211102952E+03  0.60297207451E+03  0.81565302328E+02 0.  0.
          5    1    5    5  501    0 -0.17514255898E+03 -0.21971554580E+02  0.27060015131E+03  0.32311638316E+03  0.47000000000E+01 0. -1.
        -13    1    6    6    0    0 -0.38208115660E+03 -0.95460498560E+02  0.33031384253E+03  0.51400968043E+03  0.00000000000E+00 0.  1.
         14    1    6    6    0    0 -0.77695791201E+02  0.11430955708E+02  0.41797186991E+02  0.88962394072E+02  0.00000000000E+00 0. -1.
         -5    1    3    3    0  503  0.19504101048E+03 -0.97257570468E+01 -0.18059552582E+03  0.26603086299E+03  0.47000000000E+01 0.  1.
         13    1    4    4    0    0  0.36332105862E+02 -0.84972611137E+01 -0.35593979221E+02  0.51567011932E+02  0.00000000000E+00 0. -1.
        -14    1    4    4    0    0  0.40354639043E+03  0.12422411559E+03 -0.65220212029E+03  0.77694847052E+03  0.00000000000E+00 0.  1.
</event>
<event>
12    1  0.9966151E-001  0.2343561E+03  0.7818608E-02  0.1124390E+00
         21   -1    0    0  501  502  0.00000000000E+00  0.00000000000E+00  0.32629358770E+03  0.32629358770E+03  0.00000000000E+00 0. -1.
         21   -1    0    0  502  503 -0.00000000000E+00 -0.00000000000E+00 -0.18705769700E+03  0.18705769700E+03  0.00000000000E+00 0. -1.
         -6    2    1    2    0  503  0.14621424177E+03  0.58603262280E+02  0.15812348287E+03  0.28271152965E+03  0.17352183240E+03 0.  0.
        -24    2    3    3    0    0  0.22099154431E+02  0.50706735303E+02  0.23736926708E+02  0.99548360539E+02  0.79289903297E+02 0.  0.
          6    2    1    2  501    0 -0.14621424177E+03 -0.58603262280E+02 -0.18887592162E+02  0.23063975504E+03  0.16740671618E+03 0.  0.
         24    2    5    5    0    0 -0.10409948224E+03 -0.35129290648E+02 -0.75551159837E+02  0.15609091054E+03  0.81151865883E+02 0.  0.
          5    1    5    5  501    0 -0.42114759533E+02 -0.23473971632E+02  0.56663567676E+02  0.74548844501E+02  0.47000000000E+01 0. -1.
        -13    1    6    6    0    0 -0.11762230818E+03 -0.28676507464E+02 -0.62642729891E+02  0.13631383301E+03  0.00000000000E+00 0.  1.
         14    1    6    6    0    0  0.13522825935E+02 -0.64527831836E+01 -0.12908429946E+02  0.19777077533E+02  0.00000000000E+00 0. -1.
         -5    1    3    3    0  503  0.12411508734E+03  0.78965269772E+01  0.13438655616E+03  0.18316316912E+03  0.47000000000E+01 0.  1.
         11    1    4    4    0    0 -0.13993735575E+02 -0.11004400317E+02  0.21646744379E+02  0.28026826504E+02  0.00000000000E+00 0. -1.
        -12    1    4    4    0    0  0.36092890007E+02  0.61711135620E+02  0.20901823297E+01  0.71521534035E+02  0.00000000000E+00 0.  1.
</event>
<event>
12    1  0.9966151E-001  0.3799080E+03  0.7818608E-02  0.1051056E+00
         21   -1    0    0  501  502  0.00000000000E+00  0.00000000000E+00  0.27452054084E+03  0.27452054084E+03  0.00000000000E+00 0. -1.
         21   -1    0    0  502  503 -0.00000000000E+00 -0.00000000000E+00 -0.57245276678E+03  0.57245276678E+03  0.00000000000E+00 0.  1.
         -6    2    1    2    0  503 -0.14164548587E+03 -0.30763189512E+03 -0.26147812619E+02  0.37985783875E+03  0.17002188974E+03 0.  0.
        -24    2    3    3    0    0 -0.10099075112E+03 -0.12483283861E+03 -0.61111725031E+02  0.18929848398E+03  0.79478951260E+02 0.  0.
          6    2    1    2  501    0  0.14164548587E+03  0.30763189512E+03 -0.27178441332E+03  0.46711546888E+03  0.17213154092E+03 0.  0.
         24    2    5    5    0    0  0.13206601224E+03  0.27285475472E+03 -0.16459482086E+03  0.35392132353E+03  0.79231934453E+02 0.  0.
          5    1    5    5  501    0  0.95794736344E+01  0.34777140403E+02 -0.10718959245E+03  0.11319414534E+03  0.47000000000E+01 0. -1.
        -13    1    6    6    0    0 -0.69042107500E+01  0.21600473685E+02 -0.27793421514E+02  0.35870919544E+02  0.00000000000E+00 0.  1.
         14    1    6    6    0    0  0.13897022299E+03  0.25125428103E+03 -0.13680139935E+03  0.31805040399E+03  0.00000000000E+00 0. -1.
         -5    1    3    3    0  503 -0.40654734756E+02 -0.18279905651E+03  0.34963912412E+02  0.19055935477E+03  0.47000000000E+01 0.  1.
         11    1    4    4    0    0 -0.25574675590E+02  0.23389506142E+01  0.68431758118E+01  0.26577505088E+02  0.00000000000E+00 0. -1.
        -12    1    4    4    0    0 -0.75416075528E+02 -0.12717178922E+03 -0.67954900843E+02  0.16272097889E+03  0.00000000000E+00 0.  1.
</event>
<event>
12    1  0.9966151E-001  0.1829264E+03  0.7818608E-02  0.1165962E+00
         21   -1    0    0  501  502  0.00000000000E+00  0.00000000000E+00  0.10370644896E+03  0.10370644896E+03  0.00000000000E+00 0.  1.
         21   -1    0    0  502  503 -0.00000000000E+00 -0.00000000000E+00 -0.34567277348E+03  0.34567277348E+03  0.00000000000E+00 0.  1.
         -6    2    1    2    0  503 -0.53567518969E+02 -0.25215342675E+02 -0.55968969257E+02  0.19129717578E+03  0.17308030317E+03 0.  0.
        -24    2    3    3    0    0 -0.15006384430E+02 -0.36547791461E+02 -0.97700367207E+02  0.13316813771E+03  0.81409204108E+02 0.  0.
          6    2    1    2  501    0  0.53567518969E+02  0.25215342675E+02 -0.18599735526E+03  0.25808204666E+03  0.16883730053E+03 0.  0.
         24    2    5    5    0    0  0.47392548842E+01  0.19594716531E+02 -0.20474553359E+02  0.85351971802E+02  0.80370008725E+02 0.  0.
          5    1    5    5  501    0  0.48828264084E+02  0.56206261443E+01 -0.16552280190E+03  0.17273007486E+03  0.47000000000E+01 0. -1.
        -11    1    6    6    0    0 -0.18107473908E+01  0.12591224104E+02 -0.51412079952E+02  0.52962436646E+02  0.00000000000E+00 0.  1.
         12    1    6    6    0    0  0.65500022750E+01  0.70034924264E+01  0.30937526592E+02  0.32389535156E+02  0.00000000000E+00 0. -1.
         -5    1    3    3    0  503 -0.38561134538E+02  0.11332448786E+02  0.41731397950E+02  0.58129038072E+02  0.47000000000E+01 0.  1.
         11    1    4    4    0    0 -0.37043443713E+02 -0.31713749414E+02 -0.99220186966E+02  0.11055597734E+03  0.00000000000E+00 0. -1.
        -12    1    4    4    0    0  0.22037059283E+02 -0.48340420465E+01  0.15198197589E+01  0.22612160367E+02  0.00000000000E+00 0.  1.
</event>
<event>
12    1  0.9966151E-001  0.1815980E+03  0.7818608E-02  0.1166455E+00
         21   -1    0    0  501  502  0.00000000000E+00  0.00000000000E+00  0.95603978931E+03  0.95603978931E+03  0.00000000000E+00 0. -1.
         21   -1    0    0  502  503 -0.00000000000E+00 -0.00000000000E+00 -0.34518358667E+02  0.34518358667E+02  0.00000000000E+00 0. -1.
         -6    2    1    2    0  503  0.21533610010E+02  0.53405287628E+02  0.42460452436E+03  0.46149836167E+03  0.17139403319E+03 0.  0.
        -24    2    3    3    0    0  0.67729822536E+02  0.72151047262E+02  0.34151269777E+03  0.36448374833E+03  0.80152215042E+02 0.  0.
          6    2    1    2  501    0 -0.21533610010E+02 -0.53405287628E+02  0.49691690628E+03  0.52905978630E+03  0.17222666642E+03 0.  0.
         24    2    5    5    0    0  0.39721205715E+02 -0.58812132746E+02  0.41063457824E+03  0.42300264814E+03  0.72621225146E+02 0.  0.
          5    1    5    5  501    0 -0.61254815726E+02  0.54068451185E+01  0.86282328038E+02  0.10605713816E+03  0.47000000000E+01 0. -1.
        -13    1    6    6    0    0  0.24836310381E+02 -0.56736151983E+02  0.15484194318E+03  0.16676888385E+03  0.00000000000E+00 0.  1.
         14    1    6    6    0    0  0.14884895335E+02 -0.20759807636E+01  0.25579263507E+03  0.25623376428E+03  0.00000000000E+00 0. -1.
         -5    1    3    3    0  503 -0.46196212526E+02 -0.18745759635E+02  0.83091826587E+02  0.97014613341E+02  0.47000000000E+01 0.  1.
         13    1    4    4    0    0 -0.14251025733E+02  0.21710261029E+01  0.85486418845E+02  0.86693326708E+02  0.00000000000E+00 0. -1.
        -14    1    4    4    0    0  0.81980848269E+02  0.69980021160E+02  0.25602627893E+03  0.27779042163E+03  0.00000000000E+00 0.  1.
</event>
<event>
12    1  0.9966151E-001  0.2942041E+03  0.7818608E-02  0.1088237E+00
         21   -1    0    0  501  502  0.00000000000E+00  0.00000000000E+00  0.36990039168E+03  0.36990039168E+03  0.00000000000E+00 0. -1.
         21   -1    0    0  502  503 -0.00000000000E+00 -0.00000000000E+00 -0.24502294326E+03  0.24502294326E+03  0.00000000000E+00 0. -1.
         -6    2    1    2    0  503  0.22993430089E+03  0.63041901365E+02 -0.39691929207E+01  0.29374192468E+03  0.17153570990E+03 0.  0.
        -24    2    3    3    0    0  0.13632246641E+03  0.17539185865E+02 -0.66691805133E+02  0.17212823814E+03  0.79302557357E+02 0.  0.
          6    2    1    2  501    0 -0.22993430089E+03 -0.63041901365E+02  0.12884664134E+03  0.32118141025E+03  0.17237162543E+03 0.  0.
         24    2    5    5    0    0 -0.20061500191E+03 -0.23671012204E+02  0.15342021387E+03  0.26608477993E+03  0.80353296624E+02 0.  0.
          5    1    5    5  501    0 -0.29319298980E+02 -0.39370889161E+02 -0.24573572527E+02  0.55096630321E+02  0.47000000000E+01 0. -1.
        -13    1    6    6    0    0 -0.18193260788E+03 -0.26405093112E+02  0.16228994212E+03  0.24522383258E+03  0.00000000000E+00 0.  1.
         14    1    6    6    0    0 -0.18682394034E+02  0.27340809079E+01 -0.88697282525E+01  0.20860947355E+02  0.00000000000E+00 0. -1.
         -5    1    3    3    0  503  0.93611834481E+02  0.45502715500E+02  0.62722612212E+02  0.12161368655E+03  0.47000000000E+01 0.  1.
         11    1    4    4    0    0 -0.24863437785E+01  0.93165740114E+01 -0.25255295723E+02  0.27033505484E+02  0.00000000000E+00 0. -1.
        -12    1    4    4    0    0  0.13880881019E+03  0.82226118539E+01 -0.41436509410E+02  0.14509473265E+03  0.00000000000E+00 0.  1.
</event>
<event>
12    1  0.9966151E-001  0.1983089E+03  0.7818608E-02  0.1153027E+00
         21   -1    0    0  501  502  0.00000000000E+00  0.00000000000E+00  0.60506782450E+03  0.60506782450E+03  0.00000000000E+00 0. -1.
         21   -1    0    0  502  503 -0.00000000000E+00 -0.00000000000E+00 -0.64253924657E+02  0.64253924657E+02  0.00000000000E+00 0. -1.
         -6    2    1    2    0  503 -0.20127951752E+02 -0.78638162687E+02  0.33533451528E+03  0.38958394693E+03  0.18093457241E+03 0.  0.
        -24    2    3    3    0    0 -0.84919974468E+02 -0.55586459220E+02  0.23589818079E+03  0.26859195604E+03  0.78691998581E+02 0.  0.
          6    2    1    2  501    0  0.20127951752E+02  0.78638162687E+02  0.20547938456E+03  0.27973780222E+03  0.17158777766E+03 0.  0.
         24    2    5    5    0    0  0.13130877824E+02 -0.25870624928E+02  0.95510760344E+02  0.12779625411E+03  0.79798922526E+02 0.  0.
          5    1    5    5  501    0  0.69970739285E+01  0.10450878761E+03  0.10996862421E+03  0.15194154811E+03  0.47000000000E+01 0. -1.
        -13    1    6    6    0    0  0.45456860961E+02 -0.91842328889E+01  0.39029312666E+02  0.60613229491E+02  0.00000000000E+00 0.  1.
         14    1    6    6    0    0 -0.32325983137E+02 -0.16686392039E+02  0.56481447678E+02  0.67183024618E+02  0.00000000000E+00 0. -1.
         -5    1    3    3    0  503  0.64792022715E+02 -0.23051703467E+02  0.99436334495E+02  0.12099199088E+03  0.47000000000E+01 0.  1.
         13    1    4    4    0    0 -0.39165220916E+02  0.58887875527E+01  0.14184926707E+03  0.14727459698E+03  0.00000000000E+00 0. -1.
        -14    1    4    4    0    0 -0.45754753552E+02 -0.61475246773E+02  0.94048913721E+02  0.12131735906E+03  0.00000000000E+00 0.  1.
</event>
<event>
12    1  0.9966151E-001  0.2073328E+03  0.7818608E-02  0.1143784E+00
         21   -1    0    0  501  502  0.00000000000E+00  0.00000000000E+00  0.12291284079E+03  0.12291284079E+03  0.00000000000E+00 0. -1.
         21   -1    0    0  502  503 -0.00000000000E+00 -0.00000000000E+00 -0.38154564599E+03  0.38154564599E+03  0.00000000000E+00 0. -1.
         -6    2    1    2    0  503 -0.10360055411E+03  0.49986852639E+02 -0.55516184177E+02  0.21421157677E+03  0.17196741746E+03 0.  0.
        -24    2    3    3    0    0  0.18420938251E+02 -0.50354147831E+01 -0.50639312077E+02  0.80187070086E+02  0.59168741015E+02 0.  0.
          6    2    1    2  501    0  0.10360055411E+03 -0.49986852639E+02 -0.20311662102E+03  0.29024691000E+03  0.17249680224E+03 0.  0.
         24    2    5    5    0    0 -0.62975027551E+00  0.19604328155E+02 -0.73798393107E+02  0.11010201591E+03  0.79319132712E+02 0.  0.
          5    1    5    5  501    0  0.10423030439E+03 -0.69591180794E+02 -0.12931822792E+03  0.18014489409E+03  0.47000000000E+01 0. -1.
        -11    1    6    6    0    0  0.35861675827E+02  0.82513989724E+01 -0.58129050836E+02  0.68797761077E+02  0.00000000000E+00 0.  1.
         12    1    6    6    0    0 -0.36491426102E+02  0.11352929183E+02 -0.15669342271E+02  0.41304254832E+02  0.00000000000E+00 0. -1.
         -5    1    3    3    0  503 -0.12202149236E+03  0.55022267422E+02 -0.48768720995E+01  0.13402450669E+03  0.47000000000E+01 0.  1.
         13    1    4    4    0    0  0.23599556698E+02 -0.17668956337E+01  0.50197606741E+01  0.24192126690E+02  0.00000000000E+00 0. -1.
        -14    1    4    4    0    0 -0.51786184471E+01 -0.32685191494E+01 -0.55659072751E+02  0.55994943396E+02  0.00000000000E+00 0.  1.
</event>
<event>
12    1  0.9966151E-001  0.2253921E+03  0.7818608E-02  0.1130922E+00
         21   -1    0    0  501  502  0.00000000000E+00  0.00000000000E+00  0.19628582494E+03  0.19628582494E+03  0.00000000000E+00 0. -1.
         21   -1    0    0  502  503 -0.00000000000E+00 -0.00000000000E+00 -0.28289741035E+03  0.28289741035E+03  0.00000000000E+00 0. -1.
         -6    2    1    2    0  503 -0.14396300149E+03  0.15971662484E+02 -0.12218291665E+03  0.25637913778E+03  0.17268803482E+03 0.  0.
        -24    2    3    3    0    0 -0.95824441254E+02 -0.53056775141E+02 -0.10023858461E+03  0.16928212353E+03  0.81310015213E+02 0.  0.
          6    2    1    2  501    0  0.14396300149E+03 -0.15971662484E+02  0.35571331239E+02  0.22280409751E+03  0.16551708812E+03 0.  0.
         24    2    5    5    0    0  0.47703644479E+02  0.26028773818E+02 -0.34726619174E+02  0.96337531597E+02  0.71567081482E+02 0.  0.
          5    1    5    5  501    0  0.96259357006E+02 -0.42000436302E+02  0.70297950413E+02  0.12646656591E+03  0.47000000000E+01 0. -1.
        -13    1    6    6    0    0  0.25855162220E+02  0.49860752768E+02 -0.13837956425E+02  0.57845251474E+02  0.00000000000E+00 0.  1.
         14    1    6    6    0    0  0.21848482258E+02 -0.23831978950E+02 -0.20888662749E+02  0.38492280123E+02  0.00000000000E+00 0. -1.
         -5    1    3    3    0  503 -0.48138560231E+02  0.69028437625E+02 -0.21944332043E+02  0.87097014247E+02  0.47000000000E+01 0.  1.
         13    1    4    4    0    0 -0.10009309930E+03 -0.24889763958E+02 -0.95181148770E+02  0.14034806717E+03  0.00000000000E+00 0. -1.
        -14    1    4    4    0    0  0.42686580438E+01 -0.28167011183E+02 -0.50574358394E+01  0.28934056365E+02  0.00000000000E+00 0.  1.
</event>
<event>
12    1  0.9966151E-001  0.2998424E+03  0.7818608E-02  0.1085543E+00
         21   -1    0    0  501  502  0.00000000000E+00  0.00000000000E+00  0.52843073037E+03  0.52843073037E+03  0.00000000000E+00 0.  1.
         21   -1    0    0  502  503 -0.00000000000E+00 -0.00000000000E+00 -0.36761908873E+03  0.36761908873E+03  0.00000000000E+00 0.  1.
         -6    2    1    2    0  503  0.49833505233E+02  0.23929079950E+03  0.40972753789E+03  0.50772250400E+03  0.17367216469E+03 0.  0.
        -24    2    3    3    0    0  0.38939997641E+02  0.25341431693E+03  0.32676369238E+03  0.42273290514E+03  0.78698532331E+02 0.  0.
          6    2    1    2  501    0 -0.49833505233E+02 -0.23929079950E+03 -0.24891589624E+03  0.38832731511E+03  0.17057407565E+03 0.  0.
         24    2    5    5    0    0 -0.78921666551E+02 -0.19356485378E+03 -0.13381576175E+03  0.26102015034E+03  0.80801477218E+02 0.  0.
          5    1    5    5  501    0  0.29088161318E+02 -0.45725945726E+02 -0.11510013449E+03  0.12730716477E+03  0.47000000000E+01 0. -1.
        -11    1    6    6    0    0 -0.35414695695E+02 -0.95076798541E+02 -0.11207514452E+03  0.15117749936E+03  0.00000000000E+00 0.  1.
         12    1    6    6    0    0 -0.43506970855E+02 -0.98488055236E+02 -0.21740617230E+02  0.10984265098E+03  0.00000000000E+00 0. -1.
         -5    1    3    3    0  503  0.10893507592E+02 -0.14123517421E+02  0.82963845506E+02  0.84989598853E+02  0.47000000000E+01 0.  1.
         13    1    4    4    0    0  0.58151647252E+02  0.12007053427E+03  0.15799473147E+03  0.20678704614E+03  0.00000000000E+00 0. -1.
        -14    1    4    4    0    0 -0.19211649611E+02  0.13334378265E+03  0.16876896091E+03  0.21594585900E+03  0.00000000000E+00 0.  1.
</event>
<event>
12    1  0.9966151E-001  0.2173420E+03  0.7818608E-02  0.1135981E+00
         21   -1    0    0  501  502  0.00000000000E+00  0.00000000000E+00  0.39371729330E+03  0.39371729330E+03  0.00000000000E+00 0. -1.
         21   -1    0    0  502  503 -0.00000000000E+00 -0.00000000000E+00 -0.12814736509E+03  0.12814736509E+03  0.00000000000E+00 0. -1.
         -6    2    1    2    0  503 -0.79101376356E+02 -0.10726256213E+03  0.65576769682E+02  0.22650930135E+03  0.17100837962E+03 0.  0.
        -24    2    3    3    0    0 -0.32628140064E+02  0.55244216057E+01 -0.18224778179E+01  0.87062487274E+02  0.80507394113E+02 0.  0.
          6    2    1    2  501    0  0.79101376356E+02  0.10726256213E+03  0.19999315852E+03  0.29535535704E+03  0.17168354174E+03 0.  0.
         24    2    5    5    0    0  0.14864325459E+02  0.56843788384E+02  0.18808694014E+03  0.21269763212E+03  0.80071350738E+02 0.  0.
          5    1    5    5  501    0  0.64237050897E+02  0.50418773745E+02  0.11906218386E+02  0.82657724927E+02  0.47000000000E+01 0. -1.
        -13    1    6    6    0    0  0.33850284128E+02  0.66311962814E+02  0.11849420734E+03  0.13994282876E+03  0.00000000000E+00 0.  1.
         14    1    6    6    0    0 -0.18985958669E+02 -0.94681744301E+01  0.69592732797E+02  0.72754803358E+02  0.00000000000E+00 0. -1.
         -5    1    3    3    0  503 -0.46473236291E+02 -0.11278698373E+03  0.67399247500E+02  0.13944681407E+03  0.47000000000E+01 0.  1.
         11    1    4    4    0    0  0.18368226612E+02 -0.17069929667E+02 -0.15699518872E+02  0.29584609860E+02  0.00000000000E+00 0. -1.
        -12    1    4    4    0    0 -0.50996366676E+02  0.22594351273E+02  0.13877041054E+02  0.57477877414E+02  0.00000000000E+00 0.  1.
</event>
<event>
12    1  0.9966151E-001  0.1804919E+03  0.7818608E-02  0.1168818E+00
         21   -1    0    0  501  502  0.00000000000E+00  0.00000000000E+00  0.10770805349E+04  0.10770805349E+04  0.00000000000E+00 0.  1.
         21   -1    0    0  502  503 -0.00000000000E+00 -0.00000000000E+00 -0.29627262481E+02  0.29627262481E+02  0.00000000000E+00 0.  1.
         -6    2    1    2    0  503  0.15761969105E+02 -0.28361780775E+02  0.59603204043E+03  0.62276120144E+03  0.17755137431E+03 0.  0.
        -24    2    3    3    0    0 -0.20438863303E+02 -0.76542304124E+02  0.46622848229E+03  0.47957280525E+03  0.79653037505E+02 0.  0.
          6    2    1    2  501    0 -0.15761969105E+02  0.28361780775E+02  0.45142123203E+03  0.48394659599E+03  0.17137779540E+03 0.  0.
         24    2    5    5    0    0 -0.53329662548E+02  0.17036864674E+02  0.14165906835E+03  0.17167384123E+03  0.79185279253E+02 0.  0.
          5    1    5    5  501    0  0.37567693442E+02  0.11324916101E+02  0.30976216368E+03  0.31227275476E+03  0.47000000000E+01 0. -1.
        -13    1    6    6    0    0  0.80555661322E+00 -0.24947787828E+02  0.60618540297E+02  0.65556452518E+02  0.00000000000E+00 0.  1.
         14    1    6    6    0    0 -0.54135219161E+02  0.41984652502E+02  0.81040528053E+02  0.10611738871E+03  0.00000000000E+00 0. -1.
         -5    1    3    3    0  503  0.36200832408E+02  0.48180523349E+02  0.12980355814E+03  0.14318839619E+03  0.47000000000E+01 0.  1.
         13    1    4    4    0    0 -0.58520431056E+01 -0.34114596421E+02  0.49300320152E+02  0.60237643252E+02  0.00000000000E+00 0. -1.
        -14    1    4    4    0    0 -0.14586820197E+02 -0.42427707702E+02  0.41692816214E+03  0.41933516200E+03  0.00000000000E+00 0.  1.
</event>
<event>
12    1  0.9966151E-001  0.1746461E+03  0.7818608E-02  0.1173452E+00
         21   -1    0    0  501  502  0.00000000000E+00  0.00000000000E+00  0.62364427001E+03  0.62364427001E+03  0.00000000000E+00 0.  1.
         21   -1    0    0  502  503 -0.00000000000E+00 -0.00000000000E+00 -0.62995757304E+02  0.62995757304E+02  0.00000000000E+00 0.  1.
         -6    2    1    2    0  503  0.25729122094E+02 -0.64100865680E+00  0.11656232480E+03  0.20997152920E+03  0.17273930906E+03 0.  0.
        -24    2    3    3    0    0 -0.18965220601E+02 -0.48822465352E+02  0.29522229207E+02  0.10080603428E+03  0.80913421723E+02 0.  0.
          6    2    1    2  501    0 -0.25729122094E+02  0.64100865680E+00  0.44408618791E+03  0.47666849812E+03  0.17128314627E+03 0.  0.
         24    2    5    5    0    0  0.14867714148E+02  0.49147210720E+02  0.15912270814E+03  0.18473146801E+03  0.78544139064E+02 0.  0.
          5    1    5    5  501    0 -0.40596836242E+02 -0.48506202063E+02  0.28496347976E+03  0.29193703011E+03  0.47000000000E+01 0. -1.
        -13    1    6    6    0    0  0.38362548282E+02 -0.90985135132E+00  0.70682604791E+02  0.80427256327E+02  0.00000000000E+00 0.  1.
         14    1    6    6    0    0 -0.23494834134E+02  0.50057062071E+02  0.88440103353E+02  0.10430421169E+03  0.00000000000E+00 0. -1.
         -5    1    3    3    0  503  0.44694342695E+02  0.48181456695E+02  0.87040095597E+02  0.10916549491E+03  0.47000000000E+01 0.  1.
         13    1    4    4    0    0 -0.54467364249E+01  0.40752928416E+01  0.43837939300E+02  0.44362595410E+02  0.00000000000E+00 0. -1.
        -14    1    4    4    0    0 -0.13518484176E+02 -0.52897758193E+02 -0.14315710093E+02  0.56443438872E+02  0.00000000000E+00 0.  1.
</event>
<event>
12    1  0.9966151E-001  0.2068838E+03  0.7818608E-02  0.1144281E+00
         21   -1    0    0  501  502  0.00000000000E+00  0.00000000000E+00  0.25934384180E+03  0.25934384180E+03  0.00000000000E+00 0.  1.
         21   -1    0    0  502  503 -0.00000000000E+00 -0.00000000000E+00 -0.29752576045E+03  0.29752576045E+03  0.00000000000E+00 0.  1.
         -6    2    1    2    0  503 -0.28048130242E+02  0.10971991476E+03  0.16735650929E+03  0.26524148094E+03  0.17181293520E+03 0.  0.
        -24    2    3    3    0    0 -0.25888044217E+02  0.32855499147E+02  0.16524917328E+03  0.18817439831E+03  0.79703451960E+02 0.  0.
          6    2    1    2  501    0  0.28048130242E+02 -0.10971991476E+03 -0.20553842794E+03  0.29162812132E+03  0.17313508737E+03 0.  0.
         24    2    5    5    0    0  0.77785995068E+02 -0.34872092699E+02 -0.11072701312E+03  0.16090954557E+03  0.79778985605E+02 0.  0.
          5    1    5    5  501    0 -0.49737864826E+02 -0.74847822059E+02 -0.94811414827E+02  0.13071857575E+03  0.47000000000E+01 0. -1.
        -11    1    6    6    0    0  0.39348192122E+00  0.16606537998E+02 -0.42430774005E+02  0.45566462612E+02  0.00000000000E+00 0.  1.
         12    1    6    6    0    0  0.77392513147E+02 -0.51478630697E+02 -0.68296239112E+02  0.11534308296E+03  0.00000000000E+00 0. -1.
         -5    1    3    3    0  503 -0.21600860249E+01  0.76864415611E+02  0.21073360167E+01  0.77067082622E+02  0.47000000000E+01 0.  1.
         11    1    4    4    0    0 -0.54511887841E+02  0.17358154514E+02  0.11199106116E+03  0.12575710407E+03  0.00000000000E+00 0. -1.
        -12    1    4    4    0    0  0.28623843625E+02  0.15497344633E+02  0.53258112120E+02  0.62417294247E+02  0.00000000000E+00 0.  1.
</event>
<event>
12    1  0.9966151E-001  0.2143313E+03  0.7818608E-02  0.1138215E+00
         21   -1    0    0  501  502  0.00000000000E+00  0.00000000000E+00  0.64992108360E+03  0.64992108360E+03  0.00000000000E+00 0. -1.
         21   -1    0    0  502  503 -0.00000000000E+00 -0.00000000000E+00 -0.11788373213E+03  0.11788373213E+03  0.00000000000E+00 0. -1.
         -6    2    1    2    0  503  0.12218616030E+03 -0.28426955951E+02  0.22877729667E+02  0.21537254639E+03  0.17356380276E+03 0.  0.
        -24    2    3    3    0    0  0.12024982897E+03 -0.34351125105E+02 -0.39122286044E+02  0.15288305042E+03  0.78756921452E+02 0.  0.
          6    2    1    2  501    0 -0.12218616030E+03  0.28426955951E+02  0.50915962181E+03  0.55243226933E+03  0.17378245633E+03 0.  0.
         24    2    5    5    0    0 -0.47996913443E+02 -0.42437478735E+02  0.32799870992E+03  0.34418439192E+03  0.82310987291E+02 0.  0.
          5    1    5    5  501    0 -0.74189246861E+02  0.70864434686E+02  0.18116091188E+03  0.20824787742E+03  0.47000000000E+01 0. -1.
        -13    1    6    6    0    0 -0.59205242583E+02 -0.29501095885E+02  0.31702432042E+03  0.32385181047E+03  0.00000000000E+00 0.  1.
         14    1    6    6    0    0  0.11208329140E+02 -0.12936382850E+02  0.10974389499E+02  0.20332581445E+02  0.00000000000E+00 0. -1.
         -5    1    3    3    0  503  0.19363313369E+01  0.59241691543E+01  0.62000015710E+02  0.62489495976E+02  0.47000000000E+01 0.  1.
         11    1    4    4    0    0  0.76545150114E+02 -0.55594863266E+02 -0.74897511445E+01  0.94900185457E+02  0.00000000000E+00 0. -1.
        -12    1    4    4    0    0  0.43704678853E+02  0.21243738161E+02 -0.31632534899E+02  0.57982864959E+02  0.00000000000E+00 0.  1.
</event>
<event>
12    1  0.9966151E-001  0.2598509E+03  0.7818608E-02  0.1108108E+00
         21   -1    0    0  501  502  0.00000000000E+00  0.00000000000E+00  0.41658496989E+03  0.41658496989E+03  0.00000000000E+00 0.  1.
         21   -1    0    0  502  503 -0.00000000000E+00 -0.00000000000E+00 -0.17085529077E+03  0.17085529077E+03  0.00000000000E+00 0.  1.
         -6    2    1    2    0  503 -0.17942392443E+03  0.59398122464E+02  0.20050999559E+03  0.32368405655E+03  0.16984118618E+03 0.  0.
        -24    2    3    3    0    0 -0.19989203179E+03  0.51404727804E+02  0.20363182435E+03  0.30099763789E+03  0.80835559690E+02 0.  0.
          6    2    1    2  501    0  0.17942392443E+03 -0.59398122464E+02  0.45219683521E+02  0.26375620410E+03  0.17832956517E+03 0.  0.
         24    2    5    5    0    0  0.20260740985E+03 -0.62770439231E+02  0.18768863531E+02  0.22811097448E+03  0.81807431666E+02 0.  0.
          5    1    5    5  501    0 -0.23183485416E+02  0.33723167670E+01  0.26450819990E+02  0.35645229618E+02  0.47000000000E+01 0. -1.
        -11    1    6    6    0    0  0.10976693284E+02  0.96832642730E+01 -0.14446058120E+02  0.20565553667E+02  0.00000000000E+00 0.  1.
         12    1    6    6    0    0  0.19163071656E+03 -0.72453703504E+02  0.33214921651E+02  0.20754542082E+03  0.00000000000E+00 0. -1.
         -5    1    3    3    0  503  0.20468107360E+02  0.79933946599E+01 -0.31218287593E+01  0.22686418666E+02  0.47000000000E+01 0.  1.
         11    1    4    4    0    0 -0.11312238980E+03  0.17154967064E+02  0.16323796714E+03  0.19934292535E+03  0.00000000000E+00 0. -1.
        -12    1    4    4    0    0 -0.86769641986E+02  0.34249760740E+02  0.40393857215E+02  0.10165471254E+03  0.00000000000E+00 0.  1.
</event>
<event>
12    1  0.9966151E-001  0.2074556E+03  0.7818608E-02  0.1144088E+00
         21   -1    0    0  503  502  0.00000000000E+00  0.00000000000E+00  0.93727990451E+03  0.93727990451E+03  0.00000000000E+00 0. -1.
         21   -1    0    0  501  503 -0.00000000000E+00 -0.00000000000E+00 -0.60085645252E+02  0.60085645252E+02  0.00000000000E+00 0. -1.
          6    2    1    2  501    0 -0.74451969282E+01  0.11146191394E+03  0.18996726706E+03  0.27950849212E+03  0.17192511567E+03 0.  0.
         24    2    3    3    0    0  0.12806158268E+02  0.26169886190E+01  0.31905472516E+02  0.86472339940E+02  0.79301072371E+02 0.  0.
         -6    2    1    2    0  502  0.74451969282E+01 -0.11146191394E+03  0.68722699220E+03  0.71785705764E+03  0.17481026051E+03 0.  0.
        -24    2    5    5    0    0  0.58915714454E+01 -0.10664595697E+03  0.69486738316E+03  0.70755789419E+03  0.79933864583E+02 0.  0.
          5    1    3    3  501    0 -0.20251355196E+02  0.10884492532E+03  0.15806179454E+03  0.19303615218E+03  0.47000000000E+01 0. -1.
        -11    1    4    4    0    0 -0.11183642134E+02 -0.35828377656E+00  0.53134809229E+02  0.54300185732E+02  0.00000000000E+00 0.  1.
         12    1    4    4    0    0  0.23989800402E+02  0.29752723956E+01 -0.21229336713E+02  0.32172154209E+02  0.00000000000E+00 0. -1.
         -5    1    5    5    0  502  0.15536254829E+01 -0.48159569688E+01 -0.76403909595E+01  0.10299163446E+02  0.47000000000E+01 0.  1.
         11    1    6    6    0    0 -0.14296799756E+02 -0.46009914038E+02  0.50352660841E+03  0.50582640901E+03  0.00000000000E+00 0. -1.
        -12    1    6    6    0    0  0.20188371201E+02 -0.60636042932E+02  0.19134077475E+03  0.20173148519E+03  0.00000000000E+00 0.  1.
</event>
<event>
12    1  0.9966151E-001  0.2884111E+03  0.7818608E-02  0.1091584E+00
         21   -1    0    0  503  502  0.00000000000E+00  0.00000000000E+00  0.29988086426E+03  0.29988086426E+03  0.00000000000E+00 0. -1.
         21   -1    0    0  501  503 -0.00000000000E+00 -0.00000000000E+00 -0.28864062772E+03  0.28864062772E+03  0.00000000000E+00 0.  1.
          6    2    1    2  501    0  0.22492310858E+03  0.47749497047E+02  0.70805012215E+02  0.29402373550E+03  0.16901534854E+03 0.  0.
         24    2    3    3    0    0  0.86713744433E+02  0.81520736329E+02  0.42389643296E+02  0.14886228011E+03  0.78728601259E+02 0.  0.
         -6    2    1    2    0  502 -0.22492310858E+03 -0.47749497047E+02 -0.59564775671E+02  0.29449775648E+03  0.17409924420E+03 0.  0.
        -24    2    5    5    0    0 -0.50283710913E+02 -0.41842456357E+02 -0.27805411515E+02  0.11683358013E+03  0.92723793059E+02 0.  0.
          5    1    3    3  501    0  0.13820936415E+03 -0.33771239282E+02  0.28415368919E+02  0.14516145539E+03  0.47000000000E+01 0. -1.
        -13    1    4    4    0    0  0.82184283239E+02  0.74142749426E+02  0.53402247644E+01  0.11081480815E+03  0.00000000000E+00 0.  1.
         14    1    4    4    0    0  0.45294611940E+01  0.73779869021E+01  0.37049418532E+02  0.38047471966E+02  0.00000000000E+00 0. -1.
         -5    1    5    5    0  502 -0.17463939767E+03 -0.59070406898E+01 -0.31759364156E+02  0.17766417635E+03  0.47000000000E+01 0.  1.
         11    1    6    6    0    0 -0.70272267561E+02 -0.45210446445E+02 -0.40561189316E+02  0.92883723734E+02  0.00000000000E+00 0. -1.
        -12    1    6    6    0    0  0.19988556648E+02  0.33679900880E+01  0.12755777801E+02  0.23949856396E+02  0.00000000000E+00 0.  1.
</event>
<event>
12    1  0.9966151E-001  0.1747565E+03  0.7818608E-02  0.1173276E+00
         21   -1    0    0  503  502  0.00000000000E+00  0.00000000000E+00  0.64694915455E+02  0.64694915455E+02  0.00000000000E+00 0.  1.
         21   -1    0    0  501  503 -0.00000000000E+00 -0.00000000000E+00 -0.22210710601E+04  0.22210710601E+04  0.00000000000E+00 0.  1.
          6    2    1    2  501    0  0.93226581091E+01  0.21834356490E+02 -0.62302971915E+02  0.18441348521E+03  0.17193900704E+03 0.  0.
         24    2    3    3    0    0 -0.15813641939E+02 -0.16799789797E+02 -0.96634761429E+02  0.12674900212E+03  0.78706595741E+02 0.  0.
         -6    2    1    2    0  502 -0.93226581091E+01 -0.21834356490E+02 -0.20940731727E+04  0.21013524903E+04  0.17313631864E+03 0.  0.
        -24    2    5    5    0    0 -0.36028629060E+02 -0.55074491659E+02 -0.18919473480E+04  0.18947246740E+04  0.78648336561E+02 0.  0.
          5    1    3    3  501    0  0.25136300048E+02  0.38634146287E+02  0.34331789514E+02  0.57664483096E+02  0.47000000000E+01 0. -1.
        -13    1    4    4    0    0 -0.34116698105E+02 -0.27436086644E+01 -0.79867415385E+01  0.35146330086E+02  0.00000000000E+00 0.  1.
         14    1    4    4    0    0  0.18303056166E+02 -0.14056181133E+02 -0.88648019891E+02  0.91602672033E+02  0.00000000000E+00 0. -1.
         -5    1    5    5    0  502  0.26705970951E+02  0.33240135169E+02 -0.20212582471E+03  0.20662781634E+03  0.47000000000E+01 0.  1.
         13    1    6    6    0    0  0.21277097162E+02 -0.32158065770E+02 -0.54382640972E+03  0.54519172771E+03  0.00000000000E+00 0. -1.
        -14    1    6    6    0    0 -0.57305726222E+02 -0.22916425889E+02 -0.13481209383E+04  0.13495329463E+04  0.00000000000E+00 0.  1.
</event>
<event>
12    1  0.9966151E-001  0.3289222E+03  0.7818608E-02  0.1071687E+00
         21   -1    0    0  503  502  0.00000000000E+00  0.00000000000E+00  0.23306639410E+03  0.23306639410E+03  0.00000000000E+00 0. -1.
         21   -1    0    0  501  503 -0.00000000000E+00 -0.00000000000E+00 -0.51980621902E+03  0.51980621902E+03  0.00000000000E+00 0.  1.
          6    2    1    2  501    0 -0.17899580387E+03  0.21507151039E+03 -0.19372186765E+02  0.32949221933E+03  0.17290051648E+03 0.  0.
         24    2    3    3    0    0 -0.19032646213E+03  0.15165451084E+03 -0.43884451556E+02  0.26040502245E+03  0.81619101833E+02 0.  0.
         -6    2    1    2    0  502  0.17899580387E+03 -0.21507151039E+03 -0.26736763815E+03  0.42338039379E+03  0.17166901740E+03 0.  0.
        -24    2    5    5    0    0  0.11911051767E+03 -0.16836547710E+03 -0.10666287166E+03  0.24557203341E+03  0.79965030499E+02 0.  0.
          5    1    3    3  501    0  0.11330658260E+02  0.63416999543E+02  0.24512264791E+02  0.69087196881E+02  0.47000000000E+01 0. -1.
        -11    1    4    4    0    0 -0.46188482921E+02  0.64438614439E+02 -0.46502399428E+02  0.91914004036E+02  0.00000000000E+00 0.  1.
         12    1    4    4    0    0 -0.14413797921E+03  0.87215896405E+02  0.26179478724E+01  0.16849101841E+03  0.00000000000E+00 0. -1.
         -5    1    5    5    0  502  0.59885286197E+02 -0.46706033285E+02 -0.16070476650E+03  0.17780836039E+03  0.47000000000E+01 0.  1.
         13    1    6    6    0    0  0.99128795711E+02 -0.10569999691E+03 -0.10643377079E+03  0.17979753905E+03  0.00000000000E+00 0. -1.
        -14    1    6    6    0    0  0.19981721958E+02 -0.62665480193E+02 -0.22910086838E+00  0.65774494354E+02  0.00000000000E+00 0.  1.
</event>
<event>
12    1  0.9966151E-001  0.3428341E+03  0.7818608E-02  0.1066024E+00
         21   -1    0    0  503  502  0.00000000000E+00  0.00000000000E+00  0.16060835784E+03  0.16060835784E+03  0.00000000000E+00 0.  1.
         21   -1    0    0  501  503 -0.00000000000E+00 -0.00000000000E+00 -0.75276554270E+03  0.75276554270E+03  0.00000000000E+00 0.  1.
          6    2    1    2  501    0 -0.33786289419E+02 -0.29474371322E+03 -0.20725725110E+03  0.40061302504E+03  0.17181343912E+03 0.  0.
         24    2    3    3    0    0 -0.10638028117E+02 -0.94445024720E+02 -0.14478151316E+03  0.18947156902E+03  0.76842426952E+02 0.  0.
         -6    2    1    2    0  502  0.33786289419E+02  0.29474371322E+03 -0.38489993377E+03  0.51276087551E+03  0.16358602203E+03 0.  0.
        -24    2    5    5    0    0  0.66708380906E+02  0.27463539456E+03 -0.36627800299E+03  0.46966708369E+03  0.80950515768E+02 0.  0.
          5    1    3    3  501    0 -0.23148261303E+02 -0.20029868850E+03 -0.62475737940E+02  0.21114145602E+03  0.47000000000E+01 0. -1.
        -13    1    4    4    0    0  0.22546833596E+02 -0.67755029709E+01 -0.10672902326E+02  0.25849139053E+02  0.00000000000E+00 0.  1.
         14    1    4    4    0    0 -0.33184861713E+02 -0.87669521749E+02 -0.13410861083E+03  0.16362242997E+03  0.00000000000E+00 0. -1.
         -5    1    5    5    0  502 -0.32922091486E+02  0.20108318665E+02 -0.18621930777E+02  0.43093791818E+02  0.47000000000E+01 0.  1.
         13    1    6    6    0    0 -0.10755568530E+02  0.67115449028E+02 -0.54027215399E+02  0.86828024027E+02  0.00000000000E+00 0. -1.
        -14    1    6    6    0    0  0.77463949436E+02  0.20751994553E+03 -0.31225078759E+03  0.38283905966E+03  0.00000000000E+00 0.  1.
</event>
<event>
12    1  0.9966151E-001  0.2736462E+03  0.7818608E-02  0.1099214E+00
         21   -1    0    0  503  502  0.00000000000E+00  0.00000000000E+00  0.23752332813E+03  0.23752332813E+03  0.00000000000E+00 0. -1.
         21   -1    0    0  501  503 -0.00000000000E+00 -0.00000000000E+00 -0.31787323623E+03  0.31787323623E+03  0.00000000000E+00 0. -1.
          6    2    1    2  501    0  0.17459410424E+03 -0.12081248195E+03 -0.14864671007E+02  0.27404963616E+03  0.17263686630E+03 0.  0.
         24    2    3    3    0    0  0.14742565287E+03 -0.15204242605E+03 -0.35838080559E+02  0.22740836617E+03  0.74692533377E+02 0.  0.
         -6    2    1    2    0  502 -0.17459410424E+03  0.12081248195E+03 -0.65485237093E+02  0.28134692819E+03  0.17259496138E+03 0.  0.
        -24    2    5    5    0    0 -0.30039142204E+02  0.79933033077E+02 -0.60497754534E+02  0.13096663902E+03  0.78744157819E+02 0.  0.
          5    1    3    3  501    0  0.27168451369E+02  0.31229944102E+02  0.20973409552E+02  0.46641269994E+02  0.47000000000E+01 0. -1.
        -13    1    4    4    0    0  0.60259972147E+02 -0.10438361178E+03 -0.42597203140E+02  0.12783475414E+03  0.00000000000E+00 0.  1.
         14    1    4    4    0    0  0.87165680726E+02 -0.47658814265E+02  0.67591225810E+01  0.99573612025E+02  0.00000000000E+00 0. -1.
         -5    1    5    5    0  502 -0.14455496204E+03  0.40879448869E+02 -0.49874825591E+01  0.15038028917E+03  0.47000000000E+01 0.  1.
         13    1    6    6    0    0  0.74106141438E+01  0.26611469706E+02  0.14841899950E+02  0.31358723125E+02  0.00000000000E+00 0. -1.
        -14    1    6    6    0    0 -0.37449756348E+02  0.53321563372E+02 -0.75339654483E+02  0.99607915893E+02  0.00000000000E+00 0.  1.
</event>
<event>
12    1  0.9966151E-001  0.2496884E+03  0.7818608E-02  0.1113745E+00
         21   -1    0    0  503  502  0.00000000000E+00  0.00000000000E+00  0.15832051856E+03  0.15832051856E+03  0.00000000000E+00 0. -1.
         21   -1    0    0  501  503 -0.00000000000E+00 -0.00000000000E+00 -0.58408368426E+03  0.58408368426E+03  0.00000000000E+00 0. -1.
          6    2    1    2  501    0  0.40374727864E+00 -0.18025269618E+03 -0.10349503742E+00  0.24968838364E+03  0.17278044080E+03 0.  0.
         24    2    3    3    0    0  0.13843282870E+02 -0.29345040018E+02 -0.33935141195E+02  0.94380907691E+02  0.81874257703E+02 0.  0.
         -6    2    1    2    0  502 -0.40374727864E+00  0.18025269618E+03 -0.42565967067E+03  0.49271581918E+03  0.17056238080E+03 0.  0.
        -24    2    5    5    0    0  0.71052879377E+01  0.42277281109E+02 -0.90859980087E+02  0.13049140865E+03  0.83274354602E+02 0.  0.
          5    1    3    3  501    0 -0.13439535591E+02 -0.15090765616E+03  0.33831646158E+02  0.15530747595E+03  0.47000000000E+01 0. -1.
        -11    1    4    4    0    0 -0.17191965743E+02 -0.44313708390E+02 -0.22727100163E+01  0.47586065694E+02  0.00000000000E+00 0.  1.
         12    1    4    4    0    0  0.31035248613E+02  0.14968668373E+02 -0.31662431179E+02  0.46794841997E+02  0.00000000000E+00 0. -1.
         -5    1    5    5    0  502 -0.75090352163E+01  0.13797541507E+03 -0.33479969058E+03  0.36222441053E+03  0.47000000000E+01 0.  1.
         11    1    6    6    0    0  0.39668110664E+02 -0.20818321598E+00 -0.32326524845E+02  0.51172322133E+02  0.00000000000E+00 0. -1.
        -12    1    6    6    0    0 -0.32562822726E+02  0.42485464325E+02 -0.58533455242E+02  0.79319086513E+02  0.00000000000E+00 0.  1.
</event>
<event>
12    1  0.9966151E-001  0.3646905E+03  0.7818608E-02  0.1056850E+00
         21   -1    0    0  501  502  0.00000000000E+00  0.00000000000E+00  0.17609057470E+04  0.17609057470E+04  0.00000000000E+00 0.  1.
         21   -1    0    0  502  503 -0.00000000000E+00 -0.00000000000E+00 -0.80138664874E+02  0.80138664874E+02  0.00000000000E+00 0.  1.
         -6    2    1    2    0  503  0.21193031470E+03  0.24223777691E+03  0.10653877148E+04  0.11257186446E+04  0.16910909242E+03 0.  0.
        -24    2    3    3    0    0  0.23432839127E+03  0.23013221616E+03  0.98864145767E+03  0.10447229878E+04  0.78508328250E+02 0.  0.
          6    2    1    2  501    0 -0.21193031470E+03 -0.24223777691E+03  0.61537936736E+03  0.71532576729E+03  0.17148057828E+03 0.  0.
         24    2    5    5    0    0 -0.57773885992E+02 -0.75465650562E+02  0.31663286886E+03  0.34002760981E+03  0.79558252092E+02 0.  0.
          5    1    5    5  501    0 -0.15415642871E+03 -0.16677212635E+03  0.29874649850E+03  0.37529815747E+03  0.47000000000E+01 0. -1.
        -11    1    6    6    0    0 -0.64803578076E+02 -0.87951084869E+02  0.27075582192E+03  0.29196508723E+03  0.00000000000E+00 0.  1.
         12    1    6    6    0    0  0.70296920838E+01  0.12485434307E+02  0.45877046944E+02  0.48062522582E+02  0.00000000000E+00 0. -1.
         -5    1    3    3    0  503 -0.22398076568E+02  0.12105560748E+02  0.76746257145E+02  0.80995656801E+02  0.47000000000E+01 0.  1.
         11    1    4    4    0    0  0.52193758447E+02  0.44054148513E+02  0.31922074510E+03  0.32644576966E+03  0.00000000000E+00 0. -1.
        -12    1    4    4    0    0  0.18213463282E+03  0.18607806765E+03  0.66942071257E+03  0.71827721818E+03  0.00000000000E+00 0.  1.
</event>
<event>
12    1  0.9966151E-001  0.2165364E+03  0.7818608E-02  0.1136493E+00
         21   -1    0    0  503  502  0.00000000000E+00  0.00000000000E+00  0.21623985985E+03  0.21623985985E+03  0.00000000000E+00 0.  1.
         21   -1    0    0  501  503 -0.00000000000E+00 -0.00000000000E+00 -0.29794464184E+03  0.29794464184E+03  0.00000000000E+00 0.  1.
          6    2    1    2  501    0  0.13038233067E+03 -0.13109029611E+02  0.93292255230E+02  0.23577475660E+03  0.17238008050E+03 0.  0.
         24    2    3    3    0    0  0.93658463970E+00 -0.35491074306E+01  0.40313075367E+02  0.95501891161E+02  0.86498519151E+02 0.  0.
         -6    2    1    2    0  502 -0.13038233067E+03  0.13109029611E+02 -0.17499703722E+03  0.27840974509E+03  0.17238510468E+03 0.  0.
        -24    2    5    5    0    0 -0.51892130501E+02 -0.31028197435E+02 -0.26581284706E+02  0.10474877674E+03  0.81303132089E+02 0.  0.
          5    1    3    3  501    0  0.12944574604E+03 -0.95599221807E+01  0.52979179863E+02  0.14027286544E+03  0.47000000000E+01 0. -1.
        -11    1    4    4    0    0 -0.31907434715E+01 -0.40515555543E+02 -0.12645513580E-01  0.40641004475E+02  0.00000000000E+00 0.  1.
         12    1    4    4    0    0  0.41273281112E+01  0.36966448112E+02  0.40325720881E+02  0.54860886686E+02  0.00000000000E+00 0. -1.
         -5    1    5    5    0  502 -0.78490200174E+02  0.44137227046E+02 -0.14841575251E+03  0.17366096835E+03  0.47000000000E+01 0.  1.
         11    1    6    6    0    0 -0.67984210740E+02 -0.30678867375E+01 -0.11051055512E+02  0.68944837855E+02  0.00000000000E+00 0. -1.
        -12    1    6    6    0    0  0.16092080239E+02 -0.27960310698E+02 -0.15530229194E+02  0.35803938883E+02  0.00000000000E+00 0.  1.
</event>
<event>
12    1  0.9966151E-001  0.3042910E+03  0.7818608E-02  0.1083238E+00
         21   -1    0    0  503  502  0.00000000000E+00  0.00000000000E+00  0.29135576768E+03  0.29135576768E+03  0.00000000000E+00 0.  1.
         21   -1    0    0  501  503 -0.00000000000E+00 -0.00000000000E+00 -0.49639369300E+03  0.49639369300E+03  0.00000000000E+00 0.  1.
          6    2    1    2  501    0 -0.61668932450E+02  0.24343735447E+03  0.13431679778E+03  0.33261695441E+03  0.17183781137E+03 0.  0.
         24    2    3    3    0    0 -0.58035971642E+02  0.69393486327E+02  0.16167802336E+02  0.12217517727E+03  0.80509292385E+02 0.  0.
         -6    2    1    2    0  502  0.61668932450E+02 -0.24343735447E+03 -0.33935472310E+03  0.45513250627E+03  0.17005636534E+03 0.  0.
        -24    2    5    5    0    0  0.28043380097E+02 -0.22188816935E+03 -0.34014258423E+03  0.41491117019E+03  0.80209168324E+02 0.  0.
          5    1    3    3  501    0 -0.36329608072E+01  0.17404386814E+03  0.11814899544E+03  0.21044177714E+03  0.47000000000E+01 0. -1.
        -11    1    4    4    0    0  0.17464922056E+02 -0.13914461600E+01  0.39793501860E+01  0.17966492500E+02  0.00000000000E+00 0.  1.
         12    1    4    4    0    0 -0.75500893699E+02  0.70784932487E+02  0.12188452150E+02  0.10420868477E+03  0.00000000000E+00 0. -1.
         -5    1    5    5    0  502  0.33625552353E+02 -0.21549185121E+02  0.78786112940E+00  0.40221336074E+02  0.47000000000E+01 0.  1.
         11    1    6    6    0    0  0.34760878790E+02 -0.19283688270E+03 -0.23682432574E+03  0.30737622434E+03  0.00000000000E+00 0. -1.
        -12    1    6    6    0    0 -0.67174986924E+01 -0.29051286649E+02 -0.10331825848E+03  0.10753494586E+03  0.00000000000E+00 0.  1.
</event>
<event>
12    1  0.9966151E-001  0.1853093E+03  0.7818608E-02  0.1163373E+00
         21   -1    0    0  503  502  0.00000000000E+00  0.00000000000E+00  0.12620570055E+03  0.12620570055E+03  0.00000000000E+00 0. -1.
         21   -1    0    0  501  503 -0.00000000000E+00 -0.00000000000E+00 -0.45463703617E+03  0.45463703617E+03  0.00000000000E+00 0.  1.
          6    2    1    2  501    0 -0.13068088656E+01 -0.65781007833E+02  0.21034279250E+02  0.18649922772E+03  0.17323588628E+03 0.  0.
         24    2    3    3    0    0 -0.66164016589E+02 -0.41935661736E+02 -0.62579052222E+01  0.11205454182E+03  0.79879798130E+02 0.  0.
         -6    2    1    2    0  502  0.13068088656E+01  0.65781007833E+02 -0.34946561486E+03  0.39434350900E+03  0.17044570507E+03 0.  0.
        -24    2    5    5    0    0 -0.12433252722E+02  0.43164677810E+02 -0.75841110683E+02  0.11940215714E+03  0.80543316766E+02 0.  0.
          5    1    3    3  501    0  0.64857207724E+02 -0.23845346097E+02  0.27292184472E+02  0.74444685891E+02  0.47000000000E+01 0. -1.
        -11    1    4    4    0    0 -0.47559454182E+02  0.14682700943E+02 -0.14612845334E+02  0.51875029040E+02  0.00000000000E+00 0.  1.
         12    1    4    4    0    0 -0.18604562407E+02 -0.56618362679E+02  0.83549401118E+01  0.60179512785E+02  0.00000000000E+00 0. -1.
         -5    1    5    5    0  502  0.13740061587E+02  0.22616330022E+02 -0.27362450418E+03  0.27494135186E+03  0.47000000000E+01 0.  1.
         11    1    6    6    0    0 -0.11496948704E+02  0.55121263623E+02 -0.86596152755E+02  0.10329291943E+03  0.00000000000E+00 0. -1.
        -12    1    6    6    0    0 -0.93630401799E+00 -0.11956585812E+02  0.10755042071E+02  0.16109237706E+02  0.00000000000E+00 0.  1.
</event>
<event>
12    1  0.9966151E-001  0.2491295E+03  0.7818608E-02  0.1113908E+00
         21   -1    0    0  503  502  0.00000000000E+00  0.00000000000E+00  0.86058820762E+02  0.86058820762E+02  0.00000000000E+00 0.  1.
         21   -1    0    0  501  503 -0.00000000000E+00 -0.00000000000E+00 -0.81826813366E+03  0.81826813366E+03  0.00000000000E+00 0.  1.
          6    2    1    2  501    0  0.16969756283E+03  0.59096491412E+02 -0.20941054325E+03  0.32520344650E+03  0.17208965065E+03 0.  0.
         24    2    3    3    0    0  0.13843965912E+03 -0.19127121629E+02 -0.10740599640E+03  0.19282894835E+03  0.78202105220E+02 0.  0.
         -6    2    1    2    0  502 -0.16969756283E+03 -0.59096491412E+02 -0.52279876965E+03  0.57912350793E+03  0.17255673200E+03 0.  0.
        -24    2    5    5    0    0 -0.19388795449E+03 -0.67306646382E+02 -0.43398117918E+03  0.48658575309E+03  0.79393373047E+02 0.  0.
          5    1    3    3  501    0  0.31257903711E+02  0.78223613041E+02 -0.10200454684E+03  0.13237449814E+03  0.47000000000E+01 0. -1.
        -11    1    4    4    0    0  0.99017654700E+02  0.13830075111E+02 -0.39096923230E+02  0.10735146169E+03  0.00000000000E+00 0.  1.
         12    1    4    4    0    0  0.39422004419E+02 -0.32957196740E+02 -0.68309073172E+02  0.85477486668E+02  0.00000000000E+00 0. -1.
         -5    1    5    5    0  502  0.24190391660E+02  0.82101549704E+01 -0.88817590471E+02  0.92537754837E+02  0.47000000000E+01 0.  1.
         11    1    6    6    0    0 -0.83290642025E+02  0.88253435410E+01 -0.19976914039E+03  0.21661700577E+03  0.00000000000E+00 0. -1.
        -12    1    6    6    0    0 -0.11059731247E+03 -0.76131989923E+02 -0.23421203880E+03  0.26996874732E+03  0.00000000000E+00 0.  1.
</event>
<event>
12    1  0.9966151E-001  0.2241191E+03  0.7818608E-02  0.1130897E+00
         21   -1    0    0  501  502  0.00000000000E+00  0.00000000000E+00  0.89677912506E+03  0.89677912506E+03  0.00000000000E+00 0. -1.
         21   -1    0    0  502  503 -0.00000000000E+00 -0.00000000000E+00 -0.11031667014E+03  0.11031667014E+03  0.00000000000E+00 0. -1.
         -6    2    1    2    0  503  0.12055754217E+03 -0.78342907326E+02  0.74686133639E+03  0.77976356470E+03  0.17192332284E+03 0.  0.
        -24    2    3    3    0    0  0.52805034287E+02 -0.11254662765E+03  0.52395974077E+03  0.54424815515E+03  0.78848775423E+02 0.  0.
          6    2    1    2  501    0 -0.12055754217E+03  0.78342907326E+02  0.39601118528E+02  0.22733223049E+03  0.17158077494E+03 0.  0.
         24    2    5    5    0    0 -0.89065821992E+02  0.11356857473E+03  0.48204426687E+00  0.16581013645E+03  0.81622467322E+02 0.  0.
          5    1    5    5  501    0 -0.31491720181E+02 -0.35225667402E+02  0.39119074261E+02  0.61522094039E+02  0.47000000000E+01 0. -1.
        -13    1    6    6    0    0 -0.61446151312E+02  0.48662916363E+02  0.36665016244E+02  0.86533417569E+02  0.00000000000E+00 0.  1.
         14    1    6    6    0    0 -0.27619670680E+02  0.64905658365E+02 -0.36182971977E+02  0.79276718886E+02  0.00000000000E+00 0. -1.
         -5    1    3    3    0  503  0.67752507886E+02  0.34203720328E+02  0.22290159562E+03  0.23551540956E+03  0.47000000000E+01 0.  1.
         11    1    4    4    0    0  0.20932948158E+02  0.29211928261E+01  0.35502877902E+02  0.41317986706E+02  0.00000000000E+00 0. -1.
        -12    1    4    4    0    0  0.31872086129E+02 -0.11546782048E+03  0.48845686287E+03  0.50293016844E+03  0.00000000000E+00 0.  1.
</event>
<event>
12    1  0.9966151E-001  0.1954313E+03  0.7818608E-02  0.1153860E+00
         21   -1    0    0  503  502  0.00000000000E+00  0.00000000000E+00  0.48196146073E+03  0.48196146073E+03  0.00000000000E+00 0.  1.
         21   -1    0    0  501  503 -0.00000000000E+00 -0.00000000000E+00 -0.79107763968E+02  0.79107763968E+02  0.00000000000E+00 0.  1.
          6    2    1    2  501    0  0.69040687396E+02 -0.60113838745E+02  0.21668826829E+03  0.29116007113E+03  0.17158115072E+03 0.  0.
         24    2    3    3    0    0  0.95673743132E+02 -0.47728176801E+01  0.18200273009E+03  0.22046972646E+03  0.79408196121E+02 0.  0.
         -6    2    1    2    0  502 -0.69040687396E+02  0.60113838745E+02  0.18616542847E+03  0.26990915356E+03  0.17266468746E+03 0.  0.
        -24    2    5    5    0    0 -0.65331402227E+02  0.52799476357E+02  0.21336539245E+03  0.24111355088E+03  0.74531717414E+02 0.  0.
          5    1    3    3  501    0 -0.26633055736E+02 -0.55341021065E+02  0.34685538203E+02  0.70690344679E+02  0.47000000000E+01 0. -1.
        -13    1    4    4    0    0  0.29346105950E+02  0.15756951608E+02  0.96827998368E+01  0.34687635709E+02  0.00000000000E+00 0.  1.
         14    1    4    4    0    0  0.66327637182E+02 -0.20529769288E+02  0.17231993025E+03  0.18578209075E+03  0.00000000000E+00 0. -1.
         -5    1    5    5    0  502 -0.37092851696E+01  0.73143623883E+01 -0.27199963979E+02  0.28795602686E+02  0.47000000000E+01 0.  1.
         13    1    6    6    0    0 -0.30108302340E+02  0.82470352529E+01  0.16054994775E+03  0.16355674607E+03  0.00000000000E+00 0. -1.
        -14    1    6    6    0    0 -0.35223099887E+02  0.44552441104E+02  0.52815444699E+02  0.77556804812E+02  0.00000000000E+00 0.  1.
</event>
<event>
12    1  0.9966151E-001  0.1954537E+03  0.7818608E-02  0.1153703E+00
         21   -1    0    0  503  502  0.00000000000E+00  0.00000000000E+00  0.20525621467E+04  0.20525621467E+04  0.00000000000E+00 0.  1.
         21   -1    0    0  501  503 -0.00000000000E+00 -0.00000000000E+00 -0.28685852149E+02  0.28685852149E+02  0.00000000000E+00 0.  1.
          6    2    1    2  501    0 -0.39640477237E+02  0.83430891367E+02  0.16290196472E+04  0.16406643998E+04  0.17187955340E+03 0.  0.
         24    2    3    3    0    0  0.94109791708E+01  0.10808309831E+03  0.13216288586E+04  0.13283745287E+04  0.78137865504E+02 0.  0.
         -6    2    1    2    0  502  0.39640477237E+02 -0.83430891367E+02  0.39485664737E+03  0.44058359903E+03  0.17224997733E+03 0.  0.
        -24    2    5    5    0    0  0.72420489591E+02 -0.37615306409E+01  0.19964538640E+03  0.22715618125E+03  0.80515675148E+02 0.  0.
          5    1    3    3  501    0 -0.49051456408E+02 -0.24652206942E+02  0.30739078856E+03  0.31228987107E+03  0.47000000000E+01 0. -1.
        -13    1    4    4    0    0  0.19455050380E+02  0.32804072687E-01  0.38296966428E+03  0.38346351042E+03  0.00000000000E+00 0.  1.
         14    1    4    4    0    0 -0.10044071209E+02  0.10805029424E+03  0.93865919433E+03  0.94491101832E+03  0.00000000000E+00 0. -1.
         -5    1    5    5    0  502 -0.32780012354E+02 -0.79669360726E+02  0.19521126097E+03  0.21342741778E+03  0.47000000000E+01 0.  1.
         13    1    6    6    0    0  0.60244722077E+02 -0.25655422398E+02  0.18884554972E+03  0.19987563354E+03  0.00000000000E+00 0. -1.
        -14    1    6    6    0    0  0.12175767514E+02  0.21893891757E+02  0.10799836683E+02  0.27280547707E+02  0.00000000000E+00 0.  1.
</event>
<event>
12    1  0.9966151E-001  0.2860370E+03  0.7818608E-02  0.1092779E+00
         21   -1    0    0  503  502  0.00000000000E+00  0.00000000000E+00  0.10472327886E+03  0.10472327886E+03  0.00000000000E+00 0.  1.
         21   -1    0    0  501  503 -0.00000000000E+00 -0.00000000000E+00 -0.77430174365E+03  0.77430174365E+03  0.00000000000E+00 0.  1.
          6    2    1    2  501    0 -0.18860217623E+03 -0.12146920843E+03 -0.33146602950E+03  0.43615122349E+03  0.17329919664E+03 0.  0.
         24    2    3    3    0    0 -0.93893156815E+02 -0.26487892010E+02 -0.24485066220E+03  0.27641531431E+03  0.83282926721E+02 0.  0.
         -6    2    1    2    0  502  0.18860217623E+03  0.12146920843E+03 -0.33811243529E+03  0.44287379903E+03  0.17745882196E+03 0.  0.
        -24    2    5    5    0    0  0.18733592196E+03  0.11658533661E+03 -0.35433376783E+03  0.42524776052E+03  0.81217919442E+02 0.  0.
          5    1    3    3  501    0 -0.94709019418E+02 -0.94981316425E+02 -0.86615367300E+02  0.15973590918E+03  0.47000000000E+01 0. -1.
        -11    1    4    4    0    0 -0.55204205653E+02 -0.48157505107E+02 -0.93958501699E+02  0.11914214058E+03  0.00000000000E+00 0.  1.
         12    1    4    4    0    0 -0.38688951162E+02  0.21669613098E+02 -0.15089216050E+03  0.15727317373E+03  0.00000000000E+00 0. -1.
         -5    1    5    5    0  502  0.12662542720E+01  0.48838718274E+01  0.16221332541E+02  0.17626038503E+02  0.47000000000E+01 0.  1.
         13    1    6    6    0    0  0.13074283428E+03  0.11888350741E+03 -0.24455439047E+03  0.30171812499E+03  0.00000000000E+00 0. -1.
        -14    1    6    6    0    0  0.56593087681E+02 -0.22981707987E+01 -0.10977937735E+03  0.12352963553E+03  0.00000000000E+00 0.  1.
</event>
<event>
12    1  0.9966151E-001  0.1850244E+03  0.7818608E-02  0.1163256E+00
         21   -1    0    0  503  502  0.00000000000E+00  0.00000000000E+00  0.10112997096E+03  0.10112997096E+03  0.00000000000E+00 0. -1.
         21   -1    0    0  501  503 -0.00000000000E+00 -0.00000000000E+00 -0.39204740409E+03  0.39204740409E+03  0.00000000000E+00 0. -1.
          6    2    1    2  501    0 -0.28450157433E+02  0.61235348002E+02 -0.53160204104E+02  0.19250987564E+03  0.17226394172E+03 0.  0.
         24    2    3    3    0    0 -0.69719974028E+02  0.55085872153E+02 -0.78097119474E+02  0.14367388929E+03  0.81533418326E+02 0.  0.
         -6    2    1    2    0  502  0.28450157433E+02 -0.61235348002E+02 -0.23775722903E+03  0.30066749941E+03  0.17121117355E+03 0.  0.
        -24    2    5    5    0    0 -0.43798242220E+02 -0.54466230819E+02 -0.99152396533E+02  0.14414580191E+03  0.77858577872E+02 0.  0.
          5    1    3    3  501    0  0.41269816595E+02  0.61494758486E+01  0.24936915371E+02  0.48835986354E+02  0.47000000000E+01 0. -1.
        -13    1    4    4    0    0 -0.51071619443E+02  0.12682151110E+02  0.28872346723E+00  0.52623479841E+02  0.00000000000E+00 0.  1.
         14    1    4    4    0    0 -0.18648354585E+02  0.42403721043E+02 -0.78385842941E+02  0.91050409448E+02  0.00000000000E+00 0. -1.
         -5    1    5    5    0  502  0.72248399653E+02 -0.67691171830E+01 -0.13860483249E+03  0.15652169751E+03  0.47000000000E+01 0.  1.
         11    1    6    6    0    0 -0.33135291171E+02 -0.14543228621E+02  0.58069437062E+00  0.36191024104E+02  0.00000000000E+00 0. -1.
        -12    1    6    6    0    0 -0.10662951049E+02 -0.39923002198E+02 -0.99733090904E+02  0.10795477780E+03  0.00000000000E+00 0.  1.
</event>
<event>
12    1  0.9966151E-001  0.2923069E+03  0.7818608E-02  0.1089291E+00
         21   -1    0    0  501  502  0.00000000000E+00  0.00000000000E+00  0.37224488277E+02  0.37224488277E+02  0.00000000000E+00 0.  1.
         21   -1    0    0  502  503 -0.00000000000E+00 -0.00000000000E+00 -0.24202603154E+04  0.24202603154E+04  0.00000000000E+00 0.  1.
         -6    2    1    2    0  503 -0.20327963063E+03  0.11825600901E+03 -0.90097876708E+03  0.94687683532E+03  0.17177284603E+03 0.  0.
        -24    2    3    3    0    0 -0.12885295710E+03  0.13831686289E+03 -0.64737905374E+03  0.68177935853E+03  0.99944061282E+02 0.  0.
          6    2    1    2  501    0  0.20327963063E+03 -0.11825600901E+03 -0.14820570600E+04  0.15106079683E+04  0.17359784836E+03 0.  0.
         24    2    5    5    0    0  0.14300212918E+03 -0.97420628317E+02 -0.13511219382E+04  0.13648904800E+04  0.86343169136E+02 0.  0.
          5    1    5    5  501    0  0.60277501444E+02 -0.20835380690E+02 -0.13093512183E+03  0.14571748830E+03  0.47000000000E+01 0. -1.
        -11    1    6    6    0    0  0.26443397892E+02  0.14959303548E+02 -0.27161306237E+03  0.27330695144E+03  0.00000000000E+00 0.  1.
         12    1    6    6    0    0  0.11655873129E+03 -0.11237993187E+03 -0.10795088758E+04  0.10915835286E+04  0.00000000000E+00 0. -1.
         -5    1    3    3    0  503 -0.74426673524E+02 -0.20060853887E+02 -0.25359971334E+03  0.26509747679E+03  0.47000000000E+01 0.  1.
         13    1    4    4    0    0 -0.66866303114E+01  0.73118897999E+02 -0.26965143908E+03  0.27946910897E+03  0.00000000000E+00 0. -1.
        -14    1    4    4    0    0 -0.12216632679E+03  0.65197964895E+02 -0.37772761466E+03  0.40231024956E+03  0.00000000000E+00 0.  1.
</event>
<event>
12    1  0.9966151E-001  0.2409681E+03  0.7818608E-02  0.1119538E+00
         21   -1    0    0  503  502  0.00000000000E+00  0.00000000000E+00  0.23515148944E+03  0.23515148944E+03  0.00000000000E+00 0. -1.
         21   -1    0    0  501  503 -0.00000000000E+00 -0.00000000000E+00 -0.27527732018E+03  0.27527732018E+03  0.00000000000E+00 0. -1.
          6    2    1    2  501    0  0.35568944800E+02 -0.16355531796E+03  0.65300866233E+02  0.24740712615E+03  0.17008994994E+03 0.  0.
         24    2    3    3    0    0  0.73530531669E+02 -0.89315886072E+02 -0.13737941029E+01  0.14054190423E+03  0.79787674127E+02 0.  0.
         -6    2    1    2    0  502 -0.35568944800E+02  0.16355531796E+03 -0.10542669698E+03  0.26302168347E+03  0.17334972072E+03 0.  0.
        -24    2    5    5    0    0 -0.50938433597E+02  0.18600005471E+03 -0.74990494974E+02  0.22193105453E+03  0.80243842514E+02 0.  0.
          5    1    3    3  501    0 -0.37961586869E+02 -0.74239431884E+02  0.66674660336E+02  0.10686522192E+03  0.47000000000E+01 0. -1.
        -11    1    4    4    0    0 -0.15608866395E+02 -0.28890328861E+02 -0.96179848271E+00  0.32851375438E+02  0.00000000000E+00 0.  1.
         12    1    4    4    0    0  0.89139398065E+02 -0.60425557211E+02 -0.41199562016E+00  0.10769052879E+03  0.00000000000E+00 0. -1.
         -5    1    5    5    0  502  0.15369488797E+02 -0.22444736751E+02 -0.30436202004E+02  0.41090628933E+02  0.47000000000E+01 0.  1.
         11    1    6    6    0    0 -0.24625740362E+01  0.44593814506E+00 -0.23124688736E+02  0.23259715408E+02  0.00000000000E+00 0. -1.
        -12    1    6    6    0    0 -0.48475859561E+02  0.18555411656E+03 -0.51865806238E+02  0.19867133913E+03  0.00000000000E+00 0.  1.
</event>
<event>
12    1  0.9966151E-001  0.1800519E+03  0.7818608E-02  0.1168340E+00
         21   -1    0    0  503  502  0.00000000000E+00  0.00000000000E+00  0.78600309544E+02  0.78600309544E+02  0.00000000000E+00 0. -1.
         21   -1    0    0  501  503 -0.00000000000E+00 -0.00000000000E+00 -0.41485990918E+03  0.41485990918E+03  0.00000000000E+00 0. -1.
          6    2    1    2  501    0 -0.15245116411E+02 -0.42464345074E+02 -0.13515931063E+03  0.22513712113E+03  0.17430734317E+03 0.  0.
         24    2    3    3    0    0  0.19028142096E+02  0.43913418448E+02 -0.62635283980E+02  0.10716424831E+03  0.72598476597E+02 0.  0.
         -6    2    1    2    0  502  0.15245116411E+02  0.42464345074E+02 -0.20110028900E+03  0.26832309760E+03  0.17181479648E+03 0.  0.
        -24    2    5    5    0    0 -0.38994910667E+02  0.18367562091E+02 -0.17103603383E+03  0.20162538455E+03  0.97680604157E+02 0.  0.
          5    1    3    3  501    0 -0.34273258507E+02 -0.86377763522E+02 -0.72524026653E+02  0.11797287282E+03  0.47000000000E+01 0. -1.
        -11    1    4    4    0    0  0.20257927292E+00 -0.81300863638E+01  0.11847905333E+02  0.14370532468E+02  0.00000000000E+00 0.  1.
         12    1    4    4    0    0  0.18825562823E+02  0.52043504812E+02 -0.74483189313E+02  0.92793715837E+02  0.00000000000E+00 0. -1.
         -5    1    5    5    0  502  0.54240027078E+02  0.24096782983E+02 -0.30064255171E+02  0.66697713053E+02  0.47000000000E+01 0.  1.
         13    1    6    6    0    0  0.29699916934E+02 -0.48348012211E+01 -0.78473824619E+02  0.84045234958E+02  0.00000000000E+00 0. -1.
        -14    1    6    6    0    0 -0.68694827601E+02  0.23202363312E+02 -0.92562209214E+02  0.11758014959E+03  0.00000000000E+00 0.  1.
</event>
<event>
12    1  0.9966151E-001  0.1917138E+03  0.7818608E-02  0.1156996E+00
         21   -1    0    0  501  502  0.00000000000E+00  0.00000000000E+00  0.98364042605E+03  0.98364042605E+03  0.00000000000E+00 0.  1.
         21   -1    0    0  502  503 -0.00000000000E+00 -0.00000000000E+00 -0.65773264206E+02  0.65773264206E+02  0.00000000000E+00 0.  1.
         -6    2    1    2    0  503  0.11605947860E+02 -0.85131043378E+02  0.80392871527E+03  0.82639761761E+03  0.17102529222E+03 0.  0.
        -24    2    3    3    0    0  0.57907022987E+02 -0.68262479753E+02  0.71195973733E+03  0.72195279533E+03  0.79474408806E+02 0.  0.
          6    2    1    2  501    0 -0.11605947860E+02  0.85131043378E+02  0.11393844657E+03  0.22301607265E+03  0.17138321528E+03 0.  0.
         24    2    5    5    0    0 -0.26930884744E+02  0.83194842330E+02  0.13513683585E+02  0.12130164110E+03  0.82974780175E+02 0.  0.
          5    1    5    5  501    0  0.15324936884E+02  0.19362010479E+01  0.10042476299E+03  0.10171443155E+03  0.47000000000E+01 0. -1.
        -11    1    6    6    0    0 -0.48905686973E+02  0.67567414926E+02  0.31200265481E+02  0.89053794664E+02  0.00000000000E+00 0.  1.
         12    1    6    6    0    0  0.21974802229E+02  0.15627427404E+02 -0.17686581896E+02  0.32247846432E+02  0.00000000000E+00 0. -1.
         -5    1    3    3    0  503 -0.46301075128E+02 -0.16868563625E+02  0.91968977942E+02  0.10444482228E+03  0.47000000000E+01 0.  1.
         11    1    4    4    0    0  0.27718516414E+01  0.35808118330E+01  0.28290543366E+00  0.45371147649E+01  0.00000000000E+00 0. -1.
        -12    1    4    4    0    0  0.55135171346E+02 -0.71843291586E+02  0.71167683189E+03  0.71741568056E+03  0.00000000000E+00 0.  1.
</event>
<event>
12    1  0.9966151E-001  0.3744434E+03  0.7818608E-02  0.1053069E+00
         21   -1    0    0  503  502  0.00000000000E+00  0.00000000000E+00  0.90881761749E+03  0.90881761749E+03  0.00000000000E+00 0.  1.
         21   -1    0    0  501  503 -0.00000000000E+00 -0.00000000000E+00 -0.17441333577E+03  0.17441333577E+03  0.00000000000E+00 0.  1.
          6    2    1    2  501    0 -0.97750825229E+02 -0.31705651188E+03  0.55219480309E+03  0.66680786696E+03  0.17214405398E+03 0.  0.
         24    2    3    3    0    0 -0.82016448727E+02 -0.10045323866E+03  0.27959792761E+03  0.31824554097E+03  0.79294843516E+02 0.  0.
         -6    2    1    2    0  502  0.97750825229E+02  0.31705651188E+03  0.18220947864E+03  0.41642308630E+03  0.17357372249E+03 0.  0.
        -24    2    5    5    0    0  0.79245745173E+02  0.33148489563E+03  0.16933209566E+03  0.38924711828E+03  0.81718029253E+02 0.  0.
          5    1    3    3  501    0 -0.15734376502E+02 -0.21660327322E+03  0.27259687548E+03  0.34856232598E+03  0.47000000000E+01 0. -1.
        -11    1    4    4    0    0  0.69143352042E+01 -0.20019747179E+02  0.10053633010E+03  0.10274313592E+03  0.00000000000E+00 0.  1.
         12    1    4    4    0    0 -0.88930783931E+02 -0.80433491478E+02  0.17906159750E+03  0.21550240505E+03  0.00000000000E+00 0. -1.
         -5    1    5    5    0  502  0.18505080056E+02 -0.14428383753E+02  0.12877382982E+02  0.27175968025E+02  0.47000000000E+01 0.  1.
         11    1    6    6    0    0  0.81117630359E+02  0.25819497457E+03  0.10053108197E+03  0.28870610192E+03  0.00000000000E+00 0. -1.
        -12    1    6    6    0    0 -0.18718851862E+01  0.73289921065E+02  0.68801013692E+02  0.10054101635E+03  0.00000000000E+00 0.  1.
</event>
<event>
12    1  0.9966151E-001  0.2047884E+03  0.7818608E-02  0.1146070E+00
         21   -1    0    0  501  502  0.00000000000E+00  0.00000000000E+00  0.29610476673E+03  0.29610476673E+03  0.00000000000E+00 0. -1.
         21   -1    0    0  502  503 -0.00000000000E+00 -0.00000000000E+00 -0.16110165851E+03  0.16110165851E+03  0.00000000000E+00 0. -1.
         -6    2    1    2    0  503 -0.96152675128E+02 -0.52572021168E+02  0.14928083318E+03  0.25342271385E+03  0.17300043468E+03 0.  0.
        -24    2    3    3    0    0 -0.11643358010E+03 -0.66464129392E+01  0.14338145507E+03  0.20265491639E+03  0.83125327659E+02 0.  0.
          6    2    1    2  501    0  0.96152675128E+02  0.52572021168E+02 -0.14277724958E+02  0.20378371139E+03  0.17121563379E+03 0.  0.
         24    2    5    5    0    0  0.12700139978E+03  0.55243777489E+02  0.16203920078E+02  0.16008013284E+03  0.78624750598E+02 0.  0.
          5    1    5    5  501    0 -0.30848724650E+02 -0.26717563213E+01 -0.30481645036E+02  0.43703578554E+02  0.47000000000E+01 0. -1.
        -13    1    6    6    0    0  0.13055044255E+03  0.65056340265E+02  0.67795919893E+01  0.14601954776E+03  0.00000000000E+00 0.  1.
         14    1    6    6    0    0 -0.35490427770E+01 -0.98125627758E+01  0.94243280882E+01  0.14060585079E+02  0.00000000000E+00 0. -1.
         -5    1    3    3    0  503  0.20280904973E+02 -0.45925608229E+02  0.58993781110E+01  0.50767797468E+02  0.47000000000E+01 0.  1.
         13    1    4    4    0    0  0.11004024566E+02  0.45479722396E+01  0.27815024946E+02  0.30256374880E+02  0.00000000000E+00 0. -1.
        -14    1    4    4    0    0 -0.12743760467E+03 -0.11194385179E+02  0.11556643012E+03  0.17239854151E+03  0.00000000000E+00 0.  1.
</event>
<event>
12    1  0.9966151E-001  0.2060617E+03  0.7818608E-02  0.1145976E+00
         21   -1    0    0  503  502  0.00000000000E+00  0.00000000000E+00  0.35877040443E+03  0.35877040443E+03  0.00000000000E+00 0.  1.
         21   -1    0    0  501  503 -0.00000000000E+00 -0.00000000000E+00 -0.16500913850E+03  0.16500913850E+03  0.00000000000E+00 0.  1.
          6    2    1    2  501    0 -0.68829345831E+02  0.74446496709E+02  0.24019686190E+03  0.31255052146E+03  0.17237614766E+03 0.  0.
         24    2    3    3    0    0 -0.54082818164E+02  0.14167624119E+02  0.45303154697E+02  0.10796154409E+03  0.80483826836E+02 0.  0.
         -6    2    1    2    0  502  0.68829345831E+02 -0.74446496709E+02 -0.46435595971E+02  0.21122902147E+03  0.17939251717E+03 0.  0.
        -24    2    5    5    0    0  0.37796356461E+02 -0.10527100043E+03 -0.77347574665E+02  0.15746251809E+03  0.79380408183E+02 0.  0.
          5    1    3    3  501    0 -0.14746527667E+02  0.60278872591E+02  0.19489370720E+03  0.20458897738E+03  0.47000000000E+01 0. -1.
        -11    1    4    4    0    0 -0.12192661537E+02  0.37879062753E+02 -0.28246857957E+01  0.39893147785E+02  0.00000000000E+00 0.  1.
         12    1    4    4    0    0 -0.41890156628E+02 -0.23711438634E+02  0.48127840492E+02  0.68068396300E+02  0.00000000000E+00 0. -1.
         -5    1    5    5    0  502  0.31032989369E+02  0.30824503721E+02  0.30911978694E+02  0.53766503379E+02  0.47000000000E+01 0.  1.
         13    1    6    6    0    0 -0.19241623430E+02 -0.26778463982E+01 -0.15037177601E+02  0.24566799624E+02  0.00000000000E+00 0. -1.
        -14    1    6    6    0    0  0.57037979891E+02 -0.10259315403E+03 -0.62310397064E+02  0.13289571847E+03  0.00000000000E+00 0.  1.
</event>
<event>
12    1  0.9966151E-001  0.2172204E+03  0.7818608E-02  0.1136104E+00
         21   -1    0    0  503  502  0.00000000000E+00  0.00000000000E+00  0.76187273669E+03  0.76187273669E+03  0.00000000000E+00 0.  1.
         21   -1    0    0  501  503 -0.00000000000E+00 -0.00000000000E+00 -0.11097609927E+03  0.11097609927E+03  0.00000000000E+00 0.  1.
          6    2    1    2  501    0  0.56229595462E+02 -0.12035401363E+03  0.61586684370E+03  0.65282208907E+03  0.17099080329E+03 0.  0.
         24    2    3    3    0    0 -0.28193616128E+01 -0.48658707513E+02  0.47039085222E+03  0.48015955594E+03  0.83126570302E+02 0.  0.
         -6    2    1    2    0  502 -0.56229595462E+02  0.12035401363E+03  0.35029793721E+02  0.22002674689E+03  0.17186572345E+03 0.  0.
        -24    2    5    5    0    0  0.71860165369E+00  0.99962610752E+02 -0.31316621574E+02  0.13012211248E+03  0.77188039442E+02 0.  0.
          5    1    3    3  501    0  0.59048957074E+02 -0.71695306116E+02  0.14547599148E+03  0.17266253313E+03  0.47000000000E+01 0. -1.
        -13    1    4    4    0    0 -0.25360551882E+02  0.11387516768E+02  0.83972988197E+02  0.88455050035E+02  0.00000000000E+00 0.  1.
         14    1    4    4    0    0  0.22541190269E+02 -0.60046224282E+02  0.38641786403E+03  0.39170450591E+03  0.00000000000E+00 0. -1.
         -5    1    5    5    0  502 -0.56948197115E+02  0.20391402877E+02  0.66346415295E+02  0.89904634410E+02  0.47000000000E+01 0.  1.
         11    1    6    6    0    0  0.70143801715E+01  0.11012611319E+03 -0.17296412203E+02  0.11169658997E+03  0.00000000000E+00 0. -1.
        -12    1    6    6    0    0 -0.62957785178E+01 -0.10163502440E+02 -0.14020209370E+02  0.18425522510E+02  0.00000000000E+00 0.  1.
</event>
<event>
12    1  0.9966151E-001  0.1878892E+03  0.7818608E-02  0.1160730E+00
         21   -1    0    0  503  502  0.00000000000E+00  0.00000000000E+00  0.28924036237E+03  0.28924036237E+03  0.00000000000E+00 0. -1.
         21   -1    0    0  501  503 -0.00000000000E+00 -0.00000000000E+00 -0.13046404823E+03  0.13046404823E+03  0.00000000000E+00 0. -1.
          6    2    1    2  501    0 -0.75296546157E+02  0.93482127487E+01  0.13602818809E+03  0.23196122376E+03  0.17188770296E+03 0.  0.
         24    2    3    3    0    0 -0.60607584495E+02 -0.58530623375E+02  0.96419993310E+02  0.15187251618E+03  0.81665983674E+02 0.  0.
         -6    2    1    2    0  502  0.75296546157E+02 -0.93482127487E+01  0.22748126047E+02  0.18774318684E+03  0.17021477028E+03 0.  0.
        -24    2    5    5    0    0  0.10913313654E+03 -0.36903590247E+02  0.46012488716E+01  0.14024989438E+03  0.79855775732E+02 0.  0.
          5    1    3    3  501    0 -0.14688961662E+02  0.67878836123E+02  0.39608194780E+02  0.80088707580E+02  0.47000000000E+01 0. -1.
        -11    1    4    4    0    0  0.14556898851E+02  0.79173829780E+01  0.93084302966E+01  0.19006186676E+02  0.00000000000E+00 0.  1.
         12    1    4    4    0    0 -0.75164483346E+02 -0.66448006353E+02  0.87111563013E+02  0.13286632950E+03  0.00000000000E+00 0. -1.
         -5    1    5    5    0  502 -0.33836590383E+02  0.27555377498E+02  0.18146877176E+02  0.47493292464E+02  0.47000000000E+01 0.  1.
         11    1    6    6    0    0  0.54439488614E+00  0.55275348985E+00  0.23779897634E+02  0.23792549962E+02  0.00000000000E+00 0. -1.
        -12    1    6    6    0    0  0.10858874165E+03 -0.37456343737E+02 -0.19178648763E+02  0.11645734442E+03  0.00000000000E+00 0.  1.
</event>
<event>
12    1  0.9966151E-001  0.2576578E+03  0.7818608E-02  0.1109453E+00
         21   -1    0    0  501  502  0.00000000000E+00  0.00000000000E+00  0.23025518495E+03  0.23025518495E+03  0.00000000000E+00 0. -1.
         21   -1    0    0  502  503 -0.00000000000E+00 -0.00000000000E+00 -0.34197583705E+03  0.34197583705E+03  0.00000000000E+00 0.  1.
         -6    2    1    2    0  503  0.18648987766E+03  0.43755987092E+02 -0.17634996367E+03  0.31222883279E+03  0.17232084453E+03 0.  0.
        -24    2    3    3    0    0  0.16953879716E+03  0.72880143105E+02 -0.18895150601E+03  0.27594599300E+03  0.79928720925E+02 0.  0.
          6    2    1    2  501    0 -0.18648987766E+03 -0.43755987092E+02  0.64629311565E+02  0.26000218921E+03  0.16349657368E+03 0.  0.
         24    2    5    5    0    0 -0.82684989116E+02  0.91164787210E+01 -0.34012585463E+01  0.12501626033E+03  0.93260812657E+02 0.  0.
          5    1    5    5  501    0 -0.10380488854E+03 -0.52872465813E+02  0.68030570111E+02  0.13498592888E+03  0.47000000000E+01 0. -1.
        -13    1    6    6    0    0 -0.22302026031E+02 -0.21623664532E+02  0.35270606961E+02  0.46999776045E+02  0.00000000000E+00 0.  1.
         14    1    6    6    0    0 -0.60382963085E+02  0.30740143253E+02 -0.38671865507E+02  0.78016484283E+02  0.00000000000E+00 0. -1.
         -5    1    3    3    0  503  0.16951080502E+02 -0.29124156012E+02  0.12601542340E+02  0.36282839787E+02  0.47000000000E+01 0.  1.
         13    1    4    4    0    0  0.13263799640E+03  0.45130548890E+02 -0.18132959951E+03  0.22915066701E+03  0.00000000000E+00 0. -1.
        -14    1    4    4    0    0  0.36900800762E+02  0.27749594214E+02 -0.76219064962E+01  0.46795325991E+02  0.00000000000E+00 0.  1.
</event>
<event>
12    1  0.9966151E-001  0.2292492E+03  0.7818608E-02  0.1127209E+00
         21   -1    0    0  501  502  0.00000000000E+00  0.00000000000E+00  0.81078044894E+03  0.81078044894E+03  0.00000000000E+00 0. -1.
         21   -1    0    0  502  503 -0.00000000000E+00 -0.00000000000E+00 -0.66921441298E+02  0.66921441298E+02  0.00000000000E+00 0. -1.
         -6    2    1    2    0  503  0.41232703092E+02  0.14602444001E+03  0.29282069838E+03  0.37174661457E+03  0.17154681915E+03 0.  0.
        -24    2    3    3    0    0 -0.68460699306E+01  0.64025493516E+02  0.24339403579E+03  0.26450632076E+03  0.81097500397E+02 0.  0.
          6    2    1    2  501    0 -0.41232703092E+02 -0.14602444001E+03  0.45103830926E+03  0.50595527567E+03  0.17184851372E+03 0.  0.
         24    2    5    5    0    0  0.45107625075E+01 -0.15869490573E+03  0.33695893321E+03  0.38230577350E+03  0.86092750530E+02 0.  0.
          5    1    5    5  501    0 -0.45743465600E+02  0.12670465726E+02  0.11407937605E+03  0.12364950217E+03  0.47000000000E+01 0. -1.
        -11    1    6    6    0    0 -0.24845526983E+02 -0.21051666789E+02  0.28573412144E+02  0.43323351292E+02  0.00000000000E+00 0.  1.
         12    1    6    6    0    0  0.29356289490E+02 -0.13764323894E+03  0.30838552107E+03  0.33898242220E+03  0.00000000000E+00 0. -1.
         -5    1    3    3    0  503  0.48078773023E+02  0.81998946491E+02  0.49426662582E+02  0.10724029380E+03  0.47000000000E+01 0.  1.
         13    1    4    4    0    0 -0.15153882184E+02 -0.15164775019E+02  0.31119601876E+02  0.37789418725E+02  0.00000000000E+00 0. -1.
        -14    1    4    4    0    0  0.83078122532E+01  0.79190268535E+02  0.21227443392E+03  0.22671690204E+03  0.00000000000E+00 0.  1.
</event>
<event>
12    1  0.9966151E-001  0.2034769E+03  0.7818608E-02  0.1146886E+00
         21   -1    0    0  503  502  0.00000000000E+00  0.00000000000E+00  0.85788391255E+02  0.85788391255E+02  0.00000000000E+00 0. -1.
         21   -1    0    0  501  503 -0.00000000000E+00 -0.00000000000E+00 -0.51025984093E+03  0.51025984093E+03  0.00000000000E+00 0. -1.
          6    2    1    2  501    0 -0.10188094761E+03  0.36378203597E+02 -0.14206720634E+03  0.24797495218E+03  0.17206215333E+03 0.  0.
         24    2    3    3    0    0 -0.31708106913E+02  0.62535393682E+02 -0.13491718305E+03  0.17259830461E+03  0.81678938330E+02 0.  0.
         -6    2    1    2    0  502  0.10188094761E+03 -0.36378203597E+02 -0.28240424334E+03  0.34807328001E+03  0.17233615528E+03 0.  0.
        -24    2    5    5    0    0  0.33317600187E+02 -0.73286414678E+02 -0.10534275720E+03  0.15458940851E+03  0.79497343794E+02 0.  0.
          5    1    3    3  501    0 -0.70172840700E+02 -0.26157190084E+02 -0.71500232857E+01  0.75376647564E+02  0.47000000000E+01 0. -1.
        -13    1    4    4    0    0 -0.32248794747E+02 -0.34232339114E+01 -0.14986401333E+02  0.35725278416E+02  0.00000000000E+00 0.  1.
         14    1    4    4    0    0  0.54068783328E+00  0.65958627593E+02 -0.11993078172E+03  0.13687302620E+03  0.00000000000E+00 0. -1.
         -5    1    5    5    0  502  0.68563347427E+02  0.36908211080E+02 -0.17706148614E+03  0.19348387150E+03  0.47000000000E+01 0.  1.
         13    1    6    6    0    0  0.42975552879E+02 -0.81496892148E+02 -0.10766166781E+03  0.14170277447E+03  0.00000000000E+00 0. -1.
        -14    1    6    6    0    0 -0.96579526922E+01  0.82104774704E+01  0.23189106152E+01  0.12886634042E+02  0.00000000000E+00 0.  1.
</event>
<event>
12    1  0.9966151E-001  0.5443904E+03  0.7818608E-02  0.1002814E+00
         21   -1    0    0  501  502  0.00000000000E+00  0.00000000000E+00  0.53566374288E+03  0.53566374288E+03  0.00000000000E+00 0. -1.
         21   -1    0    0  502  503 -0.00000000000E+00 -0.00000000000E+00 -0.57388728214E+03  0.57388728214E+03  0.00000000000E+00 0.  1.
         -6    2    1    2    0  503 -0.22212655180E+03  0.46626583824E+03 -0.12486737378E+03  0.55830872526E+03  0.17138475645E+03 0.  0.
        -24    2    3    3    0    0 -0.10283848531E+03  0.11365494267E+03 -0.33519991819E+02  0.17499355381E+03  0.77498090078E+02 0.  0.
          6    2    1    2  501    0  0.22212655180E+03 -0.46626583824E+03  0.86643834519E+02  0.55124229976E+03  0.17209556083E+03 0.  0.
         24    2    5    5    0    0  0.14710090575E+03 -0.22266624389E+03 -0.98003289562E+01  0.27867455295E+03  0.79652541527E+02 0.  0.
          5    1    5    5  501    0  0.75025646047E+02 -0.24359959435E+03  0.96444163475E+02  0.27256774681E+03  0.47000000000E+01 0. -1.
        -11    1    6    6    0    0  0.62323833829E+02 -0.16389701069E+03 -0.59726991739E+01  0.17544846397E+03  0.00000000000E+00 0.  1.
         12    1    6    6    0    0  0.84777071926E+02 -0.58769233207E+02 -0.38276297823E+01  0.10322608898E+03  0.00000000000E+00 0. -1.
         -5    1    3    3    0  503 -0.11928806649E+03  0.35261089557E+03 -0.91347381964E+02  0.38331517146E+03  0.47000000000E+01 0.  1.
         13    1    4    4    0    0 -0.51819307098E+02  0.45378270904E+02  0.23120727760E+02  0.72656700383E+02  0.00000000000E+00 0. -1.
        -14    1    4    4    0    0 -0.51019178217E+02  0.68276671771E+02 -0.56640719579E+02  0.10233685342E+03  0.00000000000E+00 0.  1.
</event>
<event>
12    1  0.9966151E-001  0.2337073E+03  0.7818608E-02  0.1124203E+00
         21   -1    0    0  501  502  0.00000000000E+00  0.00000000000E+00  0.10719913714E+03  0.10719913714E+03  0.00000000000E+00 0.  1.
         21   -1    0    0  502  503 -0.00000000000E+00 -0.00000000000E+00 -0.58696856722E+03  0.58696856722E+03  0.00000000000E+00 0.  1.
         -6    2    1    2    0  503 -0.17926269984E+02 -0.15632466870E+03 -0.36782756812E+03  0.43579375954E+03  0.17280141140E+03 0.  0.
        -24    2    3    3    0    0 -0.34675679951E+02 -0.18373237821E+03 -0.27553970091E+03  0.33796295810E+03  0.57765428143E+02 0.  0.
          6    2    1    2  501    0  0.17926269984E+02  0.15632466870E+03 -0.11194186196E+03  0.25837394482E+03  0.17166060033E+03 0.  0.
         24    2    5    5    0    0  0.37820416499E+02  0.69438009939E+02 -0.12495019498E+03  0.16817208639E+03  0.80107916513E+02 0.  0.
          5    1    5    5  501    0 -0.19894146514E+02  0.86886658759E+02  0.13008333020E+02  0.90201858427E+02  0.47000000000E+01 0. -1.
        -11    1    6    6    0    0 -0.15424864932E+02  0.13147043747E+02  0.10048480503E+01  0.20292386185E+02  0.00000000000E+00 0.  1.
         12    1    6    6    0    0  0.53245281430E+02  0.56290966191E+02 -0.12595504303E+03  0.14787970021E+03  0.00000000000E+00 0. -1.
         -5    1    3    3    0  503  0.16749409967E+02  0.27407709509E+02 -0.92287867216E+02  0.97830801438E+02  0.47000000000E+01 0.  1.
         11    1    4    4    0    0 -0.61533901446E+01 -0.89075136161E+02 -0.17771038944E+03  0.19887993012E+03  0.00000000000E+00 0. -1.
        -12    1    4    4    0    0 -0.28522289806E+02 -0.94657242046E+02 -0.97829311470E+02  0.13908302797E+03  0.00000000000E+00 0.  1.
</event>
<event>
12    1  0.9966151E-001  0.1854103E+03  0.7818608E-02  0.1162769E+00
         21   -1    0    0  501  502  0.00000000000E+00  0.00000000000E+00  0.46324854133E+02  0.46324854133E+02  0.00000000000E+00 0.  1.
         21   -1    0    0  502  503 -0.00000000000E+00 -0.00000000000E+00 -0.74251242341E+03  0.74251242341E+03  0.00000000000E+00 0.  1.
         -6    2    1    2    0  503  0.69012474126E+02  0.68901724970E+01 -0.32718025258E+03  0.37606370489E+03  0.17194998225E+03 0.  0.
        -24    2    3    3    0    0  0.14105507806E+02 -0.58766972652E+02 -0.17795457677E+03  0.20397062548E+03  0.79269554307E+02 0.  0.
          6    2    1    2  501    0 -0.69012474126E+02 -0.68901724970E+01 -0.36900731669E+03  0.41277357265E+03  0.17148010510E+03 0.  0.
         24    2    5    5    0    0 -0.76416902834E+02  0.51651712141E+02 -0.20960953833E+03  0.24273910683E+03  0.80490204486E+02 0.  0.
          5    1    5    5  501    0  0.74044287076E+01 -0.58541884638E+02 -0.15939777836E+03  0.17003446583E+03  0.47000000000E+01 0. -1.
        -11    1    6    6    0    0  0.11488303011E+02  0.99317680939E+01 -0.75714566464E+02  0.77222514194E+02  0.00000000000E+00 0.  1.
         12    1    6    6    0    0 -0.87905205844E+02  0.41719944047E+02 -0.13389497187E+03  0.16551659263E+03  0.00000000000E+00 0. -1.
         -5    1    3    3    0  503  0.54906966320E+02  0.65657145149E+02 -0.14922567582E+03  0.17209307941E+03  0.47000000000E+01 0.  1.
         13    1    4    4    0    0  0.11427433436E+02  0.74341663753E+01  0.47085016162E+00  0.13640922421E+02  0.00000000000E+00 0. -1.
        -14    1    4    4    0    0  0.26780743704E+01 -0.66201139027E+02 -0.17842542693E+03  0.19032970306E+03  0.00000000000E+00 0.  1.
</event>
<event>
12    1  0.9966151E-001  0.1837522E+03  0.7818608E-02  0.1164283E+00
         21   -1    0    0  501  502  0.00000000000E+00  0.00000000000E+00  0.57280123288E+02  0.57280123288E+02  0.00000000000E+00 0. -1.
         21   -1    0    0  502  503 -0.00000000000E+00 -0.00000000000E+00 -0.65612224649E+03  0.65612224649E+03  0.00000000000E+00 0. -1.
         -6    2    1    2    0  503  0.83452526948E+01  0.63733890122E+02 -0.41402558062E+03  0.45297026514E+03  0.17214304431E+03 0.  0.
        -24    2    3    3    0    0 -0.24305307775E+02 -0.17442111961E+02 -0.12959589718E+03  0.15534980679E+03  0.80271356326E+02 0.  0.
          6    2    1    2  501    0 -0.83452526948E+01 -0.63733890122E+02 -0.18481654258E+03  0.26043210464E+03  0.17186062586E+03 0.  0.
         24    2    5    5    0    0  0.38918138728E+02 -0.54237155214E+02 -0.16615958154E+03  0.20852653328E+03  0.10685512629E+03 0.  0.
          5    1    5    5  501    0 -0.47263391423E+02 -0.94967349087E+01 -0.18656961040E+02  0.51905571358E+02  0.47000000000E+01 0. -1.
        -11    1    6    6    0    0 -0.25358694600E+02 -0.19865243325E+02 -0.62859916623E+01  0.32820800955E+02  0.00000000000E+00 0.  1.
         12    1    6    6    0    0  0.64276833328E+02 -0.34371911889E+02 -0.15987358988E+03  0.17570573232E+03  0.00000000000E+00 0. -1.
         -5    1    3    3    0  503  0.32650560470E+02  0.81176002083E+02 -0.28442968343E+03  0.29762045836E+03  0.47000000000E+01 0.  1.
         11    1    4    4    0    0  0.12517672838E+02  0.21793600632E+02 -0.16385149660E+02  0.30002104779E+02  0.00000000000E+00 0. -1.
        -12    1    4    4    0    0 -0.36822980613E+02 -0.39235712593E+02 -0.11321074752E+03  0.12534770201E+03  0.00000000000E+00 0.  1.
</event>
<event>
12    1  0.9966151E-001  0.2442034E+03  0.7818608E-02  0.1117119E+00
         21   -1    0    0  501  502  0.00000000000E+00  0.00000000000E+00  0.10469691648E+03  0.10469691648E+03  0.00000000000E+00 0.  1.
         21   -1    0    0  502  503 -0.00000000000E+00 -0.00000000000E+00 -0.67163921455E+03  0.67163921455E+03  0.00000000000E+00 0.  1.
         -6    2    1    2    0  503  0.11990401002E+03 -0.12426714702E+03 -0.43605605679E+03  0.49978013590E+03  0.17267311352E+03 0.  0.
        -24    2    3    3    0    0  0.11432045835E+03 -0.49461385407E+02 -0.17857401656E+03  0.23155230539E+03  0.78817478371E+02 0.  0.
          6    2    1    2  501    0 -0.11990401002E+03  0.12426714702E+03 -0.13088624128E+03  0.27655599513E+03  0.17185085056E+03 0.  0.
         24    2    5    5    0    0 -0.73356095521E+02  0.90907147749E+02 -0.15882971827E+03  0.21266134902E+03  0.79704100880E+02 0.  0.
          5    1    5    5  501    0 -0.46547914499E+02  0.33359999268E+02  0.27943476990E+02  0.63894646111E+02  0.47000000000E+01 0. -1.
        -13    1    6    6    0    0 -0.59233363908E+02  0.34086481268E+02 -0.13117361463E+03  0.14790874477E+03  0.00000000000E+00 0.  1.
         14    1    6    6    0    0 -0.14122731613E+02  0.56820666481E+02 -0.27656103640E+02  0.64752604242E+02  0.00000000000E+00 0. -1.
         -5    1    3    3    0  503  0.55835516670E+01 -0.74805761611E+02 -0.25748204023E+03  0.26822783051E+03  0.47000000000E+01 0.  1.
         11    1    4    4    0    0  0.59944793818E+02  0.11128393675E+02 -0.47649820756E+02  0.77380390732E+02  0.00000000000E+00 0. -1.
        -12    1    4    4    0    0  0.54375664535E+02 -0.60589779082E+02 -0.13092419580E+03  0.15417191466E+03  0.00000000000E+00 0.  1.
</event>
<event>
12    1  0.9966151E-001  0.1972003E+03  0.7818608E-02  0.1152224E+00
         21   -1    0    0  501  502  0.00000000000E+00  0.00000000000E+00  0.94469564444E+02  0.94469564444E+02  0.00000000000E+00 0.  1.
         21   -1    0    0  502  503 -0.00000000000E+00 -0.00000000000E+00 -0.51129805377E+03  0.51129805377E+03  0.00000000000E+00 0.  1.
         -6    2    1    2    0  503 -0.80549951432E+02  0.53825474439E+02 -0.74243636754E+02  0.21071322452E+03  0.17176282780E+03 0.  0.
        -24    2    3    3    0    0 -0.12501606446E+02  0.86858684096E+02 -0.27310340425E+02  0.12156955116E+03  0.79577508806E+02 0.  0.
          6    2    1    2  501    0  0.80549951432E+02 -0.53825474439E+02 -0.34258485257E+03  0.39505439370E+03  0.17122533806E+03 0.  0.
         24    2    5    5    0    0  0.55091113569E+02 -0.98850411009E+02 -0.28352271092E+03  0.31640438470E+03  0.83187574195E+02 0.  0.
          5    1    5    5  501    0  0.25458837863E+02  0.45024936571E+02 -0.59062141656E+02  0.78650008999E+02  0.47000000000E+01 0. -1.
        -13    1    6    6    0    0 -0.13162654920E+02  0.28997916286E+01 -0.10285681708E+02  0.16954631351E+02  0.00000000000E+00 0.  1.
         14    1    6    6    0    0  0.68253768490E+02 -0.10175020264E+03 -0.27323702921E+03  0.29944975335E+03  0.00000000000E+00 0. -1.
         -5    1    3    3    0  503 -0.68048344987E+02 -0.33033209657E+02 -0.46933296328E+02  0.89143673359E+02  0.47000000000E+01 0.  1.
         13    1    4    4    0    0 -0.42912504650E+02  0.66632036502E+02 -0.64688095119E+01  0.79518279913E+02  0.00000000000E+00 0. -1.
        -14    1    4    4    0    0  0.30410898204E+02  0.20226647594E+02 -0.20841530914E+02  0.42051271244E+02  0.00000000000E+00 0.  1.
</event>
<event>
12    1  0.9966151E-001  0.3158346E+03  0.7818608E-02  0.1077724E+00
         21   -1    0    0  501  502  0.00000000000E+00  0.00000000000E+00  0.23970202633E+03  0.23970202633E+03  0.00000000000E+00 0. -1.
         21   -1    0    0  502  503 -0.00000000000E+00 -0.00000000000E+00 -0.68590110024E+03  0.68590110024E+03  0.00000000000E+00 0.  1.
         -6    2    1    2    0  503  0.16051085309E+03 -0.20901968204E+03  0.67727098943E+02  0.32301464181E+03  0.17406475073E+03 0.  0.
        -24    2    3    3    0    0  0.62398549626E+01 -0.79362763298E+02  0.80289777975E+01  0.11278521211E+03  0.79489971680E+02 0.  0.
          6    2    1    2  501    0 -0.16051085309E+03  0.20901968204E+03 -0.51392617285E+03  0.60258848476E+03  0.17187149089E+03 0.  0.
         24    2    5    5    0    0 -0.81961711111E+02  0.10180959168E+03 -0.39689349243E+03  0.42543682807E+03  0.79932066782E+02 0.  0.
          5    1    5    5  501    0 -0.78549141981E+02  0.10721009036E+03 -0.11703268042E+03  0.17715165669E+03  0.47000000000E+01 0. -1.
        -11    1    6    6    0    0 -0.62731327668E+02  0.43628150680E+02 -0.12323515741E+03  0.14500185869E+03  0.00000000000E+00 0.  1.
         12    1    6    6    0    0 -0.19230383442E+02  0.58181441005E+02 -0.27365833502E+03  0.28043496937E+03  0.00000000000E+00 0. -1.
         -5    1    3    3    0  503  0.15427099813E+03 -0.12965691875E+03  0.59698121146E+02  0.21022942970E+03  0.47000000000E+01 0.  1.
         11    1    4    4    0    0  0.56231398223E+01  0.15242593918E+02  0.81532021491E+01  0.18177763231E+02  0.00000000000E+00 0. -1.
        -12    1    4    4    0    0  0.61671514035E+00 -0.94605357216E+02 -0.12422435163E+00  0.94607448878E+02  0.00000000000E+00 0.  1.
</event>
<event>
12    1  0.9966151E-001  0.2271462E+03  0.7818608E-02  0.1129573E+00
         21   -1    0    0  501  502  0.00000000000E+00  0.00000000000E+00  0.19639065137E+04  0.19639065137E+04  0.00000000000E+00 0. -1.
         21   -1    0    0  502  503 -0.00000000000E+00 -0.00000000000E+00 -0.45411554512E+02  0.45411554512E+02  0.00000000000E+00 0. -1.
         -6    2    1    2    0  503 -0.11852439119E+03 -0.76582491972E+02  0.16151574640E+04  0.16303602621E+04  0.17154603254E+03 0.  0.
        -24    2    3    3    0    0 -0.13617116981E+02 -0.84913213334E+02  0.89654735151E+03  0.90407001647E+03  0.78420415108E+02 0.  0.
          6    2    1    2  501    0  0.11852439119E+03  0.76582491972E+02  0.30333749515E+03  0.37895780609E+03  0.17799571188E+03 0.  0.
         24    2    5    5    0    0 -0.96945877907E+01  0.24805951094E+02  0.13660076106E+03  0.16229182986E+03  0.83483830039E+02 0.  0.
          5    1    5    5  501    0  0.12821897898E+03  0.51776540878E+02  0.16673673409E+03  0.21666597622E+03  0.47000000000E+01 0. -1.
        -11    1    6    6    0    0  0.34106287055E+02  0.45604660240E+00  0.34285049915E+02  0.48362293607E+02  0.00000000000E+00 0.  1.
         12    1    6    6    0    0 -0.43800874846E+02  0.24349904492E+02  0.10231571114E+03  0.11392953626E+03  0.00000000000E+00 0. -1.
         -5    1    3    3    0  503 -0.10490727421E+03  0.83307213624E+01  0.71861011252E+03  0.72629024564E+03  0.47000000000E+01 0.  1.
         13    1    4    4    0    0 -0.22172048575E+02 -0.22130697235E+02  0.60056225163E+03  0.60137873723E+03  0.00000000000E+00 0. -1.
        -14    1    4    4    0    0  0.85549315939E+01 -0.62782516099E+02  0.29598509988E+03  0.30269127925E+03  0.00000000000E+00 0.  1.
</event>
<event>
12    1  0.9966151E-001  0.2764351E+03  0.7818608E-02  0.1097745E+00
         21   -1    0    0  501  502  0.00000000000E+00  0.00000000000E+00  0.11893615967E+03  0.11893615967E+03  0.00000000000E+00 0. -1.
         21   -1    0    0  502  503 -0.00000000000E+00 -0.00000000000E+00 -0.15072496223E+04  0.15072496223E+04  0.00000000000E+00 0. -1.
         -6    2    1    2    0  503  0.89544141262E+02 -0.19664067765E+03 -0.13102265393E+04  0.13389334179E+04  0.17135753234E+03 0.  0.
        -24    2    3    3    0    0  0.54091463617E+02 -0.17237718760E+03 -0.70673721314E+03  0.73389865352E+03  0.80560312525E+02 0.  0.
          6    2    1    2  501    0 -0.89544141262E+02  0.19664067765E+03 -0.78086923259E+02  0.28725236401E+03  0.17242576288E+03 0.  0.
         24    2    5    5    0    0 -0.37226822788E+02  0.19234225983E+03 -0.93246091633E+02  0.23241197202E+03  0.83301319821E+02 0.  0.
          5    1    5    5  501    0 -0.52317318474E+02  0.42984178291E+01  0.15159168374E+02  0.54840391993E+02  0.47000000000E+01 0. -1.
        -13    1    6    6    0    0 -0.55673810487E+02  0.15471933920E+03 -0.49235562654E+02  0.17164436410E+03  0.00000000000E+00 0.  1.
         14    1    6    6    0    0  0.18446987699E+02  0.37622920622E+02 -0.44010528979E+02  0.60767607920E+02  0.00000000000E+00 0. -1.
         -5    1    3    3    0  503  0.35452677645E+02 -0.24263490055E+02 -0.60348932618E+03  0.60503476439E+03  0.47000000000E+01 0.  1.
         13    1    4    4    0    0 -0.13806230416E+01 -0.34199179523E+02 -0.27680183604E+03  0.27890992530E+03  0.00000000000E+00 0. -1.
        -14    1    4    4    0    0  0.55472086658E+02 -0.13817800808E+03 -0.42993537711E+03  0.45498872821E+03  0.00000000000E+00 0.  1.
</event>
<event>
12    1  0.9966151E-001  0.1819368E+03  0.7818608E-02  0.1165981E+00
         21   -1    0    0  501  502  0.00000000000E+00  0.00000000000E+00  0.24211156044E+02  0.24211156044E+02  0.00000000000E+00 0.  1.
         21   -1    0    0  502  503 -0.00000000000E+00 -0.00000000000E+00 -0.14625672257E+04  0.14625672257E+04  0.00000000000E+00 0.  1.
         -6    2    1    2    0  503  0.13007107413E+02 -0.59462874016E+02 -0.90994088960E+03  0.92791919351E+03  0.17127927162E+03 0.  0.
        -24    2    3    3    0    0  0.38796191113E+02  0.14566661981E+02 -0.65570126587E+03  0.66182649291E+03  0.79704608198E+02 0.  0.
          6    2    1    2  501    0 -0.13007107413E+02  0.59462874016E+02 -0.52841518004E+03  0.55885918821E+03  0.17145253433E+03 0.  0.
         24    2    5    5    0    0 -0.29591895978E+02  0.74645230755E+02 -0.52250067444E+03  0.53513935381E+03  0.83184027419E+02 0.  0.
          5    1    5    5  501    0  0.16584788565E+02 -0.15182356739E+02 -0.59145055932E+01  0.23719834407E+02  0.47000000000E+01 0. -1.
        -13    1    6    6    0    0 -0.54621344225E+02  0.63021992278E+02 -0.31670595673E+03  0.32750255844E+03  0.00000000000E+00 0.  1.
         14    1    6    6    0    0  0.25029448247E+02  0.11623238477E+02 -0.20579471771E+03  0.20763679536E+03  0.00000000000E+00 0. -1.
         -5    1    3    3    0  503 -0.25789083700E+02 -0.74029535998E+02 -0.25423962373E+03  0.26609270060E+03  0.47000000000E+01 0.  1.
         11    1    4    4    0    0  0.50245145873E+02 -0.16150437223E+02 -0.49569551761E+03  0.49849719908E+03  0.00000000000E+00 0. -1.
        -12    1    4    4    0    0 -0.11448954760E+02  0.30717099204E+02 -0.16000574825E+03  0.16332929383E+03  0.00000000000E+00 0.  1.
</event>
<event>
12    1  0.9966151E-001  0.1907927E+03  0.7818608E-02  0.1158777E+00
         21   -1    0    0  503  502  0.00000000000E+00  0.00000000000E+00  0.80988536577E+03  0.80988536577E+03  0.00000000000E+00 0. -1.
         21   -1    0    0  501  503 -0.00000000000E+00 -0.00000000000E+00 -0.60890572387E+02  0.60890572387E+02  0.00000000000E+00 0.  1.
          6    2    1    2  501    0  0.81460407249E+02 -0.12250799701E+02  0.14118608133E+03  0.23372548471E+03  0.16705751285E+03 0.  0.
         24    2    3    3    0    0  0.32599699871E+01  0.20224832642E+02  0.11979041102E+03  0.14626212214E+03  0.81383011379E+02 0.  0.
         -6    2    1    2    0  502 -0.81460407249E+02  0.12250799701E+02  0.60780871205E+03  0.63705045344E+03  0.17209291022E+03 0.  0.
        -24    2    5    5    0    0 -0.63901946948E+02  0.19093621767E+02  0.16914510496E+03  0.19795709899E+03  0.78287427425E+02 0.  0.
          5    1    3    3  501    0  0.78200437262E+02 -0.32475632343E+02  0.21395670312E+02  0.87463362571E+02  0.47000000000E+01 0. -1.
        -13    1    4    4    0    0  0.57775126425E+01 -0.11109046513E+02 -0.78693325929E+01  0.14789082535E+02  0.00000000000E+00 0.  1.
         14    1    4    4    0    0 -0.25175426553E+01  0.31333879155E+02  0.12765974361E+03  0.13147303961E+03  0.00000000000E+00 0. -1.
         -5    1    5    5    0  502 -0.17558460301E+02 -0.68428220666E+01  0.43866360708E+03  0.43909335445E+03  0.47000000000E+01 0.  1.
         13    1    6    6    0    0 -0.38939086781E+02  0.24916685935E+02  0.16577904743E+03  0.17210399846E+03  0.00000000000E+00 0. -1.
        -14    1    6    6    0    0 -0.24962860167E+02 -0.58230641680E+01  0.33660575307E+01  0.25853100536E+02  0.00000000000E+00 0.  1.
</event>
<event>
12    1  0.9966151E-001  0.6025229E+03  0.7818608E-02  0.9902365E-01
         21   -1    0    0  501  502  0.00000000000E+00  0.00000000000E+00  0.36332154708E+03  0.36332154708E+03  0.00000000000E+00 0. -1.
         21   -1    0    0  502  503 -0.00000000000E+00 -0.00000000000E+00 -0.10502328127E+04  0.10502328127E+04  0.00000000000E+00 0.  1.
         -6    2    1    2    0  503 -0.35271658199E+03  0.45706599069E+03 -0.17623736991E+03  0.62373052594E+03  0.15704092261E+03 0.  0.
        -24    2    3    3    0    0 -0.32136328321E+03  0.45451649423E+03 -0.18248107370E+03  0.59131751754E+03  0.80606829534E+02 0.  0.
          6    2    1    2  501    0  0.35271658199E+03 -0.45706599069E+03 -0.51067389571E+03  0.78982383385E+03  0.17238199937E+03 0.  0.
         24    2    5    5    0    0  0.10571973504E+03 -0.20683939810E+03 -0.15914075038E+03  0.29261318201E+03  0.79608396976E+02 0.  0.
          5    1    5    5  501    0  0.24699684695E+03 -0.25022659259E+03 -0.35153314533E+03  0.49721065185E+03  0.47000000000E+01 0. -1.
        -11    1    6    6    0    0  0.45516600393E+01 -0.34642128226E+02 -0.60500585428E+02  0.69864980458E+02  0.00000000000E+00 0.  1.
         12    1    6    6    0    0  0.10116807500E+03 -0.17219726988E+03 -0.98640164948E+02  0.22274820155E+03  0.00000000000E+00 0. -1.
         -5    1    3    3    0  503 -0.31353298772E+02  0.25494964607E+01  0.62437037884E+01  0.32413008393E+02  0.47000000000E+01 0.  1.
         13    1    4    4    0    0 -0.18533206336E+03  0.32413075240E+03 -0.10774668657E+03  0.38861043067E+03  0.00000000000E+00 0. -1.
        -14    1    4    4    0    0 -0.13603121985E+03  0.13038574183E+03 -0.74734387131E+02  0.20270708687E+03  0.00000000000E+00 0.  1.
</event>
<event>
12    1  0.9966151E-001  0.2089863E+03  0.7818608E-02  0.1142700E+00
         21   -1    0    0  503  502  0.00000000000E+00  0.00000000000E+00  0.46276081583E+03  0.46276081583E+03  0.00000000000E+00 0. -1.
         21   -1    0    0  501  503 -0.00000000000E+00 -0.00000000000E+00 -0.93901031605E+02  0.93901031605E+02  0.00000000000E+00 0. -1.
          6    2    1    2  501    0 -0.68270808949E+02  0.96664801243E+02  0.19988191116E+03  0.28918515876E+03  0.17225066178E+03 0.  0.
         24    2    3    3    0    0 -0.10282248775E+03  0.43843670937E+02  0.10223962826E+03  0.17282367147E+03  0.83188631219E+02 0.  0.
         -6    2    1    2    0  502  0.68270808949E+02 -0.96664801243E+02  0.16897787306E+03  0.26747668868E+03  0.17025061012E+03 0.  0.
        -24    2    5    5    0    0  0.36604669424E+02 -0.52871548637E+02  0.18423144241E+03  0.21112640257E+03  0.80609124874E+02 0.  0.
          5    1    3    3  501    0  0.34551678799E+02  0.52821130306E+02  0.97642282901E+02  0.11636148729E+03  0.47000000000E+01 0. -1.
        -11    1    4    4    0    0 -0.44388231201E+02  0.37800113216E+02  0.41016512054E+01  0.58446447034E+02  0.00000000000E+00 0.  1.
         12    1    4    4    0    0 -0.58434256548E+02  0.60435577209E+01  0.98137977056E+02  0.11437722443E+03  0.00000000000E+00 0. -1.
         -5    1    5    5    0  502  0.31666139525E+02 -0.43793252606E+02 -0.15253569345E+02  0.56350286103E+02  0.47000000000E+01 0.  1.
         11    1    6    6    0    0  0.56072166469E+02 -0.25882826327E+02  0.76189028068E+02  0.98075361581E+02  0.00000000000E+00 0. -1.
        -12    1    6    6    0    0 -0.19467497045E+02 -0.26988722310E+02  0.10804241434E+03  0.11305104099E+03  0.00000000000E+00 0.  1.
</event>
<event>
12    1  0.9966151E-001  0.1987346E+03  0.7818608E-02  0.1151020E+00
         21   -1    0    0  501  502  0.00000000000E+00  0.00000000000E+00  0.50234087484E+02  0.50234087484E+02  0.00000000000E+00 0. -1.
         21   -1    0    0  502  503 -0.00000000000E+00 -0.00000000000E+00 -0.10392721819E+04  0.10392721819E+04  0.00000000000E+00 0. -1.
         -6    2    1    2    0  503 -0.98461752078E+02  0.16336548772E+02 -0.22458607670E+03  0.29989053675E+03  0.17185409142E+03 0.  0.
        -24    2    3    3    0    0  0.81586673234E+01  0.11954583425E+02 -0.48200192844E+02  0.93683879544E+02  0.79018572367E+02 0.  0.
          6    2    1    2  501    0  0.98461752078E+02 -0.16336548772E+02 -0.76445201775E+03  0.78961573266E+03  0.17071765691E+03 0.  0.
         24    2    5    5    0    0  0.30621950450E+02  0.47332494304E+02 -0.27894214097E+03  0.29524955645E+03  0.78648036910E+02 0.  0.
          5    1    5    5  501    0  0.67839801628E+02 -0.63669043076E+02 -0.48550987678E+03  0.49436617621E+03  0.47000000000E+01 0. -1.
        -11    1    6    6    0    0  0.15718876703E+02  0.65705880211E+02 -0.24302648310E+03  0.25224237802E+03  0.00000000000E+00 0.  1.
         12    1    6    6    0    0  0.14903073746E+02 -0.18373385907E+02 -0.35915657867E+02  0.43007178434E+02  0.00000000000E+00 0. -1.
         -5    1    3    3    0  503 -0.10662041940E+03  0.43819653469E+01 -0.17638588386E+03  0.20620665721E+03  0.47000000000E+01 0.  1.
         11    1    4    4    0    0  0.11542752592E+02 -0.25842071679E+02 -0.48014652358E+02  0.55735577930E+02  0.00000000000E+00 0. -1.
        -12    1    4    4    0    0 -0.33840852685E+01  0.37796655104E+02 -0.18554048531E+00  0.37948301614E+02  0.00000000000E+00 0.  1.
</event>
<event>
12    1  0.9966151E-001  0.2982808E+03  0.7818608E-02  0.1086129E+00
         21   -1    0    0  503  502  0.00000000000E+00  0.00000000000E+00  0.13889986884E+04  0.13889986884E+04  0.00000000000E+00 0.  1.
         21   -1    0    0  501  503 -0.00000000000E+00 -0.00000000000E+00 -0.64018785985E+02  0.64018785985E+02  0.00000000000E+00 0.  1.
          6    2    1    2  501    0 -0.39616020952E+02  0.24068806226E+03  0.67090087589E+03  0.73422027024E+03  0.17167191829E+03 0.  0.
         24    2    3    3    0    0  0.15637239272E+02  0.54130387077E+02  0.29340624658E+03  0.30950745657E+03  0.80827087568E+02 0.  0.
         -6    2    1    2    0  502  0.39616020952E+02 -0.24068806226E+03  0.65407902658E+03  0.71879720420E+03  0.17131805312E+03 0.  0.
        -24    2    5    5    0    0  0.25174550804E+01 -0.17543737177E+03  0.30035487583E+03  0.35716642423E+03  0.81056734258E+02 0.  0.
          5    1    3    3  501    0 -0.55253260224E+02  0.18655767518E+03  0.37749462931E+03  0.42471281366E+03  0.47000000000E+01 0. -1.
        -13    1    4    4    0    0 -0.12920735305E+02 -0.14901757587E+02  0.10489164683E+03  0.10672987096E+03  0.00000000000E+00 0.  1.
         14    1    4    4    0    0  0.28557974577E+02  0.69032144664E+02  0.18851459975E+03  0.20277758562E+03  0.00000000000E+00 0. -1.
         -5    1    5    5    0  502  0.37098565872E+02 -0.65250690489E+02  0.35372415075E+03  0.36163077997E+03  0.47000000000E+01 0.  1.
         13    1    6    6    0    0 -0.33294576654E+02 -0.43781972077E+02  0.65258452424E+02  0.85346678472E+02  0.00000000000E+00 0. -1.
        -14    1    6    6    0    0  0.35812031734E+02 -0.13165539969E+03  0.23509642340E+03  0.27181974575E+03  0.00000000000E+00 0.  1.
</event>
<event>
12    1  0.9966151E-001  0.2037159E+03  0.7818608E-02  0.1147472E+00
         21   -1    0    0  503  502  0.00000000000E+00  0.00000000000E+00  0.35331397782E+03  0.35331397782E+03  0.00000000000E+00 0.  1.
         21   -1    0    0  501  503 -0.00000000000E+00 -0.00000000000E+00 -0.11558545318E+03  0.11558545318E+03  0.00000000000E+00 0.  1.
          6    2    1    2  501    0  0.90110080606E+02  0.58465502827E+02  0.13175986720E+03  0.23927032431E+03  0.16837928567E+03 0.  0.
         24    2    3    3    0    0  0.11946757124E+03  0.28346090983E+02  0.64984583521E+02  0.16021294175E+03  0.79807199916E+02 0.  0.
         -6    2    1    2    0  502 -0.90110080606E+02 -0.58465502827E+02  0.10596865743E+03  0.22962910668E+03  0.17309572100E+03 0.  0.
        -24    2    5    5    0    0 -0.12467458218E+02 -0.17889922717E+02  0.99358374172E+02  0.14164876594E+03  0.98573827783E+02 0.  0.
          5    1    3    3  501    0 -0.29357490634E+02  0.30119411844E+02  0.66775283684E+02  0.79057382560E+02  0.47000000000E+01 0. -1.
        -13    1    4    4    0    0  0.48608611085E+02 -0.52284249118E+01  0.65582752317E+02  0.81799944378E+02  0.00000000000E+00 0.  1.
         14    1    4    4    0    0  0.70858960154E+02  0.33574515895E+02 -0.59816879674E+00  0.78412997377E+02  0.00000000000E+00 0. -1.
         -5    1    5    5    0  502 -0.77642622388E+02 -0.40575580110E+02  0.66102832619E+01  0.87980340744E+02  0.47000000000E+01 0.  1.
         13    1    6    6    0    0  0.21222157017E-01 -0.52291095001E+02  0.89648864597E+02  0.10378476762E+03  0.00000000000E+00 0. -1.
        -14    1    6    6    0    0 -0.12488680375E+02  0.34401172285E+02  0.97095095745E+01  0.37863998313E+02  0.00000000000E+00 0.  1.
</event>
<event>
12    1  0.9966151E-001  0.2094104E+03  0.7818608E-02  0.1142137E+00
         21   -1    0    0  501  502  0.00000000000E+00  0.00000000000E+00  0.23652629369E+03  0.23652629369E+03  0.00000000000E+00 0. -1.
         21   -1    0    0  502  503 -0.00000000000E+00 -0.00000000000E+00 -0.19853895999E+03  0.19853895999E+03  0.00000000000E+00 0. -1.
         -6    2    1    2    0  503  0.11736307835E+03 -0.12333264020E+02 -0.37908372092E+02  0.21281393550E+03  0.17299284640E+03 0.  0.
        -24    2    3    3    0    0  0.37960337871E+02 -0.41602012587E+02 -0.72338267137E+02  0.12133190168E+03  0.79478869967E+02 0.  0.
          6    2    1    2  501    0 -0.11736307835E+03  0.12333264020E+02  0.75895705794E+02  0.22225131818E+03  0.17236382658E+03 0.  0.
         24    2    5    5    0    0 -0.13899143534E+03 -0.47044957695E+01  0.97241081521E+02  0.18709756803E+03  0.78796704565E+02 0.  0.
          5    1    5    5  501    0  0.21628356988E+02  0.17037759790E+02 -0.21345375727E+02  0.35153750150E+02  0.47000000000E+01 0. -1.
        -13    1    6    6    0    0 -0.74847185485E+02  0.49868695752E+01  0.61465108714E+01  0.75264531083E+02  0.00000000000E+00 0.  1.
         14    1    6    6    0    0 -0.64144249853E+02 -0.96913653447E+01  0.91094570650E+02  0.11183303695E+03  0.00000000000E+00 0. -1.
         -5    1    3    3    0  503  0.79402740479E+02  0.29268748567E+02  0.34429895045E+02  0.91482033816E+02  0.47000000000E+01 0.  1.
         13    1    4    4    0    0  0.43120653917E+02  0.10967243520E+02 -0.35735209104E+02  0.57067297065E+02  0.00000000000E+00 0. -1.
        -14    1    4    4    0    0 -0.51603160460E+01 -0.52569256107E+02 -0.36603058033E+02  0.64264604618E+02  0.00000000000E+00 0.  1.
</event>
<event>
12    1  0.9966151E-001  0.1950826E+03  0.7818608E-02  0.1153993E+00
         21   -1    0    0  501  502  0.00000000000E+00  0.00000000000E+00  0.12180356855E+03  0.12180356855E+03  0.00000000000E+00 0.  1.
         21   -1    0    0  502  503 -0.00000000000E+00 -0.00000000000E+00 -0.31748388931E+03  0.31748388931E+03  0.00000000000E+00 0.  1.
         -6    2    1    2    0  503  0.55309353074E+02 -0.73737734658E+02 -0.12621503653E+03  0.23220624333E+03  0.17173562805E+03 0.  0.
        -24    2    3    3    0    0  0.32228236102E+01 -0.38218972930E+02  0.13976895620E+01  0.89792455904E+02  0.81176690726E+02 0.  0.
          6    2    1    2  501    0 -0.55309353074E+02  0.73737734658E+02 -0.69465284228E+02  0.20708121454E+03  0.17193261951E+03 0.  0.
         24    2    5    5    0    0 -0.44025097088E+02  0.51094331523E+01  0.20526661416E+02  0.93248800519E+02  0.79433490975E+02 0.  0.
          5    1    5    5  501    0 -0.11284255985E+02  0.68628301505E+02 -0.89991945644E+02  0.11383241402E+03  0.47000000000E+01 0. -1.
        -11    1    6    6    0    0  0.17784557306E+02  0.10075376934E+02  0.23528708556E+02  0.31167351913E+02  0.00000000000E+00 0.  1.
         12    1    6    6    0    0 -0.61809654395E+02 -0.49659437812E+01 -0.30020471395E+01  0.62081448606E+02  0.00000000000E+00 0. -1.
         -5    1    3    3    0  503  0.52086529464E+02 -0.35518761727E+02 -0.12761272610E+03  0.14241378742E+03  0.47000000000E+01 0.  1.
         11    1    4    4    0    0  0.20090326758E+02 -0.59233554990E+02  0.42679700429E+01  0.62693307732E+02  0.00000000000E+00 0. -1.
        -12    1    4    4    0    0 -0.16867503148E+02  0.21014582060E+02 -0.28702804810E+01  0.27099148172E+02  0.00000000000E+00 0.  1.
</event>
<event>
12    1  0.9966151E-001  0.1736436E+03  0.7818608E-02  0.1174622E+00
         21   -1    0    0  503  502  0.00000000000E+00  0.00000000000E+00  0.18233023773E+03  0.18233023773E+03  0.00000000000E+00 0.  1.
         21   -1    0    0  501  503 -0.00000000000E+00 -0.00000000000E+00 -0.16911286457E+03  0.16911286457E+03  0.00000000000E+00 0.  1.
          6    2    1    2  501    0 -0.41732317424E+01 -0.21288891287E+02 -0.25564776243E+02  0.17551536609E+03  0.17228306125E+03 0.  0.
         24    2    3    3    0    0 -0.68147630346E+02 -0.22591552110E+02 -0.29987442979E+01  0.10750259965E+03  0.79958356130E+02 0.  0.
         -6    2    1    2    0  502  0.41732317424E+01  0.21288891287E+02  0.38782149409E+02  0.17592773621E+03  0.17022303164E+03 0.  0.
        -24    2    5    5    0    0 -0.21369302603E+02  0.77756581096E+02  0.36385329720E+02  0.11372760922E+03  0.71465683247E+02 0.  0.
          5    1    3    3  501    0  0.63974398604E+02  0.13026608231E+01 -0.22566031945E+02  0.68012766446E+02  0.47000000000E+01 0. -1.
        -11    1    4    4    0    0  0.94507149470E+01 -0.25216349369E+02  0.10103470516E+02  0.28762134917E+02  0.00000000000E+00 0.  1.
         12    1    4    4    0    0 -0.77598345293E+02  0.26247972593E+01 -0.13102214814E+02  0.78740464730E+02  0.00000000000E+00 0. -1.
         -5    1    5    5    0  502  0.25542534346E+02 -0.56467689809E+02  0.23968196897E+01  0.62200126992E+02  0.47000000000E+01 0.  1.
         11    1    6    6    0    0 -0.40952520443E+02  0.20327045665E+02  0.24597281195E+02  0.51916509496E+02  0.00000000000E+00 0. -1.
        -12    1    6    6    0    0  0.19583217839E+02  0.57429535431E+02  0.11788048524E+02  0.61811099721E+02  0.00000000000E+00 0.  1.
</event>
<event>
12    1  0.9966151E-001  0.2475117E+03  0.7818608E-02  0.1114925E+00
         21   -1    0    0  503  502  0.00000000000E+00  0.00000000000E+00  0.21003041749E+03  0.21003041749E+03  0.00000000000E+00 0.  1.
         21   -1    0    0  501  503 -0.00000000000E+00 -0.00000000000E+00 -0.52756996907E+03  0.52756996907E+03  0.00000000000E+00 0.  1.
          6    2    1    2  501    0  0.13478753583E+03  0.11595611236E+03  0.87938218880E+02  0.26266935559E+03  0.17218757278E+03 0.  0.
         24    2    3    3    0    0  0.12279852103E+03  0.13856174785E+03  0.10887601113E+03  0.22927426050E+03  0.80211383199E+02 0.  0.
         -6    2    1    2    0  502 -0.13478753583E+03 -0.11595611236E+03 -0.40547777045E+03  0.47493103097E+03  0.17185389736E+03 0.  0.
        -24    2    5    5    0    0 -0.13795017836E+03 -0.91603104586E+02 -0.41023154048E+03  0.44947990870E+03  0.79504031563E+02 0.  0.
          5    1    3    3  501    0  0.11989014798E+02 -0.22605635486E+02 -0.20937792255E+02  0.33395095090E+02  0.47000000000E+01 0. -1.
        -13    1    4    4    0    0 -0.14569316128E+01 -0.32031693862E+01 -0.71138462002E+01  0.79366083185E+01  0.00000000000E+00 0.  1.
         14    1    4    4    0    0  0.12425545265E+03  0.14176491723E+03  0.11598985734E+03  0.22133765219E+03  0.00000000000E+00 0. -1.
         -5    1    5    5    0  502  0.31626425272E+01 -0.24353007775E+02  0.47537700313E+01  0.25451122273E+02  0.47000000000E+01 0.  1.
         13    1    6    6    0    0 -0.12281068989E+03 -0.10523033732E+03 -0.34272892339E+03  0.37897098091E+03  0.00000000000E+00 0. -1.
        -14    1    6    6    0    0 -0.15139488465E+02  0.13627232733E+02 -0.67502617092E+02  0.70508927783E+02  0.00000000000E+00 0.  1.
</event>
<event>
12    1  0.9966151E-001  0.3071350E+03  0.7818608E-02  0.1081775E+00
         21   -1    0    0  501  502  0.00000000000E+00  0.00000000000E+00  0.10396507486E+03  0.10396507486E+03  0.00000000000E+00 0. -1.
         21   -1    0    0  502  503 -0.00000000000E+00 -0.00000000000E+00 -0.93135216038E+03  0.93135216038E+03  0.00000000000E+00 0. -1.
         -6    2    1    2    0  503  0.16241831055E+03  0.19455027470E+03 -0.32835641142E+03  0.44934495217E+03  0.17281040518E+03 0.  0.
        -24    2    3    3    0    0  0.16275965214E+03  0.20297190076E+03 -0.24784089662E+03  0.36825316206E+03  0.80603873783E+02 0.  0.
          6    2    1    2  501    0 -0.16241831055E+03 -0.19455027470E+03 -0.49903067410E+03  0.58597228307E+03  0.17350039150E+03 0.  0.
         24    2    5    5    0    0 -0.18951272963E+03 -0.18202234524E+03 -0.46183040140E+03  0.53804518374E+03  0.84605503515E+02 0.  0.
          5    1    5    5  501    0  0.27094419081E+02 -0.12527929456E+02 -0.37200272702E+02  0.47927099338E+02  0.47000000000E+01 0. -1.
        -13    1    6    6    0    0 -0.59497480228E+02 -0.38753560346E+02 -0.63676434703E+02  0.95375452447E+02  0.00000000000E+00 0.  1.
         14    1    6    6    0    0 -0.13001524940E+03 -0.14326878489E+03 -0.39815396670E+03  0.44266973129E+03  0.00000000000E+00 0. -1.
         -5    1    3    3    0  503 -0.34134158949E+00 -0.84216260684E+01 -0.80515514797E+02  0.81091790107E+02  0.47000000000E+01 0.  1.
         11    1    4    4    0    0  0.30084153418E+02  0.46091066664E+01 -0.48735033636E+02  0.57457842412E+02  0.00000000000E+00 0. -1.
        -12    1    4    4    0    0  0.13267549872E+03  0.19836279410E+03 -0.19910586298E+03  0.31079531965E+03  0.00000000000E+00 0.  1.
</event>
<event>
12    1  0.9966151E-001  0.2422865E+03  0.7818608E-02  0.1118281E+00
         21   -1    0    0  501  502  0.00000000000E+00  0.00000000000E+00  0.18546619492E+03  0.18546619492E+03  0.00000000000E+00 0.  1.
         21   -1    0    0  502  503 -0.00000000000E+00 -0.00000000000E+00 -0.46247903099E+03  0.46247903099E+03  0.00000000000E+00 0.  1.
         -6    2    1    2    0  503 -0.15071300188E+03  0.79022971986E+02  0.43509231498E+02  0.24616213671E+03  0.17246363468E+03 0.  0.
        -24    2    3    3    0    0 -0.14020392055E+03 -0.11496785349E+01  0.25682196106E+02  0.16322850136E+03  0.79533058285E+02 0.  0.
          6    2    1    2  501    0  0.15071300188E+03 -0.79022971986E+02 -0.32052206757E+03  0.40178308921E+03  0.17244192047E+03 0.  0.
         24    2    5    5    0    0  0.16104890685E+03 -0.18815469814E+02 -0.24737297183E+03  0.30636477620E+03  0.79844953515E+02 0.  0.
          5    1    5    5  501    0 -0.10335904973E+02 -0.60207502172E+02 -0.73149095743E+02  0.95418313008E+02  0.47000000000E+01 0. -1.
        -13    1    6    6    0    0  0.11781767047E+03 -0.16055694223E+02 -0.10877431690E+03  0.16115409026E+03  0.00000000000E+00 0.  1.
         14    1    6    6    0    0  0.43231236374E+02 -0.27597755909E+01 -0.13859865493E+03  0.14521068593E+03  0.00000000000E+00 0. -1.
         -5    1    3    3    0  503 -0.10509081325E+02  0.80172650521E+02  0.17827035392E+02  0.82933635352E+02  0.47000000000E+01 0.  1.
         13    1    4    4    0    0 -0.71631981013E+02  0.90610798235E-01  0.53307389161E+02  0.89290686264E+02  0.00000000000E+00 0. -1.
        -14    1    4    4    0    0 -0.68571939537E+02 -0.12402893332E+01 -0.27625193055E+02  0.73937815094E+02  0.00000000000E+00 0.  1.
</event>
<event>
12    1  0.9966151E-001  0.2370180E+03  0.7818608E-02  0.1121797E+00
         21   -1    0    0  503  502  0.00000000000E+00  0.00000000000E+00  0.29046625669E+03  0.29046625669E+03  0.00000000000E+00 0.  1.
         21   -1    0    0  501  503 -0.00000000000E+00 -0.00000000000E+00 -0.19420768711E+03  0.19420768711E+03  0.00000000000E+00 0.  1.
          6    2    1    2  501    0 -0.96980164931E+02 -0.13149606531E+03  0.32480103993E+02  0.23922496092E+03  0.17168942073E+03 0.  0.
         24    2    3    3    0    0 -0.81721015315E+02 -0.78741156544E+02 -0.42921465612E+02  0.14582577064E+03  0.80897522178E+02 0.  0.
         -6    2    1    2    0  502  0.96980164931E+02  0.13149606531E+03  0.63778465585E+02  0.24544898289E+03  0.17170073659E+03 0.  0.
        -24    2    5    5    0    0  0.84589604333E+02  0.13235888391E+03 -0.38628026768E+01  0.17651639538E+03  0.80429107194E+02 0.  0.
          5    1    3    3  501    0 -0.15259149616E+02 -0.52754908767E+02  0.75401569605E+02  0.93399190280E+02  0.47000000000E+01 0. -1.
        -11    1    4    4    0    0 -0.56683455938E+02 -0.70590579890E+02  0.55098509848E+01  0.90699518213E+02  0.00000000000E+00 0.  1.
         12    1    4    4    0    0 -0.25037559378E+02 -0.81505766537E+01 -0.48431316597E+02  0.55126252427E+02  0.00000000000E+00 0. -1.
         -5    1    5    5    0  502  0.12390560598E+02 -0.86281859634E+00  0.67641268261E+02  0.68932587503E+02  0.47000000000E+01 0.  1.
         13    1    6    6    0    0 -0.16005677205E+02  0.18703511168E+02  0.12754876032E+01  0.24650150130E+02  0.00000000000E+00 0. -1.
        -14    1    6    6    0    0  0.10059528154E+03  0.11365537274E+03 -0.51382902800E+01  0.15186624525E+03  0.00000000000E+00 0.  1.
</event>
<event>
12    1  0.9966151E-001  0.3190957E+03  0.7818608E-02  0.1076088E+00
         21   -1    0    0  503  502  0.00000000000E+00  0.00000000000E+00  0.67031871865E+02  0.67031871865E+02  0.00000000000E+00 0. -1.
         21   -1    0    0  501  503 -0.00000000000E+00 -0.00000000000E+00 -0.19755529419E+04  0.19755529419E+04  0.00000000000E+00 0. -1.
          6    2    1    2  501    0 -0.22184235496E+03  0.15200572954E+03 -0.46303511070E+03  0.56233757666E+03  0.17176223136E+03 0.  0.
         24    2    3    3    0    0 -0.12946144554E+03  0.48795460335E+02 -0.34508379936E+03  0.38034528578E+03  0.80239921494E+02 0.  0.
         -6    2    1    2    0  502  0.22184235496E+03 -0.15200572954E+03 -0.14454859593E+04  0.14802472371E+04  0.17141310346E+03 0.  0.
        -24    2    5    5    0    0  0.12862673598E+03 -0.10592749843E+03 -0.11927170958E+04  0.12068856755E+04  0.78952459739E+02 0.  0.
          5    1    3    3  501    0 -0.92380909416E+02  0.10321026921E+03 -0.11795131133E+03  0.18199229088E+03  0.47000000000E+01 0. -1.
        -11    1    4    4    0    0 -0.11784694783E+03  0.32563501240E+02 -0.20381753993E+03  0.23767598597E+03  0.00000000000E+00 0.  1.
         12    1    4    4    0    0 -0.11614497715E+02  0.16231959094E+02 -0.14126625943E+03  0.14266929981E+03  0.00000000000E+00 0. -1.
         -5    1    5    5    0  502  0.93215618978E+02 -0.46078231116E+02 -0.25276886347E+03  0.27336156157E+03  0.47000000000E+01 0.  1.
         11    1    6    6    0    0  0.78495870301E+01  0.12534449412E+02 -0.75841600903E+02  0.77270155080E+02  0.00000000000E+00 0. -1.
        -12    1    6    6    0    0  0.12077714895E+03 -0.11846194784E+03 -0.11168754949E+04  0.11296155204E+04  0.00000000000E+00 0.  1.
</event>
<event>
12    1  0.9966151E-001  0.1835277E+03  0.7818608E-02  0.1164859E+00
         21   -1    0    0  503  502  0.00000000000E+00  0.00000000000E+00  0.60331120454E+03  0.60331120454E+03  0.00000000000E+00 0. -1.
         21   -1    0    0  501  503 -0.00000000000E+00 -0.00000000000E+00 -0.58193021906E+02  0.58193021906E+02  0.00000000000E+00 0. -1.
          6    2    1    2  501    0  0.26483583528E+02  0.58715388241E+02  0.19987096541E+03  0.27134997354E+03  0.17185321734E+03 0.  0.
         24    2    3    3    0    0 -0.28872668193E+02  0.71874953759E+02  0.17907624096E+03  0.21058814889E+03  0.79242844666E+02 0.  0.
         -6    2    1    2    0  502 -0.26483583528E+02 -0.58715388241E+02  0.34524721722E+03  0.39015425290E+03  0.16992887644E+03 0.  0.
        -24    2    5    5    0    0 -0.34292791295E+02 -0.95515933978E+02  0.31817472668E+03  0.34356805713E+03  0.80650877282E+02 0.  0.
          5    1    3    3  501    0  0.55356251721E+02 -0.13159565518E+02  0.20794724451E+02  0.60761824645E+02  0.47000000000E+01 0. -1.
        -11    1    4    4    0    0 -0.85429962600E+01 -0.15553573397E+02  0.13685171818E+02  0.22409381031E+02  0.00000000000E+00 0.  1.
         12    1    4    4    0    0 -0.20329671933E+02  0.87428527156E+02  0.16539106914E+03  0.18817876786E+03  0.00000000000E+00 0. -1.
         -5    1    5    5    0  502  0.78092077666E+01  0.36800545737E+02  0.27072490542E+02  0.46586195773E+02  0.47000000000E+01 0.  1.
         13    1    6    6    0    0 -0.31082228143E+02 -0.51817076214E+02  0.74204786426E+02  0.95694642599E+02  0.00000000000E+00 0. -1.
        -14    1    6    6    0    0 -0.32105631518E+01 -0.43698857764E+02  0.24396994025E+03  0.24787341453E+03  0.00000000000E+00 0.  1.
</event>
<event>
12    1  0.9966151E-001  0.5833346E+03  0.7818608E-02  0.9941331E-01
         21   -1    0    0  503  502  0.00000000000E+00  0.00000000000E+00  0.14913807072E+04  0.14913807072E+04  0.00000000000E+00 0.  1.
         21   -1    0    0  501  503 -0.00000000000E+00 -0.00000000000E+00 -0.27805289674E+03  0.27805289674E+03  0.00000000000E+00 0.  1.
          6    2    1    2  501    0 -0.34713689803E+03  0.43874810168E+03  0.22933462437E+03  0.62552721231E+03  0.16026852688E+03 0.  0.
         24    2    3    3    0    0 -0.20044474456E+03  0.28144782186E+03  0.82221262217E+02  0.36490028115E+03  0.83671423888E+02 0.  0.
         -6    2    1    2    0  502  0.34713689803E+03 -0.43874810168E+03  0.98399318607E+03  0.11439063916E+04  0.16515241394E+03 0.  0.
        -24    2    5    5    0    0  0.33405326594E+03 -0.44352639448E+03  0.97913536780E+03  0.11284240820E+04  0.79546171475E+02 0.  0.
          5    1    3    3  501    0 -0.14669215348E+03  0.15730027982E+03  0.14711336215E+03  0.26062693116E+03  0.47000000000E+01 0. -1.
        -11    1    4    4    0    0 -0.17359296292E+02  0.85657893792E+02  0.17307326254E+02  0.89096371861E+02  0.00000000000E+00 0.  1.
         12    1    4    4    0    0 -0.18308544826E+03  0.19578992806E+03  0.64913935963E+02  0.27580390929E+03  0.00000000000E+00 0. -1.
         -5    1    5    5    0  502  0.13083632093E+02  0.47782927999E+01  0.48578182689E+01  0.15482309555E+02  0.47000000000E+01 0. -1.
         11    1    6    6    0    0  0.11078985172E+03 -0.20832435822E+03  0.43992532140E+03  0.49920708918E+03  0.00000000000E+00 0. -1.
        -12    1    6    6    0    0  0.22326341422E+03 -0.23520203625E+03  0.53921004640E+03  0.62921699287E+03  0.00000000000E+00 0.  1.
</event>
<event>
12    1  0.9966151E-001  0.2797743E+03  0.7818608E-02  0.1095824E+00
         21   -1    0    0  503  502  0.00000000000E+00  0.00000000000E+00  0.69813158643E+03  0.69813158643E+03  0.00000000000E+00 0.  1.
         21   -1    0    0  501  503 -0.00000000000E+00 -0.00000000000E+00 -0.13063867076E+03  0.13063867076E+03  0.00000000000E+00 0.  1.
          6    2    1    2  501    0 -0.21335906485E+03  0.57192562792E+02  0.43988033921E+03  0.52126640614E+03  0.17155428749E+03 0.  0.
         24    2    3    3    0    0 -0.54495829700E+02 -0.24284010874E+02  0.13376890991E+03  0.16686231942E+03  0.79933745969E+02 0.  0.
         -6    2    1    2    0  502  0.21335906485E+03 -0.57192562792E+02  0.12761257646E+03  0.30750385104E+03  0.17169906506E+03 0.  0.
        -24    2    5    5    0    0  0.98838780570E+02 -0.97675545944E+02  0.69135721246E+02  0.17261352510E+03  0.75538495318E+02 0.  0.
          5    1    3    3  501    0 -0.15886323515E+03  0.81476573667E+02  0.30611142930E+03  0.35440408672E+03  0.47000000000E+01 0. -1.
        -11    1    4    4    0    0 -0.15778775324E+02 -0.12515175352E+02  0.12347589248E+03  0.12510753530E+03  0.00000000000E+00 0.  1.
         12    1    4    4    0    0 -0.38717054377E+02 -0.11768835522E+02  0.10293017431E+02  0.41754784121E+02  0.00000000000E+00 0. -1.
         -5    1    5    5    0  502  0.11452028428E+03  0.40482983152E+02  0.58476855210E+02  0.13489032594E+03  0.47000000000E+01 0.  1.
         11    1    6    6    0    0  0.11022899169E+03 -0.86879815003E+02  0.70113007619E+02  0.15688966410E+03  0.00000000000E+00 0. -1.
        -12    1    6    6    0    0 -0.11390211123E+02 -0.10795730941E+02 -0.97728637311E+00  0.15723860997E+02  0.00000000000E+00 0.  1.
</event>
<event>
12    1  0.9966151E-001  0.1929450E+03  0.7818608E-02  0.1156005E+00
         21   -1    0    0  503  502  0.00000000000E+00  0.00000000000E+00  0.10011923850E+03  0.10011923850E+03  0.00000000000E+00 0.  1.
         21   -1    0    0  501  503 -0.00000000000E+00 -0.00000000000E+00 -0.38473324957E+03  0.38473324957E+03  0.00000000000E+00 0.  1.
          6    2    1    2  501    0 -0.52754020305E+02  0.66677780857E+02 -0.95114870317E+02  0.21441267231E+03  0.17232829823E+03 0.  0.
         24    2    3    3    0    0  0.85308990372E+01 -0.15661114868E+02 -0.65652059873E+01  0.78770982031E+02  0.76444220993E+02 0.  0.
         -6    2    1    2    0  502  0.52754020305E+02 -0.66677780857E+02 -0.18949914075E+03  0.27043981576E+03  0.17320177968E+03 0.  0.
        -24    2    5    5    0    0  0.75304069160E+02 -0.10239519100E+03 -0.15455283086E+03  0.21541643286E+03  0.79763300139E+02 0.  0.
          5    1    3    3  501    0 -0.61284919343E+02  0.82338895725E+02 -0.88549664330E+02  0.13564169028E+03  0.47000000000E+01 0. -1.
        -11    1    4    4    0    0 -0.27914190204E+02 -0.20189748454E+02  0.13405750021E+02  0.36966770092E+02  0.00000000000E+00 0.  1.
         12    1    4    4    0    0  0.36445089242E+02  0.45286335860E+01 -0.19970956008E+02  0.41804211939E+02  0.00000000000E+00 0. -1.
         -5    1    5    5    0  502 -0.22550048854E+02  0.35717410141E+02 -0.34946309893E+02  0.55023382899E+02  0.47000000000E+01 0.  1.
         13    1    6    6    0    0  0.37483946072E+02 -0.73282826745E+01 -0.80545801844E+02  0.89142448557E+02  0.00000000000E+00 0. -1.
        -14    1    6    6    0    0  0.37820123087E+02 -0.95066908323E+02 -0.74007029012E+02  0.12627398430E+03  0.00000000000E+00 0.  1.
</event>
<event>
12    1  0.9966151E-001  0.2212767E+03  0.7818608E-02  0.1132988E+00
         21   -1    0    0  503  502  0.00000000000E+00  0.00000000000E+00  0.30989711766E+03  0.30989711766E+03  0.00000000000E+00 0. -1.
         21   -1    0    0  501  503 -0.00000000000E+00 -0.00000000000E+00 -0.28250184603E+03  0.28250184603E+03  0.00000000000E+00 0. -1.
          6    2    1    2  501    0 -0.11213034345E+03 -0.83571941140E+02  0.21049934807E+03  0.30540686487E+03  0.17148146928E+03 0.  0.
         24    2    3    3    0    0 -0.50086584096E+01 -0.22811147156E+02  0.33558983280E+02  0.89775438166E+02  0.79924895030E+02 0.  0.
         -6    2    1    2    0  502  0.11213034345E+03  0.83571941140E+02 -0.18310407644E+03  0.28699209882E+03  0.17111364267E+03 0.  0.
        -24    2    5    5    0    0  0.43372733751E+02 -0.14603865853E+02 -0.71735179413E+02  0.12331186423E+03  0.89249162258E+02 0.  0.
          5    1    3    3  501    0 -0.10712168504E+03 -0.60760793984E+02  0.17694036479E+03  0.21563142670E+03  0.47000000000E+01 0. -1.
        -13    1    4    4    0    0 -0.36014027191E+02  0.10367981515E+02  0.19447064777E+02  0.42221955470E+02  0.00000000000E+00 0.  1.
         14    1    4    4    0    0  0.31005368782E+02 -0.33179128672E+02  0.14111918503E+02  0.47553482696E+02  0.00000000000E+00 0. -1.
         -5    1    5    5    0  502  0.68757609698E+02  0.98175806994E+02 -0.11136889703E+03  0.16368023459E+03  0.47000000000E+01 0.  1.
         11    1    6    6    0    0 -0.96387516046E+01  0.29174625818E+02 -0.29669098741E+02  0.42712056193E+02  0.00000000000E+00 0. -1.
        -12    1    6    6    0    0  0.53011485355E+02 -0.43778491671E+02 -0.42066080671E+02  0.80599808037E+02  0.00000000000E+00 0.  1.
</event>
<event>
12    1  0.9966151E-001  0.3231669E+03  0.7818608E-02  0.1074380E+00
         21   -1    0    0  503  502  0.00000000000E+00  0.00000000000E+00  0.81682306121E+03  0.81682306121E+03  0.00000000000E+00 0.  1.
         21   -1    0    0  501  503 -0.00000000000E+00 -0.00000000000E+00 -0.43916979548E+03  0.43916979548E+03  0.00000000000E+00 0.  1.
          6    2    1    2  501    0 -0.11949168085E+03 -0.24543944583E+03  0.71822282448E+03  0.78757910069E+03  0.17296829443E+03 0.  0.
         24    2    3    3    0    0 -0.11344524085E+03 -0.95055583717E+02  0.43642373025E+03  0.46807216035E+03  0.81978584376E+02 0.  0.
         -6    2    1    2    0  502  0.11949168085E+03  0.24543944583E+03 -0.34056955875E+03  0.46841375600E+03  0.17001482024E+03 0.  0.
        -24    2    5    5    0    0  0.13419931530E+03  0.16267320606E+03 -0.29908858981E+03  0.37455574760E+03  0.79787187628E+02 0.  0.
          5    1    3    3  501    0 -0.60464400048E+01 -0.15038386211E+03  0.28179909422E+03  0.31950694034E+03  0.47000000000E+01 0. -1.
        -13    1    4    4    0    0 -0.83744040496E+02 -0.95489442639E+02  0.26228887226E+03  0.29142194578E+03  0.00000000000E+00 0.  1.
         14    1    4    4    0    0 -0.29701200353E+02  0.43385892196E+00  0.17413485800E+03  0.17665021457E+03  0.00000000000E+00 0. -1.
         -5    1    5    5    0  502 -0.14707634447E+02  0.82766239772E+02 -0.41480968944E+02  0.93858008404E+02  0.47000000000E+01 0.  1.
         11    1    6    6    0    0  0.42110212866E+02  0.70612693229E+02 -0.58216124755E+02  0.10073996056E+03  0.00000000000E+00 0. -1.
        -12    1    6    6    0    0  0.92089102435E+02  0.92060512831E+02 -0.24087246505E+03  0.27381578704E+03  0.00000000000E+00 0.  1.
</event>
<event>
12    1  0.9966151E-001  0.1830461E+03  0.7818608E-02  0.1164928E+00
         21   -1    0    0  503  502  0.00000000000E+00  0.00000000000E+00  0.31181334533E+03  0.31181334533E+03  0.00000000000E+00 0.  1.
         21   -1    0    0  501  503 -0.00000000000E+00 -0.00000000000E+00 -0.16197037512E+03  0.16197037512E+03  0.00000000000E+00 0.  1.
          6    2    1    2  501    0 -0.59185758998E+01  0.62199845580E+02  0.21250486268E+03  0.28047138691E+03  0.17205241028E+03 0.  0.
         24    2    3    3    0    0  0.14843235952E+01  0.10352123122E+03  0.19590469075E+03  0.23508509449E+03  0.78533465873E+02 0.  0.
         -6    2    1    2    0  502  0.59185758998E+01 -0.62199845580E+02 -0.62661892472E+02  0.19331233354E+03  0.17186999506E+03 0.  0.
        -24    2    5    5    0    0 -0.65037042996E+01  0.81178864683E+01  0.21251713694E+02  0.83028700189E+02  0.79586000464E+02 0.  0.
          5    1    3    3  501    0 -0.74028994950E+01 -0.41321385636E+02  0.16600171922E+02  0.45386292421E+02  0.47000000000E+01 0. -1.
        -11    1    4    4    0    0  0.13442230461E+02  0.11734067227E+02 -0.61879308767E+00  0.17853985503E+02  0.00000000000E+00 0.  1.
         12    1    4    4    0    0 -0.11957906866E+02  0.91787163990E+02  0.19652348384E+03  0.21723110899E+03  0.00000000000E+00 0. -1.
         -5    1    5    5    0  502  0.12422280199E+02 -0.70317732049E+02 -0.83913606166E+02  0.11028363335E+03  0.47000000000E+01 0.  1.
         11    1    6    6    0    0  0.71213856963E+01  0.91707530770E+01 -0.28848853023E+02  0.31097800034E+02  0.00000000000E+00 0. -1.
        -12    1    6    6    0    0 -0.13625089996E+02 -0.10528666088E+01  0.50100566717E+02  0.51930900155E+02  0.00000000000E+00 0.  1.
</event>
<event>
12    1  0.9966151E-001  0.1987969E+03  0.7818608E-02  0.1150935E+00
         21   -1    0    0  503  502  0.00000000000E+00  0.00000000000E+00  0.44440241408E+03  0.44440241408E+03  0.00000000000E+00 0. -1.
         21   -1    0    0  501  503 -0.00000000000E+00 -0.00000000000E+00 -0.93012250936E+02  0.93012250936E+02  0.00000000000E+00 0. -1.
          6    2    1    2  501    0  0.87874454726E+02  0.44367797747E+02  0.23484453806E+03  0.30768844860E+03  0.17271306574E+03 0.  0.
         24    2    3    3    0    0  0.66725823240E+01  0.25961484343E+02  0.34214938870E+02  0.90417045685E+02  0.79284664875E+02 0.  0.
         -6    2    1    2    0  502 -0.87874454726E+02 -0.44367797747E+02  0.11654562509E+03  0.22972621642E+03  0.17175805807E+03 0.  0.
        -24    2    5    5    0    0 -0.92923016129E+02  0.15412317780E+02  0.11493073912E+03  0.16952781078E+03  0.81598880923E+02 0.  0.
          5    1    3    3  501    0  0.81201872402E+02  0.18406313403E+02  0.20062959919E+03  0.21727140292E+03  0.47000000000E+01 0. -1.
        -11    1    4    4    0    0  0.37539030501E+02  0.27214526944E+02  0.29423376120E+01  0.46459300881E+02  0.00000000000E+00 0.  1.
         12    1    4    4    0    0 -0.30866448177E+02 -0.12530426013E+01  0.31272601258E+02  0.43957744804E+02  0.00000000000E+00 0. -1.
         -5    1    5    5    0  502  0.50485614029E+01 -0.59780115526E+02  0.16148859703E+01  0.60198405637E+02  0.47000000000E+01 0.  1.
         13    1    6    6    0    0 -0.54692450218E+02  0.89557414791E+01  0.82646585123E+01  0.56033686267E+02  0.00000000000E+00 0. -1.
        -14    1    6    6    0    0 -0.38230565911E+02  0.64565763007E+01  0.10666608060E+03  0.11349412451E+03  0.00000000000E+00 0.  1.
</event>
<event>
12    1  0.9966151E-001  0.1914024E+03  0.7818608E-02  0.1158147E+00
         21   -1    0    0  501  502  0.00000000000E+00  0.00000000000E+00  0.20807980076E+02  0.20807980076E+02  0.00000000000E+00 0.  1.
         21   -1    0    0  502  503 -0.00000000000E+00 -0.00000000000E+00 -0.17448325971E+04  0.17448325971E+04  0.00000000000E+00 0.  1.
         -6    2    1    2    0  503  0.36876347784E+01 -0.72168461721E+02 -0.75253109749E+03  0.77547163200E+03  0.17271743928E+03 0.  0.
        -24    2    3    3    0    0  0.66779182153E+02 -0.41089442117E+02 -0.54134912611E+03  0.55283658569E+03  0.80134965631E+02 0.  0.
          6    2    1    2  501    0 -0.36876347784E+01  0.72168461721E+02 -0.97149351957E+03  0.99016894521E+03  0.17723711794E+03 0.  0.
         24    2    5    5    0    0  0.60689429550E+02  0.16784192690E+02 -0.43615660868E+03  0.44811772823E+03  0.81314175125E+02 0.  0.
          5    1    5    5  501    0 -0.64377064328E+02  0.55384269031E+02 -0.53533691089E+03  0.54205121698E+03  0.47000000000E+01 0. -1.
        -13    1    6    6    0    0  0.67860634051E+02  0.13697941609E+02 -0.19658094635E+03  0.20841489324E+03  0.00000000000E+00 0.  1.
         14    1    6    6    0    0 -0.71712045012E+01  0.30862510812E+01 -0.23957566233E+03  0.23970283499E+03  0.00000000000E+00 0. -1.
         -5    1    3    3    0  503 -0.63091547374E+02 -0.31079019605E+02 -0.21118197138E+03  0.22263504631E+03  0.47000000000E+01 0.  1.
         11    1    4    4    0    0  0.75451999709E+01  0.38937246618E+01 -0.24615209170E+01  0.88402612839E+01  0.00000000000E+00 0. -1.
        -12    1    4    4    0    0  0.59233982182E+02 -0.44983166779E+02 -0.53888760519E+03  0.54399632440E+03  0.00000000000E+00 0.  1.
</event>
<event>
12    1  0.9966151E-001  0.1928656E+03  0.7818608E-02  0.1156140E+00
         21   -1    0    0  503  502  0.00000000000E+00  0.00000000000E+00  0.24219202688E+04  0.24219202688E+04  0.00000000000E+00 0. -1.
         21   -1    0    0  501  503 -0.00000000000E+00 -0.00000000000E+00 -0.15322048639E+02  0.15322048639E+02  0.00000000000E+00 0. -1.
          6    2    1    2  501    0  0.73049279844E+01 -0.88432053762E+02  0.12754592147E+04  0.12899586609E+04  0.17124119917E+03 0.  0.
         24    2    3    3    0    0  0.19927367059E+02 -0.66281674562E+02  0.38125592088E+03  0.39537966160E+03  0.78604320862E+02 0.  0.
         -6    2    1    2    0  502 -0.73049279844E+01  0.88432053762E+02  0.11311390055E+04  0.11472836566E+04  0.17003161131E+03 0.  0.
        -24    2    5    5    0    0 -0.27554742884E+02  0.81547106362E+02  0.50003001500E+03  0.51579485592E+03  0.92763802632E+02 0.  0.
          5    1    3    3  501    0 -0.12622439075E+02 -0.22150379200E+02  0.89420329384E+03  0.89457899929E+03  0.47000000000E+01 0. -1.
        -13    1    4    4    0    0  0.11723145162E+02 -0.73803741197E+01  0.25956746084E+03  0.25993685538E+03  0.00000000000E+00 0.  1.
         14    1    4    4    0    0  0.82042218975E+01 -0.58901300443E+02  0.12168846004E+03  0.13544280622E+03  0.00000000000E+00 0. -1.
         -5    1    5    5    0  502  0.20249814900E+02  0.68849474002E+01  0.63110899047E+03  0.63148880066E+03  0.47000000000E+01 0.  1.
         13    1    6    6    0    0 -0.29100465187E+02 -0.11499039508E+02  0.17187706628E+03  0.17470200599E+03  0.00000000000E+00 0. -1.
        -14    1    6    6    0    0  0.15457223024E+01  0.93046145870E+02  0.32815294873E+03  0.34109284993E+03  0.00000000000E+00 0.  1.
</event>
<event>
12    1  0.9966151E-001  0.2652699E+03  0.7818608E-02  0.1104116E+00
         21   -1    0    0  501  502  0.00000000000E+00  0.00000000000E+00  0.40143930475E+02  0.40143930475E+02  0.00000000000E+00 0. -1.
         21   -1    0    0  502  503 -0.00000000000E+00 -0.00000000000E+00 -0.20013619850E+04  0.20013619850E+04  0.00000000000E+00 0. -1.
         -6    2    1    2    0  503  0.17838477279E+03 -0.95180693578E+02 -0.61665361593E+03  0.67102365154E+03  0.17067679190E+03 0.  0.
        -24    2    3    3    0    0  0.12034534904E+03 -0.22677925036E+02 -0.50354035248E+03  0.52459303137E+03  0.81533248835E+02 0.  0.
          6    2    1    2  501    0 -0.17838477279E+03  0.95180693578E+02 -0.13445644386E+04  0.13704822640E+04  0.17171958140E+03 0.  0.
         24    2    5    5    0    0 -0.58476267137E+02 -0.18831202596E+02 -0.55094509302E+03  0.55978471375E+03  0.77745367853E+02 0.  0.
          5    1    5    5  501    0 -0.11990850565E+03  0.11401189617E+03 -0.79361934562E+03  0.81069755023E+03  0.47000000000E+01 0. -1.
        -13    1    6    6    0    0 -0.23714873011E+02  0.20972971492E+02 -0.36801627823E+03  0.36937547533E+03  0.00000000000E+00 0.  1.
         14    1    6    6    0    0 -0.34761394126E+02 -0.39804174088E+02 -0.18292881479E+03  0.19040923842E+03  0.00000000000E+00 0. -1.
         -5    1    3    3    0  503  0.58039423748E+02 -0.72502768541E+02 -0.11311326345E+03  0.14643062017E+03  0.47000000000E+01 0.  1.
         13    1    4    4    0    0  0.10351217840E+03 -0.49797852764E+02 -0.37878189816E+03  0.39581602240E+03  0.00000000000E+00 0. -1.
        -14    1    4    4    0    0  0.16833170634E+02  0.27119927728E+02 -0.12475845433E+03  0.12877700897E+03  0.00000000000E+00 0.  1.
</event>
<event>
12    1  0.9966151E-001  0.2827001E+03  0.7818608E-02  0.1094442E+00
         21   -1    0    0  501  502  0.00000000000E+00  0.00000000000E+00  0.25736503729E+03  0.25736503729E+03  0.00000000000E+00 0.  1.
         21   -1    0    0  502  503 -0.00000000000E+00 -0.00000000000E+00 -0.31284432644E+03  0.31284432644E+03  0.00000000000E+00 0.  1.
         -6    2    1    2    0  503  0.35336671643E+02 -0.22154891626E+03 -0.60255677545E+02  0.28746889829E+03  0.16933699581E+03 0.  0.
        -24    2    3    3    0    0  0.84820109018E+02 -0.17454803160E+03 -0.32302165203E+02  0.21356908377E+03  0.83107505308E+02 0.  0.
          6    2    1    2  501    0 -0.35336671643E+02  0.22154891626E+03  0.47763883931E+01  0.28274046543E+03  0.17200800634E+03 0.  0.
         24    2    5    5    0    0  0.13145437034E+02  0.95261182695E+02  0.57842657221E+02  0.13735399632E+03  0.79201337540E+02 0.  0.
          5    1    5    5  501    0 -0.48482108676E+02  0.12628773357E+03 -0.53066268828E+02  0.14538646911E+03  0.47000000000E+01 0. -1.
        -11    1    6    6    0    0  0.10980112717E+02  0.57897200993E+02 -0.10096628549E+02  0.59787880596E+02  0.00000000000E+00 0.  1.
         12    1    6    6    0    0  0.21653243165E+01  0.37363981702E+02  0.67939285770E+02  0.77566115727E+02  0.00000000000E+00 0. -1.
         -5    1    3    3    0  503 -0.49483437375E+02 -0.47000884668E+02 -0.27953512342E+02  0.73899814522E+02  0.47000000000E+01 0.  1.
         13    1    4    4    0    0  0.77732559804E+02 -0.18269174409E+03 -0.24074962213E+02  0.19999557000E+03  0.00000000000E+00 0. -1.
        -14    1    4    4    0    0  0.70875492137E+01  0.81437124977E+01 -0.82272029901E+01  0.13573513773E+02  0.00000000000E+00 0.  1.
</event>
<event>
12    1  0.9966151E-001  0.1867562E+03  0.7818608E-02  0.1161950E+00
         21   -1    0    0  503  502  0.00000000000E+00  0.00000000000E+00  0.96975475907E+02  0.96975475907E+02  0.00000000000E+00 0.  1.
         21   -1    0    0  501  503 -0.00000000000E+00 -0.00000000000E+00 -0.64040456876E+03  0.64040456876E+03  0.00000000000E+00 0.  1.
          6    2    1    2  501    0 -0.65805931875E+02  0.18146141638E+02 -0.51679800815E+03  0.54873466580E+03  0.17137633763E+03 0.  0.
         24    2    3    3    0    0  0.19552893273E+02 -0.20483450509E+01 -0.20863612597E+03  0.22829780470E+03  0.90577829621E+02 0.  0.
         -6    2    1    2    0  502  0.65805931875E+02 -0.18146141638E+02 -0.26631084704E+02  0.18864537887E+03  0.17383371701E+03 0.  0.
        -24    2    5    5    0    0  0.37623740834E+02 -0.79365090511E+02 -0.55389232320E+01  0.11787133794E+03  0.78413067610E+02 0.  0.
          5    1    3    3  501    0 -0.85358825149E+02  0.20194486689E+02 -0.30816188218E+03  0.32043686110E+03  0.47000000000E+01 0. -1.
        -11    1    4    4    0    0 -0.18517458623E+02  0.30646736857E+02 -0.13139411808E+03  0.13618565644E+03  0.00000000000E+00 0.  1.
         12    1    4    4    0    0  0.38070351897E+02 -0.32695081908E+02 -0.77242007891E+02  0.92112148263E+02  0.00000000000E+00 0. -1.
         -5    1    5    5    0  502  0.28182191041E+02  0.61218948873E+02 -0.21092161472E+02  0.70774040923E+02  0.47000000000E+01 0.  1.
         11    1    6    6    0    0  0.60473824292E+02 -0.71156224594E+02 -0.26487270181E+01  0.93420059290E+02  0.00000000000E+00 0. -1.
        -12    1    6    6    0    0 -0.22850083458E+02 -0.82088659173E+01 -0.28901962139E+01  0.24451278654E+02  0.00000000000E+00 0.  1.
</event>
<event>
12    1  0.9966151E-001  0.2345887E+03  0.7818608E-02  0.1123476E+00
         21   -1    0    0  501  502  0.00000000000E+00  0.00000000000E+00  0.79569036171E+03  0.79569036171E+03  0.00000000000E+00 0. -1.
         21   -1    0    0  502  503 -0.00000000000E+00 -0.00000000000E+00 -0.85794668582E+02  0.85794668582E+02  0.00000000000E+00 0. -1.
         -6    2    1    2    0  503  0.23994071685E+02  0.15749110341E+03  0.54934912755E+03  0.59734102717E+03  0.17219952284E+03 0.  0.
        -24    2    3    3    0    0 -0.21596417460E+02  0.91609703524E+02  0.16979462998E+03  0.20939443526E+03  0.78467000188E+02 0.  0.
          6    2    1    2  501    0 -0.23994071685E+02 -0.15749110341E+03  0.16054656558E+03  0.28414400312E+03  0.17199840599E+03 0.  0.
         24    2    5    5    0    0  0.14809557760E+02 -0.15125063683E+03  0.68384076875E+02  0.18384106496E+03  0.77621369817E+02 0.  0.
          5    1    5    5  501    0 -0.38803629445E+02 -0.62404665804E+01  0.92162488702E+02  0.10030293817E+03  0.47000000000E+01 0. -1.
        -13    1    6    6    0    0  0.46237014463E+02 -0.79216325757E+02  0.42556094388E+02  0.10111433599E+03  0.00000000000E+00 0.  1.
         14    1    6    6    0    0 -0.31427456703E+02 -0.72034311072E+02  0.25827982487E+02  0.82726728968E+02  0.00000000000E+00 0. -1.
         -5    1    3    3    0  503  0.45590489145E+02  0.65881399885E+02  0.37955449757E+03  0.38794659191E+03  0.47000000000E+01 0.  1.
         11    1    4    4    0    0 -0.48279140161E+02  0.46262865557E+02  0.71439405650E+02  0.97850481776E+02  0.00000000000E+00 0. -1.
        -12    1    4    4    0    0  0.26682722702E+02  0.45346837967E+02  0.98355224335E+02  0.11154395348E+03  0.00000000000E+00 0.  1.
</event>
<event>
12    1  0.9966151E-001  0.2174870E+03  0.7818608E-02  0.1135992E+00
         21   -1    0    0  501  502  0.00000000000E+00  0.00000000000E+00  0.13468532677E+03  0.13468532677E+03  0.00000000000E+00 0. -1.
         21   -1    0    0  502  503 -0.00000000000E+00 -0.00000000000E+00 -0.36114310392E+03  0.36114310392E+03  0.00000000000E+00 0. -1.
         -6    2    1    2    0  503 -0.13142981302E+03 -0.20538284986E+02 -0.68644798422E+02  0.22806295874E+03  0.17206100052E+03 0.  0.
        -24    2    3    3    0    0 -0.73520916089E+02  0.53838166108E+02 -0.26116032348E+02  0.12454444462E+03  0.80779937539E+02 0.  0.
          6    2    1    2  501    0  0.13142981302E+03  0.20538284986E+02 -0.15781297873E+03  0.26776547195E+03  0.17058075746E+03 0.  0.
         24    2    5    5    0    0  0.10585199291E+03  0.45013687260E+02 -0.17745466925E+03  0.22700818789E+03  0.82532910339E+02 0.  0.
          5    1    5    5  501    0  0.25577820108E+02 -0.24475402274E+02  0.19641690515E+02  0.40757284063E+02  0.47000000000E+01 0. -1.
        -13    1    6    6    0    0  0.40588973712E+02  0.11656075160E+02 -0.88291435268E+01  0.43142585116E+02  0.00000000000E+00 0.  1.
         14    1    6    6    0    0  0.65263019197E+02  0.33357612100E+02 -0.16862552572E+03  0.18386560277E+03  0.00000000000E+00 0. -1.
         -5    1    3    3    0  503 -0.57908896927E+02 -0.74376451095E+02 -0.42528766075E+02  0.10351851411E+03  0.47000000000E+01 0.  1.
         13    1    4    4    0    0 -0.44429490093E+02  0.66569056348E+02  0.48628028092E+01  0.80181454865E+02  0.00000000000E+00 0. -1.
        -14    1    4    4    0    0 -0.29091425996E+02 -0.12730890240E+02 -0.30978835157E+02  0.44362989760E+02  0.00000000000E+00 0.  1.
</event>
<event>
12    1  0.9966151E-001  0.2748214E+03  0.7818608E-02  0.1098644E+00
         21   -1    0    0  503  502  0.00000000000E+00  0.00000000000E+00  0.32151181218E+03  0.32151181218E+03  0.00000000000E+00 0.  1.
         21   -1    0    0  501  503 -0.00000000000E+00 -0.00000000000E+00 -0.25184016095E+03  0.25184016095E+03  0.00000000000E+00 0. -1.
          6    2    1    2  501    0  0.84077891179E+02  0.19744073325E+03 -0.40678112651E+02  0.27781560110E+03  0.17168245232E+03 0.  0.
         24    2    3    3    0    0  0.71214071440E+02  0.14902893667E+03  0.34994188750E+02  0.18694444448E+03  0.80265585027E+02 0.  0.
         -6    2    1    2    0  502 -0.84077891179E+02 -0.19744073325E+03  0.11034976388E+03  0.29553637203E+03  0.17062456409E+03 0.  0.
        -24    2    5    5    0    0 -0.50113870671E+02 -0.21485753547E+03  0.10492755172E+03  0.25669837423E+03  0.78797865707E+02 0.  0.
          5    1    3    3  501    0  0.12863819739E+02  0.48411796586E+02 -0.75672301401E+02  0.90871156624E+02  0.47000000000E+01 0. -1.
        -13    1    4    4    0    0 -0.87480304975E+01  0.31037678405E+02  0.30429553019E+02  0.44337604979E+02  0.00000000000E+00 0.  1.
         14    1    4    4    0    0  0.79962101938E+02  0.11799125826E+03  0.45646357310E+01  0.14260683950E+03  0.00000000000E+00 0. -1.
         -5    1    5    5    0  502 -0.33964020508E+02  0.17416802215E+02  0.54222121655E+01  0.38837997801E+02  0.47000000000E+01 0.  1.
         13    1    6    6    0    0 -0.44668726156E+02 -0.45568007434E+02  0.39955653511E+02  0.75287400310E+02  0.00000000000E+00 0. -1.
        -14    1    6    6    0    0 -0.54451445146E+01 -0.16928952803E+03  0.64971898208E+02  0.18141097392E+03  0.00000000000E+00 0.  1.
</event>
<event>
12    1  0.9966151E-001  0.2169127E+03  0.7818608E-02  0.1136424E+00
         21   -1    0    0  501  502  0.00000000000E+00  0.00000000000E+00  0.98481732527E+02  0.98481732527E+02  0.00000000000E+00 0.  1.
         21   -1    0    0  502  503 -0.00000000000E+00 -0.00000000000E+00 -0.61180596358E+03  0.61180596358E+03  0.00000000000E+00 0. -1.
         -6    2    1    2    0  503 -0.10881062774E+03 -0.72224845735E+02 -0.88342502578E+02  0.23314976723E+03  0.17175050261E+03 0.  0.
        -24    2    3    3    0    0 -0.37246667472E+02 -0.85386462517E+02 -0.10116234867E+03  0.15911553852E+03  0.80036064315E+02 0.  0.
          6    2    1    2  501    0  0.10881062774E+03  0.72224845735E+02 -0.42498172847E+03  0.47713792888E+03  0.17319050952E+03 0.  0.
         24    2    5    5    0    0  0.10394115627E+03  0.94628347553E+02 -0.42332010798E+03  0.45367562659E+03  0.82845471867E+02 0.  0.
          5    1    5    5  501    0  0.48694714738E+01 -0.22403501818E+02 -0.16616204894E+01  0.23462302291E+02  0.47000000000E+01 0. -1.
        -13    1    6    6    0    0  0.24910831665E+02  0.32476530354E+02 -0.39412744963E+02  0.56821114241E+02  0.00000000000E+00 0.  1.
         14    1    6    6    0    0  0.79030324604E+02  0.62151817199E+02 -0.38390736302E+03  0.39685451235E+03  0.00000000000E+00 0. -1.
         -5    1    3    3    0  503 -0.71563960271E+02  0.13161616782E+02  0.12819846096E+02  0.74034228705E+02  0.47000000000E+01 0.  1.
         11    1    4    4    0    0 -0.25268965363E+02 -0.99294112004E+02 -0.74225586003E+02  0.12651987554E+03  0.00000000000E+00 0. -1.
        -12    1    4    4    0    0 -0.11977702108E+02  0.13907649487E+02 -0.26936762671E+02  0.32595662982E+02  0.00000000000E+00 0.  1.
</event>
<event>
12    1  0.9966151E-001  0.1916062E+03  0.7818608E-02  0.1157234E+00
         21   -1    0    0  501  502  0.00000000000E+00  0.00000000000E+00  0.24794181926E+02  0.24794181926E+02  0.00000000000E+00 0.  1.
         21   -1    0    0  502  503 -0.00000000000E+00 -0.00000000000E+00 -0.14798097534E+04  0.14798097534E+04  0.00000000000E+00 0. -1.
         -6    2    1    2    0  503  0.83385147261E+02 -0.24633325045E+01 -0.67599583578E+03  0.70236664643E+03  0.17143332591E+03 0.  0.
        -24    2    3    3    0    0 -0.25828679284E+02 -0.27099463369E+01 -0.25612263191E+03  0.26849648376E+03  0.76269880897E+02 0.  0.
          6    2    1    2  501    0 -0.83385147261E+02  0.24633325045E+01 -0.77901973565E+03  0.80223728885E+03  0.17249280652E+03 0.  0.
         24    2    5    5    0    0 -0.82299645973E+02  0.56464906805E+02 -0.42111037564E+03  0.44024481887E+03  0.80746731476E+02 0.  0.
          5    1    5    5  501    0 -0.10855012875E+01 -0.54001574300E+02 -0.35790936001E+03  0.36199246998E+03  0.47000000000E+01 0. -1.
        -13    1    6    6    0    0 -0.73245184609E+02  0.36251748718E+02 -0.40419862318E+03  0.41237794963E+03  0.00000000000E+00 0.  1.
         14    1    6    6    0    0 -0.90544613648E+01  0.20213158086E+02 -0.16911752454E+02  0.27866869244E+02  0.00000000000E+00 0. -1.
         -5    1    3    3    0  503  0.10921382655E+03  0.24661383245E+00 -0.41987320387E+03  0.43387016267E+03  0.47000000000E+01 0.  1.
         13    1    4    4    0    0 -0.14086096739E+02 -0.34430748348E+02 -0.19611798834E+03  0.19961502925E+03  0.00000000000E+00 0. -1.
        -14    1    4    4    0    0 -0.11742582546E+02  0.31720802011E+02 -0.60004643574E+02  0.68881454511E+02  0.00000000000E+00 0.  1.
</event>
<event>
12    1  0.9966151E-001  0.3060364E+03  0.7818608E-02  0.1082366E+00
         21   -1    0    0  503  502  0.00000000000E+00  0.00000000000E+00  0.38140500906E+03  0.38140500906E+03  0.00000000000E+00 0.  1.
         21   -1    0    0  501  503 -0.00000000000E+00 -0.00000000000E+00 -0.26425518949E+03  0.26425518949E+03  0.00000000000E+00 0.  1.
          6    2    1    2  501    0 -0.12248332652E+03  0.22103549465E+03  0.14607607002E+03  0.33911132431E+03  0.17262507602E+03 0.  0.
         24    2    3    3    0    0 -0.93848060066E+02  0.73755323625E+02  0.24845283196E+02  0.14615946260E+03  0.80610137506E+02 0.  0.
         -6    2    1    2    0  502  0.12248332652E+03 -0.22103549465E+03 -0.28926250445E+02  0.30654887424E+03  0.17110414712E+03 0.  0.
        -24    2    5    5    0    0  0.13177686651E+03 -0.19819139484E+03 -0.67020696723E+02  0.26092541954E+03  0.83338641906E+02 0.  0.
          5    1    3    3  501    0 -0.28635266450E+02  0.14728017103E+03  0.12123078682E+03  0.19295186171E+03  0.47000000000E+01 0. -1.
        -13    1    4    4    0    0 -0.12261223357E+02  0.36265323176E+02  0.39700109735E+02  0.55150793070E+02  0.00000000000E+00 0.  1.
         14    1    4    4    0    0 -0.81586836710E+02  0.37490000449E+02 -0.14854826539E+02  0.91008669529E+02  0.00000000000E+00 0. -1.
         -5    1    5    5    0  502 -0.92935399980E+01 -0.22844099814E+02  0.38094446278E+02  0.45623454705E+02  0.47000000000E+01 0.  1.
         13    1    6    6    0    0  0.55018741636E+02 -0.15381707622E+03 -0.39152428216E+02  0.16798710517E+03  0.00000000000E+00 0. -1.
        -14    1    6    6    0    0  0.76758124879E+02 -0.44374318618E+02 -0.27868268507E+02  0.92938314366E+02  0.00000000000E+00 0.  1.
</event>
<event>
12    1  0.9966151E-001  0.4062026E+03  0.7818608E-02  0.1041743E+00
         21   -1    0    0  503  502  0.00000000000E+00  0.00000000000E+00  0.29208696928E+03  0.29208696928E+03  0.00000000000E+00 0. -1.
         21   -1    0    0  501  503 -0.00000000000E+00 -0.00000000000E+00 -0.57497978202E+03  0.57497978202E+03  0.00000000000E+00 0.  1.
          6    2    1    2  501    0 -0.92305390666E+01 -0.36825693038E+03 -0.80182636596E+02  0.41404087288E+03  0.17117891102E+03 0.  0.
         24    2    3    3    0    0 -0.22984839754E+02 -0.26657803875E+03  0.12233988468E+02  0.27587177221E+03  0.66056117269E+02 0.  0.
         -6    2    1    2    0  502  0.92305390666E+01  0.36825693038E+03 -0.20271017614E+03  0.45302587843E+03  0.16864952235E+03 0.  0.
        -24    2    5    5    0    0 -0.53070731300E+02  0.26578966758E+03 -0.11655695649E+03  0.30529146981E+03  0.78464689606E+02 0.  0.
          5    1    3    3  501    0  0.13754300688E+02 -0.10167889164E+03 -0.92416625064E+02  0.13816910067E+03  0.47000000000E+01 0. -1.
        -11    1    4    4    0    0  0.16285654007E+02 -0.19573180222E+02  0.23278187742E+01  0.25568548075E+02  0.00000000000E+00 0.  1.
         12    1    4    4    0    0 -0.39270493761E+02 -0.24700485852E+03  0.99061696938E+01  0.25030322414E+03  0.00000000000E+00 0. -1.
         -5    1    5    5    0  502  0.62301270367E+02  0.10246726280E+03 -0.86153219655E+02  0.14773440862E+03  0.47000000000E+01 0.  1.
         13    1    6    6    0    0 -0.19275162511E+02  0.38523213626E+02 -0.50173866958E+02  0.66128562690E+02  0.00000000000E+00 0. -1.
        -14    1    6    6    0    0 -0.33795568789E+02  0.22726645396E+03 -0.66383089531E+02  0.23916290712E+03  0.00000000000E+00 0.  1.
</event>
<event>
12    1  0.9966151E-001  0.3065951E+03  0.7818608E-02  0.1082035E+00
         21   -1    0    0  501  502  0.00000000000E+00  0.00000000000E+00  0.11839240911E+03  0.11839240911E+03  0.00000000000E+00 0.  1.
         21   -1    0    0  502  503 -0.00000000000E+00 -0.00000000000E+00 -0.85302053862E+03  0.85302053862E+03  0.00000000000E+00 0.  1.
         -6    2    1    2    0  503 -0.24783316699E+03  0.57961231754E+02 -0.49636235929E+03  0.58341764785E+03  0.17093793338E+03 0.  0.
        -24    2    3    3    0    0 -0.87181752210E+02  0.60250145571E+01 -0.30867571972E+03  0.33092089065E+03  0.81184833604E+02 0.  0.
          6    2    1    2  501    0  0.24783316699E+03 -0.57961231754E+02 -0.23826577022E+03  0.38799529987E+03  0.17026154123E+03 0.  0.
         24    2    5    5    0    0  0.16041243875E+03 -0.88078163593E+02 -0.21344657326E+03  0.29214387398E+03  0.79364287047E+02 0.  0.
          5    1    5    5  501    0  0.87420728235E+02  0.30116931839E+02 -0.24819196955E+02  0.95851425895E+02  0.47000000000E+01 0. -1.
        -11    1    6    6    0    0  0.53431523273E+02  0.80421736987E+01 -0.75654459969E+02  0.92968820312E+02  0.00000000000E+00 0.  1.
         12    1    6    6    0    0  0.10698091548E+03 -0.96120337292E+02 -0.13779211329E+03  0.19917505367E+03  0.00000000000E+00 0. -1.
         -5    1    3    3    0  503 -0.16065141477E+03  0.51936217197E+02 -0.18768663957E+03  0.25249675721E+03  0.47000000000E+01 0.  1.
         11    1    4    4    0    0 -0.60542526289E+02 -0.25771077595E+02 -0.11182616981E+03  0.12974836486E+03  0.00000000000E+00 0. -1.
        -12    1    4    4    0    0 -0.26639225922E+02  0.31796092153E+02 -0.19684954990E+03  0.20117252579E+03  0.00000000000E+00 0.  1.
</event>
<event>
12    1  0.9966151E-001  0.3077882E+03  0.7818608E-02  0.1081585E+00
         21   -1    0    0  501  502  0.00000000000E+00  0.00000000000E+00  0.34276888901E+03  0.34276888901E+03  0.00000000000E+00 0.  1.
         21   -1    0    0  502  503 -0.00000000000E+00 -0.00000000000E+00 -0.40015547688E+03  0.40015547688E+03  0.00000000000E+00 0.  1.
         -6    2    1    2    0  503 -0.21098018618E+03 -0.14201019706E+03  0.17893108035E+03  0.35601952330E+03  0.17336099453E+03 0.  0.
        -24    2    3    3    0    0 -0.27171246619E+02 -0.39244154775E+02  0.25861033794E+02  0.95636891655E+02  0.78735263064E+02 0.  0.
          6    2    1    2  501    0  0.21098018618E+03  0.14201019706E+03 -0.23631766821E+03  0.38690484259E+03  0.17079163293E+03 0.  0.
         24    2    5    5    0    0  0.10775593155E+03  0.48953128160E+01 -0.93760564418E+02  0.16374490876E+03  0.79912745122E+02 0.  0.
          5    1    5    5  501    0  0.10322425463E+03  0.13711488424E+03 -0.14255710380E+03  0.22315993383E+03  0.47000000000E+01 0. -1.
        -11    1    6    6    0    0  0.74861968998E+02  0.78484227888E+01 -0.12860140793E+02  0.76362918775E+02  0.00000000000E+00 0.  1.
         12    1    6    6    0    0  0.32893962548E+02 -0.29531099728E+01 -0.80900423625E+02  0.87381989983E+02  0.00000000000E+00 0. -1.
         -5    1    3    3    0  503 -0.18380893956E+03 -0.10276604228E+03  0.15307004655E+03  0.26038263164E+03  0.47000000000E+01 0.  1.
         11    1    4    4    0    0 -0.46976517014E+02 -0.27991927756E+02  0.40947231088E+02  0.68315568534E+02  0.00000000000E+00 0. -1.
        -12    1    4    4    0    0  0.19805270395E+02 -0.11252227019E+02 -0.15086197294E+02  0.27321323122E+02  0.00000000000E+00 0.  1.
</event>
<event>
12    1  0.9966151E-001  0.7387629E+03  0.7818608E-02  0.9653180E-01
         21   -1    0    0  503  502  0.00000000000E+00  0.00000000000E+00  0.43330850254E+03  0.43330850254E+03  0.00000000000E+00 0. -1.
         21   -1    0    0  501  503 -0.00000000000E+00 -0.00000000000E+00 -0.22726193786E+04  0.22726193786E+04  0.00000000000E+00 0.  1.
          6    2    1    2  501    0 -0.31210604339E+02  0.71774181937E+03 -0.16238461817E+02  0.73885807975E+03  0.17181429879E+03 0.  0.
         24    2    3    3    0    0  0.35752139555E+02  0.24446287636E+03  0.18602880422E+02  0.25957426394E+03  0.77410709454E+02 0.  0.
         -6    2    1    2    0  502  0.31210604339E+02 -0.71774181937E+03 -0.18230724143E+04  0.19670698014E+04  0.17217187598E+03 0.  0.
        -24    2    5    5    0    0 -0.29899088773E+01 -0.67191667395E+03 -0.17316638056E+04  0.18591474090E+04  0.79300670111E+02 0.  0.
          5    1    3    3  501    0 -0.66962743894E+02  0.47327894301E+03 -0.34841342239E+02  0.47928381581E+03  0.47000000000E+01 0. -1.
        -11    1    4    4    0    0  0.12937452528E+02  0.23296737001E+03  0.15522635259E+02  0.23384209495E+03  0.00000000000E+00 0.  1.
         12    1    4    4    0    0  0.22814687028E+02  0.11495506352E+02  0.30802451637E+01  0.25732168986E+02  0.00000000000E+00 0. -1.
         -5    1    5    5    0  502  0.34200513216E+02 -0.45825145424E+02 -0.91408608641E+02  0.10792239244E+03  0.47000000000E+01 0.  1.
         13    1    6    6    0    0  0.80241907998E+01 -0.41484240325E+02 -0.16587581368E+03  0.17117276477E+03  0.00000000000E+00 0. -1.
        -14    1    6    6    0    0 -0.11014099677E+02 -0.63043243363E+03 -0.15657879919E+04  0.16879746442E+04  0.00000000000E+00 0.  1.
</event>
<event>
12    1  0.9966151E-001  0.1868211E+03  0.7818608E-02  0.1162015E+00
         21   -1    0    0  501  502  0.00000000000E+00  0.00000000000E+00  0.42967185275E+03  0.42967185275E+03  0.00000000000E+00 0.  1.
         21   -1    0    0  502  503 -0.00000000000E+00 -0.00000000000E+00 -0.24072161452E+03  0.24072161452E+03  0.00000000000E+00 0.  1.
         -6    2    1    2    0  503 -0.16312754455E+02 -0.66165528606E+02 -0.17916842779E+03  0.25885021011E+03  0.17394862065E+03 0.  0.
        -24    2    3    3    0    0 -0.71430932745E+02 -0.52780893518E+02 -0.15516319051E+03  0.19708044849E+03  0.82926995678E+02 0.  0.
          6    2    1    2  501    0  0.16312754455E+02  0.66165528606E+02  0.36811866601E+03  0.41154325716E+03  0.17091669642E+03 0.  0.
         24    2    5    5    0    0  0.88758532236E+01  0.50877561138E+02  0.37896018032E+03  0.39083920245E+03  0.80480785946E+02 0.  0.
          5    1    5    5  501    0  0.74369012313E+01  0.15287967467E+02 -0.10841514303E+02  0.20704054714E+02  0.47000000000E+01 0. -1.
        -13    1    6    6    0    0 -0.35439145680E+02  0.27355154674E+02  0.15550685388E+03  0.16182280167E+03  0.00000000000E+00 0.  1.
         14    1    6    6    0    0  0.44314998904E+02  0.23522406464E+02  0.22345332643E+03  0.22901640078E+03  0.00000000000E+00 0. -1.
         -5    1    3    3    0  503  0.55118178290E+02 -0.13384635087E+02 -0.24005237274E+02  0.61769761624E+02  0.47000000000E+01 0.  1.
         11    1    4    4    0    0 -0.18690706479E+02 -0.46902118319E+02 -0.24637672620E+02  0.56179766141E+02  0.00000000000E+00 0. -1.
        -12    1    4    4    0    0 -0.52740226266E+02 -0.58787751994E+01 -0.13052551789E+03  0.14090068234E+03  0.00000000000E+00 0.  1.
</event>
<event>
12    1  0.9966151E-001  0.3655903E+03  0.7818608E-02  0.1056566E+00
         21   -1    0    0  503  502  0.00000000000E+00  0.00000000000E+00  0.85525043507E+02  0.85525043507E+02  0.00000000000E+00 0. -1.
         21   -1    0    0  501  503 -0.00000000000E+00 -0.00000000000E+00 -0.18832626565E+04  0.18832626565E+04  0.00000000000E+00 0.  1.
          6    2    1    2  501    0 -0.14116586877E+03 -0.28744804224E+03 -0.13115731941E+04  0.13615728033E+04  0.17635780590E+03 0.  0.
         24    2    3    3    0    0 -0.15447793458E+03 -0.17230012503E+03 -0.78272784185E+03  0.82015267943E+03  0.80229532035E+02 0.  0.
         -6    2    1    2    0  502  0.14116586877E+03  0.28744804224E+03 -0.48616441887E+03  0.60721489668E+03  0.17262650169E+03 0.  0.
        -24    2    5    5    0    0  0.84908159911E+02  0.11870861197E+03 -0.14218240564E+03  0.21993768258E+03  0.82798656827E+02 0.  0.
          5    1    3    3  501    0  0.13312065802E+02 -0.11514791721E+03 -0.52884535224E+03  0.54142012386E+03  0.47000000000E+01 0. -1.
        -11    1    4    4    0    0  0.82350800207E+01 -0.19223695586E+02 -0.84878370101E+02  0.87416844635E+02  0.00000000000E+00 0.  1.
         12    1    4    4    0    0 -0.16271301460E+03 -0.15307642945E+03 -0.69784947175E+03  0.73273583479E+03  0.00000000000E+00 0. -1.
         -5    1    5    5    0  502  0.56257708862E+02  0.16873943027E+03 -0.34398201323E+03  0.38727721410E+03  0.47000000000E+01 0.  1.
         11    1    6    6    0    0  0.63546919102E+02  0.62726687801E+02 -0.13168971562E+03  0.15910697499E+03  0.00000000000E+00 0. -1.
        -12    1    6    6    0    0  0.21361240809E+02  0.55981924170E+02 -0.10492690014E+02  0.60830707594E+02  0.00000000000E+00 0.  1.
</event>
<event>
12    1  0.9966151E-001  0.1834055E+03  0.7818608E-02  0.1164692E+00
         21   -1    0    0  501  502  0.00000000000E+00  0.00000000000E+00  0.99535745497E+03  0.99535745497E+03  0.00000000000E+00 0. -1.
         21   -1    0    0  502  503 -0.00000000000E+00 -0.00000000000E+00 -0.39022911666E+02  0.39022911666E+02  0.00000000000E+00 0. -1.
         -6    2    1    2    0  503 -0.62805315752E+01 -0.65682904673E+02  0.28751502640E+03  0.34103146820E+03  0.17112534252E+03 0.  0.
        -24    2    3    3    0    0  0.58330099264E+02 -0.65243663821E+02  0.14683353294E+03  0.18615054894E+03  0.73707559481E+02 0.  0.
          6    2    1    2  501    0  0.62805315752E+01  0.65682904673E+02  0.66881951691E+03  0.69334889844E+03  0.17046835404E+03 0.  0.
         24    2    5    5    0    0 -0.55499881815E+02  0.67947179571E+02  0.37149200112E+03  0.38962585344E+03  0.78134132616E+02 0.  0.
          5    1    5    5  501    0  0.61780413390E+02 -0.22642748978E+01  0.29732751578E+03  0.30372304499E+03  0.47000000000E+01 0. -1.
        -11    1    6    6    0    0 -0.56653423932E+02  0.77478695630E+01  0.17330520104E+03  0.18249474687E+03  0.00000000000E+00 0.  1.
         12    1    6    6    0    0  0.11535421173E+01  0.60199310008E+02  0.19818680008E+03  0.20713110658E+03  0.00000000000E+00 0. -1.
         -5    1    3    3    0  503 -0.64610630839E+02 -0.43924085227E+00  0.14068149346E+03  0.15488091926E+03  0.47000000000E+01 0.  1.
         13    1    4    4    0    0  0.75244493741E+01  0.16167865201E+02  0.30644938813E+02  0.35456021751E+02  0.00000000000E+00 0. -1.
        -14    1    4    4    0    0  0.50805649890E+02 -0.81411529021E+02  0.11618859413E+03  0.15069452719E+03  0.00000000000E+00 0.  1.
</event>
<event>
12    1  0.9966151E-001  0.2099020E+03  0.7818608E-02  0.1141755E+00
         21   -1    0    0  503  502  0.00000000000E+00  0.00000000000E+00  0.25156325004E+03  0.25156325004E+03  0.00000000000E+00 0.  1.
         21   -1    0    0  501  503 -0.00000000000E+00 -0.00000000000E+00 -0.18197392064E+03  0.18197392064E+03  0.00000000000E+00 0.  1.
          6    2    1    2  501    0  0.23972153109E+02 -0.11597410157E+03 -0.86703666338E+01  0.20952062959E+03  0.17262404991E+03 0.  0.
         24    2    3    3    0    0  0.24852466694E+02  0.88804377701E+01  0.14742424016E+02  0.82399900704E+02  0.76654401664E+02 0.  0.
         -6    2    1    2    0  502 -0.23972153109E+02  0.11597410157E+03  0.78259696035E+02  0.22401654109E+03  0.17330370537E+03 0.  0.
        -24    2    5    5    0    0 -0.20222358450E+02  0.49713680909E+02 -0.26638365158E+02  0.99798194822E+02  0.79810295956E+02 0.  0.
          5    1    3    3  501    0 -0.88031358505E+00 -0.12485453934E+03 -0.23412790650E+02  0.12712072888E+03  0.47000000000E+01 0. -1.
        -13    1    4    4    0    0  0.39793803297E+02 -0.10332917939E+02  0.32387122813E+02  0.52337765505E+02  0.00000000000E+00 0.  1.
         14    1    4    4    0    0 -0.14941336603E+02  0.19213355709E+02 -0.17644698797E+02  0.30062135199E+02  0.00000000000E+00 0. -1.
         -5    1    5    5    0  502 -0.37497946583E+01  0.66260420662E+02  0.10489806119E+03  0.12421834626E+03  0.47000000000E+01 0.  1.
         11    1    6    6    0    0 -0.37227025979E+02  0.16955688924E+02  0.15533129076E+02  0.43756427517E+02  0.00000000000E+00 0. -1.
        -12    1    6    6    0    0  0.17004667529E+02  0.32757991985E+02 -0.42171494235E+02  0.56041767305E+02  0.00000000000E+00 0.  1.
</event>
<event>
12    1  0.9966151E-001  0.1832075E+03  0.7818608E-02  0.1164993E+00
         21   -1    0    0  503  502  0.00000000000E+00  0.00000000000E+00  0.40749976890E+02  0.40749976890E+02  0.00000000000E+00 0. -1.
         21   -1    0    0  501  503 -0.00000000000E+00 -0.00000000000E+00 -0.95220390405E+03  0.95220390405E+03  0.00000000000E+00 0. -1.
          6    2    1    2  501    0 -0.56280557769E+02  0.92732378106E+01 -0.64039500236E+03  0.66578735708E+03  0.17295534592E+03 0.  0.
         24    2    3    3    0    0 -0.35739329644E+02  0.26775106656E+01 -0.63747234416E+03  0.64351455752E+03  0.80346296859E+02 0.  0.
         -6    2    1    2    0  502  0.56280557769E+02 -0.92732378106E+01 -0.27105892480E+03  0.32716652386E+03  0.17410198016E+03 0.  0.
        -24    2    5    5    0    0  0.91952313568E+02 -0.31138047419E+02 -0.25064044276E+03  0.28037391259E+03  0.79775267735E+02 0.  0.
          5    1    3    3  501    0 -0.20541228125E+02  0.65957271450E+01 -0.29226581951E+01  0.22272799563E+02  0.47000000000E+01 0. -1.
        -13    1    4    4    0    0 -0.34793980474E+02  0.37149720946E+02 -0.45262961781E+03  0.45548248458E+03  0.00000000000E+00 0.  1.
         14    1    4    4    0    0 -0.94534916975E+00 -0.34472210280E+02 -0.18484272635E+03  0.18803207293E+03  0.00000000000E+00 0. -1.
         -5    1    5    5    0  502 -0.35671755800E+02  0.21864809608E+02 -0.20418482039E+02  0.46792611274E+02  0.47000000000E+01 0.  1.
         11    1    6    6    0    0  0.26314519151E+01  0.18534172479E+01 -0.11278295862E+03  0.11282887685E+03  0.00000000000E+00 0. -1.
        -12    1    6    6    0    0  0.89320861653E+02 -0.32991464667E+02 -0.13785748414E+03  0.16754503574E+03  0.00000000000E+00 0.  1.
</event>
<event>
12    1  0.9966151E-001  0.2004188E+03  0.7818608E-02  0.1150137E+00
         21   -1    0    0  501  502  0.00000000000E+00  0.00000000000E+00  0.12247176856E+03  0.12247176856E+03  0.00000000000E+00 0.  1.
         21   -1    0    0  502  503 -0.00000000000E+00 -0.00000000000E+00 -0.33370706044E+03  0.33370706044E+03  0.00000000000E+00 0.  1.
         -6    2    1    2    0  503 -0.40297090230E+02  0.89150541556E+02 -0.14884884224E+03  0.24964713548E+03  0.17491723722E+03 0.  0.
        -24    2    3    3    0    0  0.37814322357E+02  0.59379548681E+02 -0.44980910999E+02  0.11623670885E+03  0.80819776995E+02 0.  0.
          6    2    1    2  501    0  0.40297090230E+02 -0.89150541556E+02 -0.62386449640E+02  0.20653169352E+03  0.17085548509E+03 0.  0.
         24    2    5    5    0    0  0.14770939738E+02 -0.10201447152E+03  0.91912066659E+01  0.12931436427E+03  0.77540914790E+02 0.  0.
          5    1    5    5  501    0  0.25526150492E+02  0.12863929966E+02 -0.71577656306E+02  0.77217329243E+02  0.47000000000E+01 0. -1.
        -13    1    6    6    0    0  0.21313997011E+02 -0.13225129916E+02  0.28757061121E+02  0.38159652700E+02  0.00000000000E+00 0.  1.
         14    1    6    6    0    0 -0.65430572732E+01 -0.88789341606E+02 -0.19565854455E+02  0.91154711572E+02  0.00000000000E+00 0. -1.
         -5    1    3    3    0  503 -0.78111412587E+02  0.29770992876E+02 -0.10386793124E+03  0.13341042663E+03  0.47000000000E+01 0.  1.
         13    1    4    4    0    0 -0.23676700049E+02  0.27918309789E+02 -0.25014443762E+02  0.44336672670E+02  0.00000000000E+00 0. -1.
        -14    1    4    4    0    0  0.61491022406E+02  0.31461238891E+02 -0.19966467237E+02  0.71900036182E+02  0.00000000000E+00 0.  1.
</event>
<event>
12    1  0.9966151E-001  0.3060355E+03  0.7818608E-02  0.1082430E+00
         21   -1    0    0  501  502  0.00000000000E+00  0.00000000000E+00  0.22415268615E+03  0.22415268615E+03  0.00000000000E+00 0. -1.
         21   -1    0    0  502  503 -0.00000000000E+00 -0.00000000000E+00 -0.63152822971E+03  0.63152822971E+03  0.00000000000E+00 0.  1.
         -6    2    1    2    0  503  0.20916323592E+03  0.13980947817E+03  0.46585828156E+02  0.30819699779E+03  0.17181152642E+03 0.  0.
        -24    2    3    3    0    0  0.58921857256E+02  0.95775003879E+02 -0.16505455341E+02  0.13933579193E+03  0.80606427949E+02 0.  0.
          6    2    1    2  501    0 -0.20916323592E+03 -0.13980947817E+03 -0.45396137171E+03  0.54748391808E+03  0.17424627426E+03 0.  0.
         24    2    5    5    0    0 -0.40180012286E+02 -0.13324362651E+02 -0.17746405959E+03  0.19959504511E+03  0.80948857686E+02 0.  0.
          5    1    5    5  501    0 -0.16898322364E+03 -0.12648511552E+03 -0.27649731213E+03  0.34788887296E+03  0.47000000000E+01 0. -1.
        -13    1    6    6    0    0  0.25664248708E+01 -0.29197099549E+02 -0.13196049338E+03  0.13517628850E+03  0.00000000000E+00 0.  1.
         14    1    6    6    0    0 -0.42746437157E+02  0.15872736898E+02 -0.45503566206E+02  0.64418756614E+02  0.00000000000E+00 0. -1.
         -5    1    3    3    0  503  0.15024137867E+03  0.44034474292E+02  0.63091283497E+02  0.16886120586E+03  0.47000000000E+01 0.  1.
         11    1    4    4    0    0  0.58038506245E+02  0.32108655665E+02 -0.32239139558E+02  0.73748193844E+02  0.00000000000E+00 0. -1.
        -12    1    4    4    0    0  0.88335101140E+00  0.63666348214E+02  0.15733684217E+02  0.65587598088E+02  0.00000000000E+00 0.  1.
</event>
<event>
12    1  0.9966151E-001  0.1738211E+03  0.7818608E-02  0.1174073E+00
         21   -1    0    0  503  502  0.00000000000E+00  0.00000000000E+00  0.96563548817E+02  0.96563548817E+02  0.00000000000E+00 0.  1.
         21   -1    0    0  501  503 -0.00000000000E+00 -0.00000000000E+00 -0.31541370644E+03  0.31541370644E+03  0.00000000000E+00 0.  1.
          6    2    1    2  501    0  0.15053509085E+02  0.20443168660E+01 -0.87214739314E+02  0.19393675248E+03  0.17255221192E+03 0.  0.
         24    2    3    3    0    0  0.37877638077E+02 -0.47537655845E+02 -0.95421161806E+02  0.13854046873E+03  0.79960735159E+02 0.  0.
         -6    2    1    2    0  502 -0.15053509085E+02 -0.20443168660E+01 -0.13163541831E+03  0.21804050278E+03  0.17315597054E+03 0.  0.
        -24    2    5    5    0    0 -0.54666981187E+01 -0.26059163416E+02 -0.53304265161E-01  0.83859421643E+02  0.79520028739E+02 0.  0.
          5    1    3    3  501    0 -0.22824128992E+02  0.49581972711E+02  0.82064224920E+01  0.55396283741E+02  0.47000000000E+01 0. -1.
        -13    1    4    4    0    0  0.40384980081E+02 -0.64285854269E+02 -0.52235141037E+02  0.92152740786E+02  0.00000000000E+00 0.  1.
         14    1    4    4    0    0 -0.25073420036E+01  0.16748198424E+02 -0.43186020769E+02  0.46387727948E+02  0.00000000000E+00 0. -1.
         -5    1    5    5    0  502 -0.95868109664E+01  0.24014846550E+02 -0.13158211404E+03  0.13418108114E+03  0.47000000000E+01 0.  1.
         11    1    6    6    0    0 -0.21570755213E+02 -0.76389371455E+01 -0.34626255846E+02  0.41504559209E+02  0.00000000000E+00 0. -1.
        -12    1    6    6    0    0  0.16104057094E+02 -0.18420226271E+02  0.34572951581E+02  0.42354862434E+02  0.00000000000E+00 0.  1.
</event>
<event>
12    1  0.9966151E-001  0.1868979E+03  0.7818608E-02  0.1162005E+00
         21   -1    0    0  501  502  0.00000000000E+00  0.00000000000E+00  0.10345460289E+03  0.10345460289E+03  0.00000000000E+00 0. -1.
         21   -1    0    0  502  503 -0.00000000000E+00 -0.00000000000E+00 -0.48404378867E+03  0.48404378867E+03  0.00000000000E+00 0. -1.
         -6    2    1    2    0  503 -0.31361145279E+02 -0.54475412330E+02 -0.35378395786E+03  0.39868806288E+03  0.17273676697E+03 0.  0.
        -24    2    3    3    0    0  0.50822108697E+01  0.28283247838E+02 -0.23694041438E+03  0.25086513606E+03  0.77244971029E+02 0.  0.
          6    2    1    2  501    0  0.31361145279E+02  0.54475412330E+02 -0.26805227919E+02  0.18881032869E+03  0.17601059057E+03 0.  0.
         24    2    5    5    0    0  0.19470629900E+02  0.74300327940E+01 -0.81388642920E+02  0.11562500718E+03  0.79440041993E+02 0.  0.
          5    1    5    5  501    0  0.11890515379E+02  0.47045379536E+02  0.54583415002E+02  0.73185321513E+02  0.47000000000E+01 0. -1.
        -13    1    6    6    0    0  0.17077498262E+02  0.42953318585E+02 -0.41036405380E+02  0.61811124330E+02  0.00000000000E+00 0.  1.
         14    1    6    6    0    0  0.23931316379E+01 -0.35523285791E+02 -0.40352237540E+02  0.53813882846E+02  0.00000000000E+00 0. -1.
         -5    1    3    3    0  503 -0.36443356149E+02 -0.82758660168E+02 -0.11684354348E+03  0.14782292682E+03  0.47000000000E+01 0.  1.
         11    1    4    4    0    0 -0.10928089300E+02  0.52218463926E+02 -0.16335063149E+03  0.17184184566E+03  0.00000000000E+00 0. -1.
        -12    1    4    4    0    0  0.16010300169E+02 -0.23935216088E+02 -0.73589782884E+02  0.79023290399E+02  0.00000000000E+00 0.  1.
</event>
<event>
12    1  0.9966151E-001  0.1919611E+03  0.7818608E-02  0.1156858E+00
         21   -1    0    0  503  502  0.00000000000E+00  0.00000000000E+00  0.10367652797E+03  0.10367652797E+03  0.00000000000E+00 0. -1.
         21   -1    0    0  501  503 -0.00000000000E+00 -0.00000000000E+00 -0.42635429248E+03  0.42635429248E+03  0.00000000000E+00 0. -1.
          6    2    1    2  501    0 -0.58888256334E+02  0.59715401898E+02 -0.27063755357E+03  0.33180377918E+03  0.17267109345E+03 0.  0.
         24    2    3    3    0    0 -0.24301727731E+02 -0.34160928783E+02 -0.15420158569E+03  0.17821856491E+03  0.78906177361E+02 0.  0.
         -6    2    1    2    0  502  0.58888256334E+02 -0.59715401898E+02 -0.52040210933E+02  0.19822704128E+03  0.17190701085E+03 0.  0.
        -24    2    5    5    0    0  0.62170536956E+02 -0.48076620250E+02  0.30173301793E+02  0.11499611986E+03  0.78339915513E+02 0.  0.
          5    1    3    3  501    0 -0.34586528603E+02  0.93876330681E+02 -0.11643596789E+03  0.15358521426E+03  0.47000000000E+01 0. -1.
        -13    1    4    4    0    0  0.10448631921E+02  0.20975881914E+02 -0.31240782965E+02  0.39053143937E+02  0.00000000000E+00 0.  1.
         14    1    4    4    0    0 -0.34750359652E+02 -0.55136810697E+02 -0.12296080272E+03  0.13916542098E+03  0.00000000000E+00 0. -1.
         -5    1    5    5    0  502 -0.32822806223E+01 -0.11638781648E+02 -0.82213512726E+02  0.83230921412E+02  0.47000000000E+01 0.  1.
         13    1    6    6    0    0 -0.39101762108E+00 -0.10103405675E+02  0.39906632308E+02  0.41167596519E+02  0.00000000000E+00 0. -1.
        -14    1    6    6    0    0  0.62561554577E+02 -0.37973214576E+02 -0.97333305155E+01  0.73828523345E+02  0.00000000000E+00 0.  1.
</event>
<event>
12    1  0.9966151E-001  0.2002311E+03  0.7818608E-02  0.1149733E+00
         21   -1    0    0  503  502  0.00000000000E+00  0.00000000000E+00  0.13121048606E+03  0.13121048606E+03  0.00000000000E+00 0. -1.
         21   -1    0    0  501  503 -0.00000000000E+00 -0.00000000000E+00 -0.30421369926E+03  0.30421369926E+03  0.00000000000E+00 0. -1.
          6    2    1    2  501    0 -0.27790826839E+02 -0.98466975788E+02 -0.88271373686E+02  0.21882489940E+03  0.17211747677E+03 0.  0.
         24    2    3    3    0    0 -0.61241672109E+02 -0.11729336737E+03 -0.62733649819E+02  0.17248207461E+03  0.91138788741E+02 0.  0.
         -6    2    1    2    0  502  0.27790826839E+02  0.98466975788E+02 -0.84731839512E+02  0.21659928591E+03  0.17107802505E+03 0.  0.
        -24    2    5    5    0    0  0.56569864634E+02  0.10565447587E+02 -0.11576042958E+02  0.98579066265E+02  0.79196270541E+02 0.  0.
          5    1    3    3  501    0  0.33450845271E+02  0.18826391578E+02 -0.25537723867E+02  0.46342824790E+02  0.47000000000E+01 0. -1.
        -11    1    4    4    0    0  0.12667006849E+02 -0.80968517225E+01 -0.34503630597E+02  0.37636585853E+02  0.00000000000E+00 0.  1.
         12    1    4    4    0    0 -0.73908678959E+02 -0.10919651564E+03 -0.28230019222E+02  0.13484548876E+03  0.00000000000E+00 0. -1.
         -5    1    5    5    0  502 -0.28779037795E+02  0.87901528200E+02 -0.73155796554E+02  0.11802021965E+03  0.47000000000E+01 0.  1.
         11    1    6    6    0    0  0.70101263422E+02  0.19464128606E+02 -0.25630315820E+02  0.77135935366E+02  0.00000000000E+00 0. -1.
        -12    1    6    6    0    0 -0.13531398789E+02 -0.88986810182E+01  0.14054272862E+02  0.21443130899E+02  0.00000000000E+00 0.  1.
</event>
<event>
12    1  0.9966151E-001  0.3846327E+03  0.7818608E-02  0.1049256E+00
         21   -1    0    0  501  502  0.00000000000E+00  0.00000000000E+00  0.12347538338E+03  0.12347538338E+03  0.00000000000E+00 0.  1.
         21   -1    0    0  502  503 -0.00000000000E+00 -0.00000000000E+00 -0.12505565647E+04  0.12505565647E+04  0.00000000000E+00 0.  1.
         -6    2    1    2    0  503  0.10988570766E+03  0.32600432549E+03 -0.42209317522E+03  0.57105602399E+03  0.17201350232E+03 0.  0.
        -24    2    3    3    0    0  0.75248040542E+01  0.73723648000E+02 -0.94118822730E+02  0.14477846099E+03  0.81305910150E+02 0.  0.
          6    2    1    2  501    0 -0.10988570766E+03 -0.32600432549E+03 -0.70498800611E+03  0.80297592409E+03  0.17148923269E+03 0.  0.
         24    2    5    5    0    0 -0.13168705966E+03 -0.32585801683E+03 -0.67909497927E+03  0.76880196919E+03  0.79759313812E+02 0.  0.
          5    1    5    5  501    0  0.21801351996E+02 -0.14630865787E+00 -0.25893026832E+02  0.34173954901E+02  0.47000000000E+01 0. -1.
        -11    1    6    6    0    0 -0.62729359299E+02 -0.69859974844E+02 -0.14922182967E+03  0.17630241931E+03  0.00000000000E+00 0.  1.
         12    1    6    6    0    0 -0.68957700359E+02 -0.25599804199E+03 -0.52987314960E+03  0.59249954988E+03  0.00000000000E+00 0. -1.
         -5    1    3    3    0  503  0.10236090361E+03  0.25228067749E+03 -0.32797435249E+03  0.42627756300E+03  0.47000000000E+01 0.  1.
         13    1    4    4    0    0  0.81355372045E+01  0.63932407030E+02 -0.16479140453E+02  0.66521437931E+02  0.00000000000E+00 0. -1.
        -14    1    4    4    0    0 -0.61073315029E+00  0.97912409696E+01 -0.77639682277E+02  0.78257023064E+02  0.00000000000E+00 0.  1.
</event>
<event>
12    1  0.9966151E-001  0.2351492E+03  0.7818608E-02  0.1123550E+00
         21   -1    0    0  501  502  0.00000000000E+00  0.00000000000E+00  0.20548513903E+03  0.20548513903E+03  0.00000000000E+00 0.  1.
         21   -1    0    0  502  503 -0.00000000000E+00 -0.00000000000E+00 -0.26967813410E+03  0.26967813410E+03  0.00000000000E+00 0. -1.
         -6    2    1    2    0  503  0.13983846999E+03 -0.72854680390E+02 -0.60041292527E+02  0.23997744836E+03  0.17065056920E+03 0.  0.
        -24    2    3    3    0    0  0.10748002413E+03 -0.11552882040E+03 -0.60647929928E+02  0.18621306188E+03  0.78091414895E+02 0.  0.
          6    2    1    2  501    0 -0.13983846999E+03  0.72854680390E+02 -0.41517025421E+01  0.23518582477E+03  0.17444922870E+03 0.  0.
         24    2    5    5    0    0 -0.97963824904E+01  0.36895951454E+02 -0.38523647321E+02  0.95875038048E+02  0.79061186268E+02 0.  0.
          5    1    5    5  501    0 -0.13004208750E+03  0.35958728936E+02  0.34371944779E+02  0.13931078672E+03  0.47000000000E+01 0. -1.
        -11    1    6    6    0    0 -0.36301110326E+02  0.25127155394E+01  0.20604875358E+01  0.36446261250E+02  0.00000000000E+00 0.  1.
         12    1    6    6    0    0  0.26504727835E+02  0.34383235914E+02 -0.40584134857E+02  0.59428776797E+02  0.00000000000E+00 0. -1.
         -5    1    3    3    0  503  0.32358445860E+02  0.42674140012E+02  0.60663740090E+00  0.53764386476E+02  0.47000000000E+01 0.  1.
         13    1    4    4    0    0 -0.86585830731E+01 -0.27802394692E+02 -0.19197537135E+02  0.34878211587E+02  0.00000000000E+00 0. -1.
        -14    1    4    4    0    0  0.11613860720E+03 -0.87726425710E+02 -0.41450392792E+02  0.15133485030E+03  0.00000000000E+00 0.  1.
</event>
<event>
12    1  0.9966151E-001  0.4366422E+03  0.7818608E-02  0.1031870E+00
         21   -1    0    0  503  502  0.00000000000E+00  0.00000000000E+00  0.57866185638E+03  0.57866185638E+03  0.00000000000E+00 0.  1.
         21   -1    0    0  501  503 -0.00000000000E+00 -0.00000000000E+00 -0.33864829052E+03  0.33864829052E+03  0.00000000000E+00 0. -1.
          6    2    1    2  501    0  0.29978151325E+03  0.26655447925E+03  0.40957692375E+02  0.43743550714E+03  0.16956427761E+03 0.  0.
         24    2    3    3    0    0  0.18578580818E+03  0.20971612292E+03  0.82990573632E+02  0.30321750301E+03  0.80970365469E+02 0.  0.
         -6    2    1    2    0  502 -0.29978151325E+03 -0.26655447925E+03  0.19905587349E+03  0.47987463976E+03  0.17244182503E+03 0.  0.
        -24    2    5    5    0    0 -0.13654461352E+03 -0.61593423757E+02  0.41753450576E+02  0.17422539314E+03  0.78568159258E+02 0.  0.
          5    1    3    3  501    0  0.11399570507E+03  0.56838356330E+02 -0.42032881257E+02  0.13421800412E+03  0.47000000000E+01 0. -1.
        -11    1    4    4    0    0  0.92061309575E+00  0.41461037502E+02  0.15756261398E+02  0.44363554100E+02  0.00000000000E+00 0.  1.
         12    1    4    4    0    0  0.18486519509E+03  0.16825508542E+03  0.67234312234E+02  0.25885394891E+03  0.00000000000E+00 0. -1.
         -5    1    5    5    0  502 -0.16323689973E+03 -0.20496105550E+03  0.15730242292E+03  0.30564924662E+03  0.47000000000E+01 0.  1.
         11    1    6    6    0    0 -0.30848207713E+02 -0.15281257510E+02 -0.23475791761E+02  0.41668231891E+02  0.00000000000E+00 0. -1.
        -12    1    6    6    0    0 -0.10569640581E+03 -0.46312166247E+02  0.65229242337E+02  0.13255716125E+03  0.00000000000E+00 0.  1.
</event>
<event>
12    1  0.9966151E-001  0.2962672E+03  0.7818608E-02  0.1087314E+00
         21   -1    0    0  501  502  0.00000000000E+00  0.00000000000E+00  0.28340928658E+03  0.28340928658E+03  0.00000000000E+00 0. -1.
         21   -1    0    0  502  503 -0.00000000000E+00 -0.00000000000E+00 -0.32045985702E+03  0.32045985702E+03  0.00000000000E+00 0. -1.
         -6    2    1    2    0  503  0.20615194482E+03 -0.12241006817E+03  0.40748432396E+02  0.29755734834E+03  0.17145580091E+03 0.  0.
        -24    2    3    3    0    0  0.14258770229E+03 -0.28704729177E+02  0.71201571657E+02  0.18020920317E+03  0.79059969516E+02 0.  0.
          6    2    1    2  501    0 -0.20615194482E+03  0.12241006817E+03 -0.77799002834E+02  0.30631179526E+03  0.17404419533E+03 0.  0.
         24    2    5    5    0    0 -0.18617096102E+03  0.13624031379E+03 -0.10821239808E+03  0.26709980706E+03  0.80070806205E+02 0.  0.
          5    1    5    5  501    0 -0.19980983804E+02 -0.13830245623E+02  0.30413395246E+02  0.39211988195E+02  0.47000000000E+01 0. -1.
        -13    1    6    6    0    0 -0.13758199255E+02  0.44752963718E+02 -0.73382670449E+01  0.47391623432E+02  0.00000000000E+00 0.  1.
         14    1    6    6    0    0 -0.17241276176E+03  0.91487350072E+02 -0.10087413104E+03  0.21970818363E+03  0.00000000000E+00 0. -1.
         -5    1    3    3    0  503  0.63564242533E+02 -0.93705338990E+02 -0.30453139261E+02  0.11734814517E+03  0.47000000000E+01 0.  1.
         11    1    4    4    0    0  0.15222456889E+03 -0.22012988134E+02  0.65749240525E+02  0.16727179574E+03  0.00000000000E+00 0. -1.
        -12    1    4    4    0    0 -0.96368666058E+01 -0.66917410422E+01  0.54523311328E+01  0.12937407427E+02  0.00000000000E+00 0.  1.
</event>
<event>
12    1  0.9966151E-001  0.2103512E+03  0.7818608E-02  0.1141326E+00
         21   -1    0    0  503  502  0.00000000000E+00  0.00000000000E+00  0.22163201039E+03  0.22163201039E+03  0.00000000000E+00 0. -1.
         21   -1    0    0  501  503 -0.00000000000E+00 -0.00000000000E+00 -0.25963963147E+03  0.25963963147E+03  0.00000000000E+00 0. -1.
          6    2    1    2  501    0 -0.12009016682E+03 -0.18443964433E+02  0.96838524738E+02  0.23157139682E+03  0.17171425090E+03 0.  0.
         24    2    3    3    0    0 -0.91432859828E+02 -0.46602719129E+02  0.36716962235E+01  0.13000218571E+03  0.79720170912E+02 0.  0.
         -6    2    1    2    0  502  0.12009016682E+03  0.18443964433E+02 -0.13484614581E+03  0.24970024503E+03  0.17147857400E+03 0.  0.
        -24    2    5    5    0    0  0.36555121055E+02  0.69174551953E+02 -0.82564741710E+02  0.13876273291E+03  0.79478072189E+02 0.  0.
          5    1    3    3  501    0 -0.28657306990E+02  0.28158754696E+02  0.93166828515E+02  0.10156921111E+03  0.47000000000E+01 0. -1.
        -13    1    4    4    0    0  0.71524537965E-01 -0.30549678983E+02 -0.16810184404E+02  0.34869331817E+02  0.00000000000E+00 0.  1.
         14    1    4    4    0    0 -0.91504384366E+02 -0.16053040146E+02  0.20481880628E+02  0.95132853895E+02  0.00000000000E+00 0. -1.
         -5    1    5    5    0  502  0.83535045763E+02 -0.50730587520E+02 -0.52281404102E+02  0.11093751212E+03  0.47000000000E+01 0.  1.
         11    1    6    6    0    0  0.34917217226E+02  0.35611520044E+02 -0.91307869845E+02  0.10404095114E+03  0.00000000000E+00 0. -1.
        -12    1    6    6    0    0  0.16379038285E+01  0.33563031909E+02  0.87431281356E+01  0.34721781773E+02  0.00000000000E+00 0.  1.
</event>
<event>
12    1  0.9966151E-001  0.2138872E+03  0.7818608E-02  0.1138972E+00
         21   -1    0    0  501  502  0.00000000000E+00  0.00000000000E+00  0.19672982957E+03  0.19672982957E+03  0.00000000000E+00 0. -1.
         21   -1    0    0  502  503 -0.00000000000E+00 -0.00000000000E+00 -0.55773683955E+03  0.55773683955E+03  0.00000000000E+00 0. -1.
         -6    2    1    2    0  503  0.11927393173E+03 -0.47456664189E+02  0.10824628268E+03  0.23971857076E+03  0.17108281528E+03 0.  0.
        -24    2    3    3    0    0  0.11486810894E+03 -0.44429326397E+02  0.14265130196E+03  0.20458494869E+03  0.79605023593E+02 0.  0.
          6    2    1    2  501    0 -0.11927393173E+03  0.47456664189E+02 -0.46925329266E+03  0.51474809836E+03  0.16819199246E+03 0.  0.
         24    2    5    5    0    0 -0.13476735235E+03  0.96740384862E+01 -0.27851163394E+03  0.31962751191E+03  0.79606468620E+02 0.  0.
          5    1    5    5  501    0  0.15493420619E+02  0.37782625703E+02 -0.19074165872E+03  0.19512058645E+03  0.47000000000E+01 0. -1.
        -11    1    6    6    0    0 -0.51258406298E+02 -0.34203264647E+02 -0.93972894806E+02  0.11237523075E+03  0.00000000000E+00 0.  1.
         12    1    6    6    0    0 -0.83508946056E+02  0.43877303133E+02 -0.18453873914E+03  0.20725228115E+03  0.00000000000E+00 0. -1.
         -5    1    3    3    0  503  0.44058227929E+01 -0.30273377924E+01 -0.34405019279E+02  0.35133622076E+02  0.47000000000E+01 0.  1.
         11    1    4    4    0    0  0.28504023673E+02  0.53721299853E+01  0.84115621737E+02  0.88976271929E+02  0.00000000000E+00 0. -1.
        -12    1    4    4    0    0  0.86364085268E+02 -0.49801456382E+02  0.58535680225E+02  0.11560867676E+03  0.00000000000E+00 0.  1.
</event>
<event>
12    1  0.9966151E-001  0.2873411E+03  0.7818608E-02  0.1091810E+00
         21   -1    0    0  503  502  0.00000000000E+00  0.00000000000E+00  0.21834799458E+03  0.21834799458E+03  0.00000000000E+00 0. -1.
         21   -1    0    0  501  503 -0.00000000000E+00 -0.00000000000E+00 -0.37810234747E+03  0.37810234747E+03  0.00000000000E+00 0. -1.
          6    2    1    2  501    0  0.21587076713E+03  0.78381129967E+02 -0.68014471594E+02  0.29528098050E+03  0.17268786715E+03 0.  0.
         24    2    3    3    0    0  0.14661577694E+03  0.13382921046E+02  0.13044911532E+02  0.17032605094E+03  0.84649307652E+02 0.  0.
         -6    2    1    2    0  502 -0.21587076713E+03 -0.78381129967E+02 -0.91739881292E+02  0.30116936155E+03  0.17188074028E+03 0.  0.
        -24    2    5    5    0    0 -0.38427090459E+02 -0.51305571056E+02 -0.59011051979E+02  0.11865193621E+03  0.80542378964E+02 0.  0.
          5    1    3    3  501    0  0.69254990190E+02  0.64998208921E+02 -0.81059383125E+02  0.12495492956E+03  0.47000000000E+01 0. -1.
        -11    1    4    4    0    0  0.37015477282E+02 -0.91711433493E+01 -0.31921984009E+02  0.49731966498E+02  0.00000000000E+00 0.  1.
         12    1    4    4    0    0  0.10960029966E+03  0.22554064395E+02  0.44966895541E+02  0.12059408444E+03  0.00000000000E+00 0. -1.
         -5    1    5    5    0  502 -0.17744367667E+03 -0.27075558911E+02 -0.32728829313E+02  0.18251742533E+03  0.47000000000E+01 0.  1.
         13    1    6    6    0    0 -0.85732166361E+01  0.19917094012E+02 -0.28040984137E+02  0.35446966989E+02  0.00000000000E+00 0. -1.
        -14    1    6    6    0    0 -0.29853873823E+02 -0.71222665068E+02 -0.30970067842E+02  0.83204969225E+02  0.00000000000E+00 0.  1.
</event>
<event>
12    1  0.9966151E-001  0.2974463E+03  0.7818608E-02  0.1086608E+00
         21   -1    0    0  503  502  0.00000000000E+00  0.00000000000E+00  0.28489681672E+03  0.28489681672E+03  0.00000000000E+00 0. -1.
         21   -1    0    0  501  503 -0.00000000000E+00 -0.00000000000E+00 -0.36391248081E+03  0.36391248081E+03  0.00000000000E+00 0. -1.
          6    2    1    2  501    0  0.21657464159E+03  0.10836475568E+03 -0.16449518354E+03  0.33932415127E+03  0.17156549354E+03 0.  0.
         24    2    3    3    0    0  0.11792041259E+03  0.73409087356E+02 -0.25043049942E+02  0.16490069180E+03  0.85269959505E+02 0.  0.
         -6    2    1    2    0  502 -0.21657464159E+03 -0.10836475568E+03  0.85479519444E+02  0.30948514626E+03  0.17270440602E+03 0.  0.
        -24    2    5    5    0    0 -0.19042053421E+03 -0.31601072346E+02  0.31015611367E+02  0.21168377768E+03  0.81175402459E+02 0.  0.
          5    1    3    3  501    0  0.98654229000E+02  0.34955668329E+02 -0.13945213360E+03  0.17442345947E+03  0.47000000000E+01 0. -1.
        -11    1    4    4    0    0  0.93708731210E+02  0.29767813699E+02 -0.48639295594E+02  0.10969608067E+03  0.00000000000E+00 0.  1.
         12    1    4    4    0    0  0.24211681380E+02  0.43641273657E+02  0.23596245652E+02  0.55204611135E+02  0.00000000000E+00 0. -1.
         -5    1    5    5    0  502 -0.26154107381E+02 -0.76763683339E+02  0.54463908076E+02  0.97801368577E+02  0.47000000000E+01 0.  1.
         13    1    6    6    0    0 -0.65791659999E+02  0.22483603128E+02  0.30250693073E+02  0.75823211265E+02  0.00000000000E+00 0. -1.
        -14    1    6    6    0    0 -0.12462887421E+03 -0.54084675474E+02  0.76491829438E+00  0.13586056642E+03  0.00000000000E+00 0.  1.
</event>
<event>
12    1  0.9966151E-001  0.2458434E+03  0.7818608E-02  0.1116046E+00
         21   -1    0    0  503  502  0.00000000000E+00  0.00000000000E+00  0.36372504635E+03  0.36372504635E+03  0.00000000000E+00 0. -1.
         21   -1    0    0  501  503 -0.00000000000E+00 -0.00000000000E+00 -0.33461787599E+03  0.33461787599E+03  0.00000000000E+00 0. -1.
          6    2    1    2  501    0  0.11588149001E+03  0.13106091946E+03  0.26255064652E+03  0.35932254423E+03  0.17197198745E+03 0.  0.
         24    2    3    3    0    0  0.85992111405E+02  0.27772768849E+02  0.69750442474E+02  0.13851533038E+03  0.78456373935E+02 0.  0.
         -6    2    1    2    0  502 -0.11588149001E+03 -0.13106091946E+03 -0.23344347616E+03  0.33902037811E+03  0.17272369806E+03 0.  0.
        -24    2    5    5    0    0 -0.35599237084E+02  0.30044595824E+01 -0.10904255981E+03  0.13922937735E+03  0.78855609881E+02 0.  0.
          5    1    3    3  501    0  0.29889378609E+02  0.10328815061E+03  0.19280020404E+03  0.22080721385E+03  0.47000000000E+01 0. -1.
        -13    1    4    4    0    0  0.32335989964E+02  0.41308836773E+02  0.40504230099E+01  0.52615987770E+02  0.00000000000E+00 0.  1.
         14    1    4    4    0    0  0.53656121441E+02 -0.13536067924E+02  0.65700019464E+02  0.85899342608E+02  0.00000000000E+00 0. -1.
         -5    1    5    5    0  502 -0.80282252931E+02 -0.13406537904E+03 -0.12440091636E+03  0.19979100076E+03  0.47000000000E+01 0.  1.
         13    1    6    6    0    0 -0.19731876218E+02 -0.28198322531E+01  0.76270479834E+01  0.21341749084E+02  0.00000000000E+00 0. -1.
        -14    1    6    6    0    0 -0.15867360865E+02  0.58242918355E+01 -0.11666960779E+03  0.11788762826E+03  0.00000000000E+00 0.  1.
</event>
<event>
12    1  0.1155851E+000  0.2626712E+03  0.7818608E-02  0.1105577E+00
         21   -1    0    0  503  502  0.00000000000E+00  0.00000000000E+00  0.34683106207E+03  0.34683106207E+03  0.00000000000E+00 0. -1.
         21   -1    0    0  501  503 -0.00000000000E+00 -0.00000000000E+00 -0.36654111190E+03  0.36654111190E+03  0.00000000000E+00 0. -1.
          6    2    1    2  501    0 -0.19737000633E+03 -0.11406925140E+02  0.23144896136E+03  0.34994819933E+03  0.17265596764E+03 0.  0.
         24    2    3    3    0    0 -0.14253816227E+03 -0.78266608635E+02  0.16940982657E+03  0.24342265007E+03  0.64125716363E+02 0.  0.
         -6    2    1    2    0  502  0.19737000633E+03  0.11406925140E+02 -0.25115901120E+03  0.36342397464E+03  0.17294825554E+03 0.  0.
        -24    2    5    5    0    0  0.19885776223E+02  0.23395842395E+02 -0.90065703874E+02  0.12338745713E+03  0.78548227379E+02 0.  0.
          5    1    3    3  501    0 -0.54831844062E+02  0.66859683495E+02  0.62039134788E+02  0.10652554926E+03  0.47000000000E+01 0. -1.
        -11    1    4    4    0    0 -0.11049311686E+03 -0.26501085153E+02  0.10352464180E+03  0.15371528176E+03  0.00000000000E+00 0.  1.
         12    1    4    4    0    0 -0.32045045410E+02 -0.51765523482E+02  0.65885184771E+02  0.89707368309E+02  0.00000000000E+00 0. -1.
         -5    1    5    5    0  502  0.17748423011E+03 -0.11988917255E+02 -0.16109330732E+03  0.24003651751E+03  0.47000000000E+01 0.  1.
         13    1    6    6    0    0  0.11247368131E+01 -0.15004607073E+02 -0.77346604699E+02  0.78796576860E+02  0.00000000000E+00 0. -1.
        -14    1    6    6    0    0  0.18761039410E+02  0.38400449468E+02 -0.12719099175E+02  0.44590880266E+02  0.00000000000E+00 0.  1.
</event>
<event>
12    1  0.9966151E-001  0.1788116E+03  0.7818608E-02  0.1169180E+00
         21   -1    0    0  503  502  0.00000000000E+00  0.00000000000E+00  0.99737706297E+02  0.99737706297E+02  0.00000000000E+00 0.  1.
         21   -1    0    0  501  503 -0.00000000000E+00 -0.00000000000E+00 -0.35078542113E+03  0.35078542113E+03  0.00000000000E+00 0.  1.
          6    2    1    2  501    0  0.33275563705E+02 -0.27373801825E+02 -0.57373727220E+02  0.18692643543E+03  0.17260695096E+03 0.  0.
         24    2    3    3    0    0  0.62281824604E+02 -0.71733518540E+02 -0.48287849269E+02  0.13294689470E+03  0.79488597084E+02 0.  0.
         -6    2    1    2    0  502 -0.33275563705E+02  0.27373801825E+02 -0.19367398762E+03  0.26359669200E+03  0.17354254346E+03 0.  0.
        -24    2    5    5    0    0 -0.17716349299E+02  0.15132188792E+01 -0.16921545861E+02  0.84224524237E+02  0.80568436157E+02 0.  0.
          5    1    3    3  501    0 -0.29006260899E+02  0.44359716715E+02 -0.90858779515E+01  0.53979540722E+02  0.47000000000E+01 0. -1.
        -11    1    4    4    0    0  0.19620643467E+02 -0.32232473399E+02  0.20448597435E+02  0.42919076510E+02  0.00000000000E+00 0.  1.
         12    1    4    4    0    0  0.42661181137E+02 -0.39501045141E+02 -0.68736446704E+02  0.90027818194E+02  0.00000000000E+00 0. -1.
         -5    1    5    5    0  502 -0.15559214406E+02  0.25860582945E+02 -0.17675244175E+03  0.17937216777E+03  0.47000000000E+01 0.  1.
         11    1    6    6    0    0 -0.76452639066E+01  0.39594161111E+02  0.23073628574E+01  0.40391479023E+02  0.00000000000E+00 0. -1.
        -12    1    6    6    0    0 -0.10071085392E+02 -0.38080942232E+02 -0.19228908718E+02  0.43833045214E+02  0.00000000000E+00 0.  1.
</event>
<event>
12    1  0.9966151E-001  0.2343763E+03  0.7818608E-02  0.1123695E+00
         21   -1    0    0  501  502  0.00000000000E+00  0.00000000000E+00  0.10778465076E+03  0.10778465076E+03  0.00000000000E+00 0.  1.
         21   -1    0    0  502  503 -0.00000000000E+00 -0.00000000000E+00 -0.51545495211E+03  0.51545495211E+03  0.00000000000E+00 0.  1.
         -6    2    1    2    0  503  0.15787426585E+03  0.13352590051E+02 -0.24050440064E+03  0.33581932894E+03  0.17271270793E+03 0.  0.
        -24    2    3    3    0    0  0.30643835531E+02 -0.41461180804E+02 -0.10703314042E+03  0.14339064298E+03  0.80291401631E+02 0.  0.
          6    2    1    2  501    0 -0.15787426585E+03 -0.13352590051E+02 -0.16716590071E+03  0.28742027393E+03  0.17194010593E+03 0.  0.
         24    2    5    5    0    0 -0.98417983913E+01  0.14737431397E+01 -0.74520840206E+02  0.11209592077E+03  0.83145095543E+02 0.  0.
          5    1    5    5  501    0 -0.14803246746E+03 -0.14826333191E+02 -0.92645060505E+02  0.17532435317E+03  0.47000000000E+01 0. -1.
        -11    1    6    6    0    0 -0.29244059647E+02  0.25090567170E+02 -0.71704136468E+02  0.81401687772E+02  0.00000000000E+00 0.  1.
         12    1    6    6    0    0  0.19402261256E+02 -0.23616824030E+02 -0.28167037385E+01  0.30694232993E+02  0.00000000000E+00 0. -1.
         -5    1    3    3    0  503  0.12723043032E+03  0.54813770855E+02 -0.13347126022E+03  0.19242868596E+03  0.47000000000E+01 0.  1.
         13    1    4    4    0    0  0.14596235213E+02  0.15328909616E+02 -0.71359019923E+02  0.74432084996E+02  0.00000000000E+00 0. -1.
        -14    1    4    4    0    0  0.16047600318E+02 -0.56790090420E+02 -0.35674120499E+02  0.68958557984E+02  0.00000000000E+00 0.  1.
</event>
<event>
12    1  0.9966151E-001  0.2398138E+03  0.7818608E-02  0.1119950E+00
         21   -1    0    0  503  502  0.00000000000E+00  0.00000000000E+00  0.15556352474E+03  0.15556352474E+03  0.00000000000E+00 0. -1.
         21   -1    0    0  501  503 -0.00000000000E+00 -0.00000000000E+00 -0.37351841923E+03  0.37351841923E+03  0.00000000000E+00 0. -1.
          6    2    1    2  501    0 -0.16076096895E+01 -0.16672141835E+03 -0.81098563485E+02  0.25296549252E+03  0.17209284604E+03 0.  0.
         24    2    3    3    0    0 -0.53725126222E+02 -0.14947407744E+03 -0.86214664288E+02  0.19763041516E+03  0.79974518738E+02 0.  0.
         -6    2    1    2    0  502  0.16076096895E+01  0.16672141835E+03 -0.13685633100E+03  0.27611645145E+03  0.17237176010E+03 0.  0.
        -24    2    5    5    0    0 -0.53101166846E+02  0.15540022636E+03 -0.92414195184E+02  0.20457336615E+03  0.79629858677E+02 0.  0.
          5    1    3    3  501    0  0.52117516532E+02 -0.17247340915E+02  0.51161008025E+01  0.55335077352E+02  0.47000000000E+01 0. -1.
        -13    1    4    4    0    0 -0.70004096336E+02 -0.79490098690E+02 -0.53889195805E+02  0.11884146885E+03  0.00000000000E+00 0.  1.
         14    1    4    4    0    0  0.16278970114E+02 -0.69983978745E+02 -0.32325468483E+02  0.78788946316E+02  0.00000000000E+00 0. -1.
         -5    1    5    5    0  502  0.54708776535E+02  0.11321191991E+02 -0.44442135819E+02  0.71543085300E+02  0.47000000000E+01 0.  1.
         13    1    6    6    0    0  0.10826665804E+02 -0.19777592047E+01 -0.13079163479E+02  0.17093646224E+02  0.00000000000E+00 0. -1.
        -14    1    6    6    0    0 -0.63927832650E+02  0.15737798556E+03 -0.79335031704E+02  0.18747971992E+03  0.00000000000E+00 0.  1.
</event>
<event>
12    1  0.9966151E-001  0.2065080E+03  0.7818608E-02  0.1145371E+00
         21   -1    0    0  503  502  0.00000000000E+00  0.00000000000E+00  0.14097943272E+03  0.14097943272E+03  0.00000000000E+00 0. -1.
         21   -1    0    0  501  503 -0.00000000000E+00 -0.00000000000E+00 -0.52738083892E+03  0.52738083892E+03  0.00000000000E+00 0. -1.
          6    2    1    2  501    0 -0.54389988290E+02  0.10072389338E+03  0.29771586465E+02  0.20376851922E+03  0.16592675655E+03 0.  0.
         24    2    3    3    0    0 -0.94417506830E+02  0.95480540390E+02  0.32429922951E+01  0.15523449713E+03  0.77820517290E+02 0.  0.
         -6    2    1    2    0  502  0.54389988290E+02 -0.10072389338E+03 -0.41617299266E+03  0.46459175242E+03  0.17187775620E+03 0.  0.
        -24    2    5    5    0    0 -0.32945428874E+02 -0.63141068758E+02 -0.27252837260E+03  0.29226702793E+03  0.77949380359E+02 0.  0.
          5    1    3    3  501    0  0.40027518541E+02  0.52433529926E+01  0.26528594170E+02  0.48534022085E+02  0.47000000000E+01 0. -1.
        -13    1    4    4    0    0 -0.78847127743E+02  0.83481257941E+02 -0.28117255607E+02  0.11822254457E+03  0.00000000000E+00 0.  1.
         14    1    4    4    0    0 -0.15570379087E+02  0.11999282449E+02  0.31360247902E+02  0.37011952565E+02  0.00000000000E+00 0. -1.
         -5    1    5    5    0  502  0.87335417164E+02 -0.37582824624E+02 -0.14364462006E+03  0.17232472449E+03  0.47000000000E+01 0.  1.
         13    1    6    6    0    0 -0.10479359042E+02  0.82078184981E+01 -0.13549075453E+03  0.13614304908E+03  0.00000000000E+00 0. -1.
        -14    1    6    6    0    0 -0.22466069832E+02 -0.71348887256E+02 -0.13703761807E+03  0.15612397885E+03  0.00000000000E+00 0.  1.
</event>
<event>
12    1  0.9966151E-001  0.2067613E+03  0.7818608E-02  0.1144159E+00
         21   -1    0    0  503  502  0.00000000000E+00  0.00000000000E+00  0.36642425809E+03  0.36642425809E+03  0.00000000000E+00 0. -1.
         21   -1    0    0  501  503 -0.00000000000E+00 -0.00000000000E+00 -0.20081869856E+03  0.20081869856E+03  0.00000000000E+00 0. -1.
          6    2    1    2  501    0 -0.10412575895E+03  0.46564273118E+02 -0.10080302079E+03  0.23001342116E+03  0.17243700213E+03 0.  0.
         24    2    3    3    0    0 -0.10646934221E+03  0.22531990201E+02 -0.86637092124E+01  0.13464683506E+03  0.78811794302E+02 0.  0.
         -6    2    1    2    0  502  0.10412575895E+03 -0.46564273118E+02  0.26640858032E+03  0.33722953549E+03  0.17245237815E+03 0.  0.
        -24    2    5    5    0    0  0.28198743877E+02  0.32653013159E+02  0.77514491065E+02  0.11872700228E+03  0.78906376935E+02 0.  0.
          5    1    3    3  501    0  0.23435832636E+01  0.24032282918E+02 -0.92139311580E+02  0.95366586094E+02  0.47000000000E+01 0. -1.
        -13    1    4    4    0    0 -0.39607543170E+02 -0.27855529579E+02  0.85562116990E+01  0.49172113669E+02  0.00000000000E+00 0.  1.
         14    1    4    4    0    0 -0.66861799045E+02  0.50387519780E+02 -0.17219920911E+02  0.85474721393E+02  0.00000000000E+00 0. -1.
         -5    1    5    5    0  502  0.75927015074E+02 -0.79217286277E+02  0.18889408926E+03  0.21850253321E+03  0.47000000000E+01 0.  1.
         11    1    6    6    0    0 -0.66788348958E+01 -0.51532084946E+01 -0.12483785201E+02  0.15066760975E+02  0.00000000000E+00 0. -1.
        -12    1    6    6    0    0  0.34877578772E+02  0.37806221654E+02  0.89998276266E+02  0.10366024131E+03  0.00000000000E+00 0.  1.
</event>
<event>
12    1  0.9966151E-001  0.1754910E+03  0.7818608E-02  0.1172603E+00
         21   -1    0    0  503  502  0.00000000000E+00  0.00000000000E+00  0.87536764899E+03  0.87536764899E+03  0.00000000000E+00 0. -1.
         21   -1    0    0  501  503 -0.00000000000E+00 -0.00000000000E+00 -0.35210183848E+02  0.35210183848E+02  0.00000000000E+00 0. -1.
          6    2    1    2  501    0 -0.15497453031E+02  0.31043071070E+02  0.37512092340E+03  0.41353046500E+03  0.17055173702E+03 0.  0.
         24    2    3    3    0    0 -0.33048633143E+02  0.67112857760E+02  0.15535088528E+03  0.19008017279E+03  0.80001416866E+02 0.  0.
         -6    2    1    2    0  502  0.15497453031E+02 -0.31043071070E+02  0.46503654175E+03  0.49704736784E+03  0.17202690896E+03 0.  0.
        -24    2    5    5    0    0 -0.44795285856E+00 -0.36395093257E+02  0.47041087593E+03  0.47877516003E+03  0.81329319370E+02 0.  0.
          5    1    3    3  501    0  0.17551180112E+02 -0.36069786690E+02  0.21977003811E+03  0.22345029221E+03  0.47000000000E+01 0. -1.
        -11    1    4    4    0    0 -0.39277548125E+02  0.66353889258E+02  0.16292155297E+03  0.18024704388E+03  0.00000000000E+00 0.  1.
         12    1    4    4    0    0  0.62289149826E+01  0.75896850155E+00 -0.75706676819E+01  0.98331289119E+01  0.00000000000E+00 0. -1.
         -5    1    5    5    0  502  0.15945405890E+02  0.53520221869E+01 -0.53743341855E+01  0.18272207814E+02  0.47000000000E+01 0.  1.
         13    1    6    6    0    0  0.33478009169E+02  0.61000458290E+01  0.15282461123E+03  0.15656739589E+03  0.00000000000E+00 0. -1.
        -14    1    6    6    0    0 -0.33925962028E+02 -0.42495139086E+02  0.31758626470E+03  0.32220776414E+03  0.00000000000E+00 0.  1.
</event>
<event>
12    1  0.9966151E-001  0.3682266E+03  0.7818608E-02  0.1055379E+00
         21   -1    0    0  503  502  0.00000000000E+00  0.00000000000E+00  0.56560921009E+03  0.56560921009E+03  0.00000000000E+00 0. -1.
         21   -1    0    0  501  503 -0.00000000000E+00 -0.00000000000E+00 -0.38799453856E+03  0.38799453856E+03  0.00000000000E+00 0.  1.
          6    2    1    2  501    0  0.20918655284E+03 -0.24963719644E+03  0.38359954259E+03  0.53173251300E+03  0.17179380828E+03 0.  0.
         24    2    3    3    0    0  0.16431695093E+03 -0.15160434486E+03  0.34136266086E+03  0.41584564858E+03  0.80094940387E+02 0.  0.
         -6    2    1    2    0  502 -0.20918655284E+03  0.24963719644E+03 -0.20598487107E+03  0.42187123565E+03  0.17166196032E+03 0.  0.
        -24    2    5    5    0    0 -0.22334856552E+03  0.22081062580E+03 -0.14991364919E+03  0.35708230372E+03  0.79948453543E+02 0.  0.
          5    1    3    3  501    0  0.44869601912E+02 -0.98032851584E+02  0.42236881738E+02  0.11588686442E+03  0.47000000000E+01 0. -1.
        -13    1    4    4    0    0  0.81155235503E+01 -0.49561220756E+02  0.60044282170E+02  0.78278299334E+02  0.00000000000E+00 0.  1.
         14    1    4    4    0    0  0.15620142738E+03 -0.10204312410E+03  0.28131837869E+03  0.33756734925E+03  0.00000000000E+00 0. -1.
         -5    1    5    5    0  502  0.14162012680E+02  0.28826570639E+02 -0.56071221880E+02  0.64788931933E+02  0.47000000000E+01 0.  1.
         11    1    6    6    0    0 -0.52225245492E+02  0.59652583890E+02 -0.19132126096E+01  0.79306792987E+02  0.00000000000E+00 0. -1.
        -12    1    6    6    0    0 -0.17112332003E+03  0.16115804191E+03 -0.14800043658E+03  0.27777551073E+03  0.00000000000E+00 0.  1.
</event>
<event>
12    1  0.9966151E-001  0.5397276E+03  0.7818608E-02  0.1004179E+00
         21   -1    0    0  501  502  0.00000000000E+00  0.00000000000E+00  0.53210115951E+03  0.53210115951E+03  0.00000000000E+00 0. -1.
         21   -1    0    0  502  503 -0.00000000000E+00 -0.00000000000E+00 -0.54517099576E+03  0.54517099576E+03  0.00000000000E+00 0. -1.
         -6    2    1    2    0  503 -0.18599552106E+03  0.47063604093E+03 -0.42671829261E+02  0.53673342750E+03  0.17369303470E+03 0.  0.
        -24    2    3    3    0    0 -0.14307926141E+03  0.25185742182E+03 -0.79515732633E+02  0.31071251533E+03  0.79471249354E+02 0.  0.
          6    2    1    2  501    0  0.18599552106E+03 -0.47063604093E+03  0.29601993012E+02  0.54053872776E+03  0.18765186208E+03 0.  0.
         24    2    5    5    0    0  0.10964240541E+03 -0.41326324475E+03 -0.14653243537E+02  0.43517245245E+03  0.79701814886E+02 0.  0.
          5    1    5    5  501    0  0.76353115653E+02 -0.57372796178E+02  0.44255236549E+02  0.10536627531E+03  0.47000000000E+01 0. -1.
        -13    1    6    6    0    0  0.12075115146E+03 -0.34590917094E+03 -0.66401567918E+01  0.36643974512E+03  0.00000000000E+00 0.  1.
         14    1    6    6    0    0 -0.11108746049E+02 -0.67354073811E+02 -0.80130867456E+01  0.68732707330E+02  0.00000000000E+00 0. -1.
         -5    1    3    3    0  503 -0.42916259654E+02  0.21877861911E+03  0.36843903372E+02  0.22602091217E+03  0.47000000000E+01 0.  1.
         11    1    4    4    0    0 -0.10968642357E+02 -0.26954263530E+01 -0.11175509720E+02  0.15889255989E+02  0.00000000000E+00 0. -1.
        -12    1    4    4    0    0 -0.13211061905E+03  0.25455284817E+03 -0.68340222913E+02  0.29482325934E+03  0.00000000000E+00 0.  1.
</event>
<event>
12    1  0.9966151E-001  0.2158888E+03  0.7818608E-02  0.1137178E+00
         21   -1    0    0  501  502  0.00000000000E+00  0.00000000000E+00  0.88779467347E+02  0.88779467347E+02  0.00000000000E+00 0. -1.
         21   -1    0    0  502  503 -0.00000000000E+00 -0.00000000000E+00 -0.52624096564E+03  0.52624096564E+03  0.00000000000E+00 0. -1.
         -6    2    1    2    0  503 -0.25968451669E+02 -0.12592808573E+03 -0.24501876293E+03  0.32656114977E+03  0.17342360593E+03 0.  0.
        -24    2    3    3    0    0  0.21050482325E+02 -0.11941183905E+03 -0.23760812225E+03  0.27828849478E+03  0.79275194451E+02 0.  0.
          6    2    1    2  501    0  0.25968451669E+02  0.12592808573E+03 -0.19244273536E+03  0.28845928322E+03  0.17216941779E+03 0.  0.
         24    2    5    5    0    0  0.36680076868E+02  0.16157068223E+02 -0.14136512093E+03  0.16682282530E+03  0.78989105158E+02 0.  0.
          5    1    5    5  501    0 -0.10711625199E+02  0.10977101750E+03 -0.51077614435E+02  0.12163645792E+03  0.47000000000E+01 0. -1.
        -13    1    6    6    0    0 -0.43456575093E+01  0.16525265139E+02  0.24574161296E+01  0.17262908826E+02  0.00000000000E+00 0.  1.
         14    1    6    6    0    0  0.41025734377E+02 -0.36819691664E+00 -0.14382253706E+03  0.14955991648E+03  0.00000000000E+00 0. -1.
         -5    1    3    3    0  503 -0.47018933994E+02 -0.65162466750E+01 -0.74106406815E+01  0.48272654992E+02  0.47000000000E+01 0.  1.
         13    1    4    4    0    0  0.12908564633E+02 -0.11845997064E+03 -0.15617309911E+03  0.19644193180E+03  0.00000000000E+00 0. -1.
        -14    1    4    4    0    0  0.81419176923E+01 -0.95186841311E+00 -0.81435023142E+02  0.81846562978E+02  0.00000000000E+00 0.  1.
</event>
<event>
12    1  0.9966151E-001  0.2125885E+03  0.7818608E-02  0.1139625E+00
         21   -1    0    0  503  502  0.00000000000E+00  0.00000000000E+00  0.15630379116E+03  0.15630379116E+03  0.00000000000E+00 0.  1.
         21   -1    0    0  501  503 -0.00000000000E+00 -0.00000000000E+00 -0.29056924500E+03  0.29056924500E+03  0.00000000000E+00 0.  1.
          6    2    1    2  501    0 -0.10625523159E+03  0.65193721091E+02 -0.48177347772E+02  0.21751517073E+03  0.17161409368E+03 0.  0.
         24    2    3    3    0    0 -0.97882234542E+02  0.30379086070E+01 -0.77862242965E+02  0.14796853093E+03  0.79006306944E+02 0.  0.
         -6    2    1    2    0  502  0.10625523159E+03 -0.65193721091E+02 -0.86088106068E+02  0.22935786544E+03  0.17220183775E+03 0.  0.
        -24    2    5    5    0    0  0.13331919304E+03 -0.42624196158E+02 -0.90088350806E+02  0.19358170826E+03  0.98828829256E+02 0.  0.
          5    1    3    3  501    0 -0.83729970489E+01  0.62155812484E+02  0.29684895194E+02  0.69546639802E+02  0.47000000000E+01 0. -1.
        -13    1    4    4    0    0 -0.54851145640E+02 -0.16467425069E+02 -0.44243801210E+00  0.57271459016E+02  0.00000000000E+00 0.  1.
         14    1    4    4    0    0 -0.43031088903E+02  0.19505333676E+02 -0.77419804953E+02  0.90697071910E+02  0.00000000000E+00 0. -1.
         -5    1    5    5    0  502 -0.27063961445E+02 -0.22569524933E+02  0.40002447376E+01  0.35776157182E+02  0.47000000000E+01 0.  1.
         13    1    6    6    0    0  0.83895120540E+02 -0.56484023957E+02 -0.14441516759E+02  0.10216356307E+03  0.00000000000E+00 0. -1.
        -14    1    6    6    0    0  0.49424072496E+02  0.13859827799E+02 -0.75646834047E+02  0.91418145190E+02  0.00000000000E+00 0.  1.
</event>
<event>
12    1  0.9966151E-001  0.1795476E+03  0.7818608E-02  0.1168782E+00
         21   -1    0    0  501  502  0.00000000000E+00  0.00000000000E+00  0.28538591008E+02  0.28538591008E+02  0.00000000000E+00 0. -1.
         21   -1    0    0  502  503 -0.00000000000E+00 -0.00000000000E+00 -0.13013591364E+04  0.13013591364E+04  0.00000000000E+00 0. -1.
         -6    2    1    2    0  503  0.38378170920E+02 -0.20514674305E+02 -0.89092664996E+03  0.90883862210E+03  0.17419417197E+03 0.  0.
        -24    2    3    3    0    0  0.60102333612E+02  0.71601621201E+01 -0.26913484470E+03  0.28603449968E+03  0.75621504535E+02 0.  0.
          6    2    1    2  501    0 -0.38378170920E+02  0.20514674305E+02 -0.38189389539E+03  0.42105910527E+03  0.17191302140E+03 0.  0.
         24    2    5    5    0    0 -0.82736420426E+02 -0.41478783839E+01 -0.18470362337E+03  0.21738782800E+03  0.79243416860E+02 0.  0.
          5    1    5    5  501    0  0.44358249505E+02  0.24662552689E+02 -0.19719027202E+03  0.20367127727E+03  0.47000000000E+01 0. -1.
        -11    1    6    6    0    0 -0.49485706253E+02 -0.79664006403E+01 -0.17572721080E+03  0.18273574165E+03  0.00000000000E+00 0.  1.
         12    1    6    6    0    0 -0.33250714173E+02  0.38185222564E+01 -0.89764125677E+01  0.34652086341E+02  0.00000000000E+00 0. -1.
         -5    1    3    3    0  503 -0.21724162691E+02 -0.27674836425E+02 -0.62179180527E+03  0.62280412243E+03  0.47000000000E+01 0.  1.
         11    1    4    4    0    0 -0.60926602572E+01  0.20717855321E+02 -0.12494995995E+03  0.12680237589E+03  0.00000000000E+00 0. -1.
        -12    1    4    4    0    0  0.66194993869E+02 -0.13557693201E+02 -0.14418488474E+03  0.15923212379E+03  0.00000000000E+00 0.  1.
</event>
<event>
12    1  0.9966151E-001  0.4632708E+03  0.7818608E-02  0.1023846E+00
         21   -1    0    0  501  502  0.00000000000E+00  0.00000000000E+00  0.21928302211E+04  0.21928302211E+04  0.00000000000E+00 0.  1.
         21   -1    0    0  502  503 -0.00000000000E+00 -0.00000000000E+00 -0.11630826862E+03  0.11630826862E+03  0.00000000000E+00 0.  1.
         -6    2    1    2    0  503 -0.25471001789E+03 -0.34760992220E+03  0.14983791133E+04  0.15683621477E+04  0.17002943264E+03 0.  0.
        -24    2    3    3    0    0 -0.11046514810E+03 -0.22193847606E+03  0.67411946712E+03  0.72217898246E+03  0.75141138200E+02 0.  0.
          6    2    1    2  501    0  0.25471001789E+03  0.34760992220E+03  0.57814283914E+03  0.74077634196E+03  0.16967791587E+03 0.  0.
         24    2    5    5    0    0  0.13688387766E+03  0.21603908176E+03  0.23359719914E+03  0.35357139181E+03  0.70957711723E+02 0.  0.
          5    1    5    5  501    0  0.11782614023E+03  0.13157084045E+03  0.34454564000E+03  0.38720495015E+03  0.47000000000E+01 0. -1.
        -11    1    6    6    0    0  0.66694176343E+02  0.67807963981E+02  0.50236051579E+02  0.10756251213E+03  0.00000000000E+00 0.  1.
         12    1    6    6    0    0  0.70189701313E+02  0.14823111778E+03  0.18336114756E+03  0.24600887968E+03  0.00000000000E+00 0. -1.
         -5    1    3    3    0  503 -0.14424486979E+03 -0.12567144614E+03  0.82425964618E+03  0.84618316526E+03  0.47000000000E+01 0.  1.
         11    1    4    4    0    0 -0.79048062553E+02 -0.82203690833E+02  0.34134345727E+03  0.35989081511E+03  0.00000000000E+00 0. -1.
        -12    1    4    4    0    0 -0.31417085551E+02 -0.13973478523E+03  0.33277600985E+03  0.36228816735E+03  0.00000000000E+00 0.  1.
</event>
<event>
12    1  0.9966151E-001  0.2520281E+03  0.7818608E-02  0.1112216E+00
         21   -1    0    0  503  502  0.00000000000E+00  0.00000000000E+00  0.82319648938E+02  0.82319648938E+02  0.00000000000E+00 0.  1.
         21   -1    0    0  501  503 -0.00000000000E+00 -0.00000000000E+00 -0.15121974774E+04  0.15121974774E+04  0.00000000000E+00 0. -1.
          6    2    1    2  501    0 -0.15551384160E+03 -0.98425843049E+02 -0.15477848299E+03  0.29474925394E+03  0.17043632944E+03 0.  0.
         24    2    3    3    0    0 -0.36972531645E+02  0.13316291066E+02 -0.55488528572E+02  0.10391180544E+03  0.78577317352E+02 0.  0.
         -6    2    1    2    0  502  0.15551384160E+03  0.98425843049E+02 -0.12750993454E+04  0.12997678724E+04  0.17218007952E+03 0.  0.
        -24    2    5    5    0    0  0.10742246129E+03  0.12950347668E+03 -0.11175356219E+04  0.11320567602E+04  0.65999290971E+02 0.  0.
          5    1    3    3  501    0 -0.11854130995E+03 -0.11174213412E+03 -0.99289954416E+02  0.19083744850E+03  0.47000000000E+01 0. -1.
        -13    1    4    4    0    0  0.18284174996E+02 -0.82936679545E+01  0.33465851725E+01  0.20354253014E+02  0.00000000000E+00 0.  1.
         14    1    4    4    0    0 -0.55256706641E+02  0.21609959021E+02 -0.58835113744E+02  0.83557552424E+02  0.00000000000E+00 0. -1.
         -5    1    5    5    0  502  0.48091380307E+02 -0.31077633628E+02 -0.15756372351E+03  0.16771111215E+03  0.47000000000E+01 0.  1.
         13    1    6    6    0    0  0.31397943764E+02  0.83838619494E+02 -0.65568894463E+03  0.66177242093E+03  0.00000000000E+00 0. -1.
        -14    1    6    6    0    0  0.76024517530E+02  0.45664857183E+02 -0.46184667730E+03  0.47028433929E+03  0.00000000000E+00 0.  1.
</event>
<event>
12    1  0.9966151E-001  0.2628806E+03  0.7818608E-02  0.1105626E+00
         21   -1    0    0  503  502  0.00000000000E+00  0.00000000000E+00  0.68690791601E+03  0.68690791601E+03  0.00000000000E+00 0.  1.
         21   -1    0    0  501  503 -0.00000000000E+00 -0.00000000000E+00 -0.14789213725E+03  0.14789213725E+03  0.00000000000E+00 0.  1.
          6    2    1    2  501    0 -0.13496698711E+03  0.14550071494E+03  0.32668488013E+02  0.26490270532E+03  0.17239393122E+03 0.  0.
         24    2    3    3    0    0 -0.52984278384E+02  0.10704377252E+03 -0.40264666940E+02  0.14853502922E+03  0.78585676247E+02 0.  0.
         -6    2    1    2    0  502  0.13496698711E+03 -0.14550071494E+03  0.50634729074E+03  0.56989734794E+03  0.17031988342E+03 0.  0.
        -24    2    5    5    0    0  0.28634786963E+02 -0.40261432670E+02  0.30197828391E+03  0.31657813376E+03  0.81178179542E+02 0.  0.
          5    1    3    3  501    0 -0.81982708724E+02  0.38456942427E+02  0.72933154953E+02  0.11636767610E+03  0.47000000000E+01 0. -1.
        -13    1    4    4    0    0  0.31916021003E+00  0.90012040634E+00 -0.29232186724E+02  0.29247783175E+02  0.00000000000E+00 0.  1.
         14    1    4    4    0    0 -0.53303438594E+02  0.10614365211E+03 -0.11032480216E+02  0.11928724604E+03  0.00000000000E+00 0. -1.
         -5    1    5    5    0  502  0.10633220014E+03 -0.10523928227E+03  0.20436900683E+03  0.25331921418E+03  0.47000000000E+01 0.  1.
         13    1    6    6    0    0  0.14273167329E+01 -0.24528989282E+02  0.17014543969E+02  0.29886506231E+02  0.00000000000E+00 0. -1.
        -14    1    6    6    0    0  0.27207470230E+02 -0.15732443388E+02  0.28496373994E+03  0.28669162752E+03  0.00000000000E+00 0.  1.
</event>
<event>
12    1  0.9966151E-001  0.2193242E+03  0.7818608E-02  0.1134756E+00
         21   -1    0    0  503  502  0.00000000000E+00  0.00000000000E+00  0.11009467642E+03  0.11009467642E+03  0.00000000000E+00 0.  1.
         21   -1    0    0  501  503 -0.00000000000E+00 -0.00000000000E+00 -0.43326694784E+03  0.43326694784E+03  0.00000000000E+00 0.  1.
          6    2    1    2  501    0 -0.88700968537E+02  0.10231449606E+03 -0.16865726542E+03  0.27667378784E+03  0.17253113857E+03 0.  0.
         24    2    3    3    0    0 -0.60631518526E+02  0.12509176390E+02 -0.23557834652E+02  0.10367429572E+03  0.79754169085E+02 0.  0.
         -6    2    1    2    0  502  0.88700968537E+02 -0.10231449606E+03 -0.15451500600E+03  0.26668783643E+03  0.17003351757E+03 0.  0.
        -24    2    5    5    0    0  0.11376752611E+03 -0.46978556822E+02 -0.91811024059E+02  0.17925627559E+03  0.92485206380E+02 0.  0.
          5    1    3    3  501    0 -0.28069450011E+02  0.89805319671E+02 -0.14509943076E+03  0.17299949212E+03  0.47000000000E+01 0. -1.
        -11    1    4    4    0    0 -0.32891737112E+02  0.45840772649E+02 -0.54569327602E+01  0.56683515438E+02  0.00000000000E+00 0.  1.
         12    1    4    4    0    0 -0.27739781414E+02 -0.33331596259E+02 -0.18100901892E+02  0.46990780280E+02  0.00000000000E+00 0. -1.
         -5    1    5    5    0  502 -0.25066557575E+02 -0.55335939240E+02 -0.62703981941E+02  0.87431560843E+02  0.47000000000E+01 0.  1.
         13    1    6    6    0    0  0.27471102521E+02  0.11496920288E+02  0.12030879984E+02  0.32118261520E+02  0.00000000000E+00 0. -1.
        -14    1    6    6    0    0  0.86296423591E+02 -0.58475477110E+02 -0.10384190404E+03  0.14713801407E+03  0.00000000000E+00 0.  1.
</event>
<event>
12    1  0.9966151E-001  0.2217721E+03  0.7818608E-02  0.1132710E+00
         21   -1    0    0  501  502  0.00000000000E+00  0.00000000000E+00  0.90869903774E+02  0.90869903774E+02  0.00000000000E+00 0.  1.
         21   -1    0    0  502  503 -0.00000000000E+00 -0.00000000000E+00 -0.56512375093E+03  0.56512375093E+03  0.00000000000E+00 0.  1.
         -6    2    1    2    0  503  0.18114197810E+02 -0.13843105292E+03 -0.30674188073E+03  0.37806721053E+03  0.17132703729E+03 0.  0.
        -24    2    3    3    0    0  0.11597371250E+02 -0.21770808486E+02 -0.21180544645E+03  0.22744484096E+03  0.79127374610E+02 0.  0.
          6    2    1    2  501    0 -0.18114197810E+02  0.13843105292E+03 -0.16751196642E+03  0.27792644417E+03  0.17231241656E+03 0.  0.
         24    2    5    5    0    0 -0.64313146778E+02  0.47526793548E+02 -0.52448903847E+02  0.12410991181E+03  0.79103765663E+02 0.  0.
          5    1    5    5  501    0  0.46198948969E+02  0.90904259372E+02 -0.11506306258E+03  0.15381653236E+03  0.47000000000E+01 0. -1.
        -11    1    6    6    0    0 -0.59103513929E+02  0.67968720862E+02 -0.34643103178E+02  0.96504491980E+02  0.00000000000E+00 0.  1.
         12    1    6    6    0    0 -0.52096328487E+01 -0.20441927314E+02 -0.17805800669E+02  0.27605419834E+02  0.00000000000E+00 0. -1.
         -5    1    3    3    0  503  0.65168265592E+01 -0.11666024443E+03 -0.94936434284E+02  0.15062236957E+03  0.47000000000E+01 0.  1.
         11    1    4    4    0    0  0.42506350447E+02 -0.27338107261E+01 -0.78806967786E+02  0.89581257644E+02  0.00000000000E+00 0. -1.
        -12    1    4    4    0    0 -0.30908979196E+02 -0.19036997760E+02 -0.13299847866E+03  0.13786358332E+03  0.00000000000E+00 0.  1.
</event>
<event>
12    1  0.9966151E-001  0.2255518E+03  0.7818608E-02  0.1129870E+00
         21   -1    0    0  501  502  0.00000000000E+00  0.00000000000E+00  0.41315581420E+02  0.41315581420E+02  0.00000000000E+00 0.  1.
         21   -1    0    0  502  503 -0.00000000000E+00 -0.00000000000E+00 -0.14002923308E+04  0.14002923308E+04  0.00000000000E+00 0.  1.
         -6    2    1    2    0  503  0.11562640071E+03  0.86277006260E+02 -0.42734582811E+03  0.48306225364E+03  0.17294940804E+03 0.  0.
        -24    2    3    3    0    0  0.12823620506E+03  0.16287001033E+02 -0.31953447045E+03  0.35382221790E+03  0.79862966298E+02 0.  0.
          6    2    1    2  501    0 -0.11562640071E+03 -0.86277006260E+02 -0.93163092126E+03  0.95854565857E+03  0.17337940985E+03 0.  0.
         24    2    5    5    0    0 -0.13122127187E+00 -0.26218630001E+02 -0.17784237900E+03  0.19358461285E+03  0.71830750960E+02 0.  0.
          5    1    5    5  501    0 -0.11549517943E+03 -0.60058376258E+02 -0.75378854226E+03  0.76496104572E+03  0.47000000000E+01 0. -1.
        -13    1    6    6    0    0  0.84617652815E+00 -0.10108814888E+02  0.40900798501E+01  0.10937682860E+02  0.00000000000E+00 0.  1.
         14    1    6    6    0    0 -0.97739780002E+00 -0.16109815113E+02 -0.18193245885E+03  0.18264692999E+03  0.00000000000E+00 0. -1.
         -5    1    3    3    0  503 -0.12609804350E+02  0.69990005227E+02 -0.10781135766E+03  0.12924003574E+03  0.47000000000E+01 0.  1.
         11    1    4    4    0    0  0.57364803706E+02  0.41163243321E+02 -0.20534501025E+03  0.21714443704E+03  0.00000000000E+00 0. -1.
        -12    1    4    4    0    0  0.70871401350E+02 -0.24876242288E+02 -0.11418946021E+03  0.13667778086E+03  0.00000000000E+00 0.  1.
</event>
<event>
12    1  0.9966151E-001  0.2340042E+03  0.7818608E-02  0.1124049E+00
         21   -1    0    0  503  502  0.00000000000E+00  0.00000000000E+00  0.65516284944E+02  0.65516284944E+02  0.00000000000E+00 0.  1.
         21   -1    0    0  501  503 -0.00000000000E+00 -0.00000000000E+00 -0.83940820963E+03  0.83940820963E+03  0.00000000000E+00 0.  1.
          6    2    1    2  501    0 -0.37463845793E+02  0.15271122420E+03 -0.43111323752E+03  0.49052686269E+03  0.17330239963E+03 0.  0.
         24    2    3    3    0    0 -0.27151716427E+02  0.15248037049E+03 -0.22614620204E+03  0.28524664217E+03  0.78968747489E+02 0.  0.
         -6    2    1    2    0  502  0.37463845793E+02 -0.15271122420E+03 -0.34277868716E+03  0.41439763188E+03  0.17176702593E+03 0.  0.
        -24    2    5    5    0    0  0.77073995998E+02 -0.67006921992E+02 -0.14133432403E+03  0.19187546927E+03  0.80065448876E+02 0.  0.
          5    1    3    3  501    0 -0.10312129366E+02  0.23085371170E+00 -0.20496703548E+03  0.20528022052E+03  0.47000000000E+01 0. -1.
        -11    1    4    4    0    0 -0.41976728988E+01  0.14982485408E+03 -0.20480877403E+03  0.25379468331E+03  0.00000000000E+00 0.  1.
         12    1    4    4    0    0 -0.22954043528E+02  0.26555164110E+01 -0.21337428015E+02  0.31451958858E+02  0.00000000000E+00 0. -1.
         -5    1    5    5    0  502 -0.39610150205E+02 -0.85704302209E+02 -0.20144436313E+03  0.22252216261E+03  0.47000000000E+01 0.  1.
         13    1    6    6    0    0  0.52346917142E+02 -0.83366397460E+02 -0.12070529882E+03  0.15575597941E+03  0.00000000000E+00 0. -1.
        -14    1    6    6    0    0  0.24727078856E+02  0.16359475467E+02 -0.20629025216E+02  0.36119489859E+02  0.00000000000E+00 0.  1.
</event>
<event>
12    1  0.9966151E-001  0.2722541E+03  0.7818608E-02  0.1100085E+00
         21   -1    0    0  503  502  0.00000000000E+00  0.00000000000E+00  0.30670182023E+03  0.30670182023E+03  0.00000000000E+00 0.  1.
         21   -1    0    0  501  503 -0.00000000000E+00 -0.00000000000E+00 -0.29286669939E+03  0.29286669939E+03  0.00000000000E+00 0.  1.
          6    2    1    2  501    0 -0.17930961020E+03  0.10940133730E+03  0.13293705449E+03  0.30297611857E+03  0.17320992770E+03 0.  0.
         24    2    3    3    0    0 -0.11447940199E+03  0.91861818605E+02  0.16456785121E+03  0.22859071736E+03  0.60224672790E+02 0.  0.
         -6    2    1    2    0  502  0.17930961020E+03 -0.10940133730E+03 -0.11910193365E+03  0.29659240104E+03  0.17222425162E+03 0.  0.
        -24    2    5    5    0    0  0.15729819055E+03 -0.84231076057E+02 -0.24742585021E+02  0.19637353396E+03  0.78184233705E+02 0.  0.
          5    1    3    3  501    0 -0.64830208208E+02  0.17539518698E+02 -0.31630796719E+02  0.74385401213E+02  0.47000000000E+01 0. -1.
        -13    1    4    4    0    0  0.13920898918E+01 -0.46135539383E+01 -0.71008102012E+00  0.48710378015E+01  0.00000000000E+00 0.  1.
         14    1    4    4    0    0 -0.11587149188E+03  0.96475372543E+02  0.16527793223E+03  0.22371967956E+03  0.00000000000E+00 0. -1.
         -5    1    5    5    0  502  0.22011419640E+02 -0.25170261246E+02 -0.94359348632E+02  0.10021886709E+03  0.47000000000E+01 0.  1.
         13    1    6    6    0    0  0.10033592490E+03 -0.20778045049E+02  0.12692654962E+02  0.10324789815E+03  0.00000000000E+00 0. -1.
        -14    1    6    6    0    0  0.56962265654E+02 -0.63453031008E+02 -0.37435239983E+02  0.93125635811E+02  0.00000000000E+00 0.  1.
</event>
<event>
12    1  0.9966151E-001  0.6213780E+03  0.7818608E-02  0.9862046E-01
         21   -1    0    0  503  502  0.00000000000E+00  0.00000000000E+00  0.53580433217E+03  0.53580433217E+03  0.00000000000E+00 0.  1.
         21   -1    0    0  501  503 -0.00000000000E+00 -0.00000000000E+00 -0.91571367420E+03  0.91571367420E+03  0.00000000000E+00 0. -1.
          6    2    1    2  501    0  0.12346882817E+03  0.58398174163E+03 -0.52499369796E+03  0.81342701254E+03  0.17252795642E+03 0.  0.
         24    2    3    3    0    0  0.50451306286E+02  0.43740091359E+03 -0.45105204944E+03  0.63368565660E+03  0.65151105571E+02 0.  0.
         -6    2    1    2    0  502 -0.12346882817E+03 -0.58398174163E+03  0.14508435593E+03  0.63809099383E+03  0.17271774658E+03 0.  0.
        -24    2    5    5    0    0  0.73647372471E+00 -0.24512992742E+03  0.35958400732E+02  0.26102591574E+03  0.82172370033E+02 0.  0.
          5    1    3    3  501    0  0.73017521885E+02  0.14658082803E+03 -0.73941648520E+02  0.17974135594E+03  0.47000000000E+01 0. -1.
        -13    1    4    4    0    0  0.64125579880E+02  0.29708252364E+03 -0.31660683698E+03  0.43887356388E+03  0.00000000000E+00 0.  1.
         14    1    4    4    0    0 -0.13674273594E+02  0.14031838995E+03 -0.13444521246E+03  0.19481209272E+03  0.00000000000E+00 0. -1.
         -5    1    5    5    0  502 -0.12420530190E+03 -0.33885181421E+03  0.10912595520E+03  0.37706507809E+03  0.47000000000E+01 0.  1.
         11    1    6    6    0    0  0.38894068824E+02 -0.14185097033E+03  0.33712608490E+02  0.15090058431E+03  0.00000000000E+00 0. -1.
        -12    1    6    6    0    0 -0.38157595100E+02 -0.10327895709E+03  0.22457922429E+01  0.11012533144E+03  0.00000000000E+00 0.  1.
</event>
<event>
12    1  0.9966151E-001  0.3378876E+03  0.7818608E-02  0.1067723E+00
         21   -1    0    0  501  502  0.00000000000E+00  0.00000000000E+00  0.21621492454E+03  0.21621492454E+03  0.00000000000E+00 0.  1.
         21   -1    0    0  502  503 -0.00000000000E+00 -0.00000000000E+00 -0.97653204648E+03  0.97653204648E+03  0.00000000000E+00 0. -1.
         -6    2    1    2    0  503  0.16027840862E+03 -0.24316220764E+03  0.24226954717E+02  0.33853537045E+03  0.17088658291E+03 0.  0.
        -24    2    3    3    0    0  0.14102541710E+02 -0.63055258768E+02  0.26817239848E+02  0.10651231842E+03  0.80317260169E+02 0.  0.
          6    2    1    2  501    0 -0.16027840862E+03  0.24316220764E+03 -0.78454407665E+03  0.85421160057E+03  0.17132140218E+03 0.  0.
         24    2    5    5    0    0 -0.82512750757E+02  0.16863571098E+03 -0.65350294934E+03  0.68451904536E+03  0.79081360676E+02 0.  0.
          5    1    5    5  501    0 -0.77765657860E+02  0.74526496662E+02 -0.13104112731E+03  0.16969255521E+03  0.47000000000E+01 0. -1.
        -13    1    6    6    0    0 -0.56352269433E+02  0.14961353892E+03 -0.43136633269E+03  0.46003989205E+03  0.00000000000E+00 0.  1.
         14    1    6    6    0    0 -0.26160481324E+02  0.19022172055E+02 -0.22213661665E+03  0.22447915331E+03  0.00000000000E+00 0. -1.
         -5    1    3    3    0  503  0.14617586691E+03 -0.18010694887E+03 -0.25902851312E+01  0.23202305203E+03  0.47000000000E+01 0.  1.
         11    1    4    4    0    0  0.28548402262E+02 -0.32047748251E+02  0.49463264698E+02  0.65488044666E+02  0.00000000000E+00 0. -1.
        -12    1    4    4    0    0 -0.14445860552E+02 -0.31007510517E+02 -0.22646024849E+02  0.41024273753E+02  0.00000000000E+00 0.  1.
</event>
<event>
12    1  0.9966151E-001  0.3056938E+03  0.7818608E-02  0.1082441E+00
         21   -1    0    0  503  502  0.00000000000E+00  0.00000000000E+00  0.36775706147E+02  0.36775706147E+02  0.00000000000E+00 0. -1.
         21   -1    0    0  501  503 -0.00000000000E+00 -0.00000000000E+00 -0.27842085657E+04  0.27842085657E+04  0.00000000000E+00 0. -1.
          6    2    1    2  501    0  0.77358061702E+02 -0.24070819352E+03 -0.95592396420E+03  0.10035815033E+04  0.17164062533E+03 0.  0.
         24    2    3    3    0    0  0.11182944948E+03 -0.16589217740E+03 -0.78243159195E+03  0.81146849989E+03  0.79094184006E+02 0.  0.
         -6    2    1    2    0  502 -0.77358061702E+02  0.24070819352E+03 -0.17915088953E+04  0.18174027685E+04  0.17182548386E+03 0.  0.
        -24    2    5    5    0    0 -0.43987326126E+02  0.91324220957E+02 -0.11691425004E+04  0.11764728216E+04  0.83181222030E+02 0.  0.
          5    1    3    3  501    0 -0.34471387774E+02 -0.74816016125E+02 -0.17349237226E+03  0.19211300340E+03  0.47000000000E+01 0. -1.
        -11    1    4    4    0    0  0.50974712693E+02 -0.13744103157E+03 -0.49228653282E+03  0.51364821511E+03  0.00000000000E+00 0.  1.
         12    1    4    4    0    0  0.60854736784E+02 -0.28451145827E+02 -0.29014505913E+03  0.29782028478E+03  0.00000000000E+00 0. -1.
         -5    1    5    5    0  502 -0.33370735576E+02  0.14938397257E+03 -0.62236639497E+03  0.64092994690E+03  0.47000000000E+01 0.  1.
         13    1    6    6    0    0 -0.17965432111E+02  0.95597230130E+02 -0.71781230589E+03  0.72437289682E+03  0.00000000000E+00 0. -1.
        -14    1    6    6    0    0 -0.26021894015E+02 -0.42730091737E+01 -0.45133019446E+03  0.45209992480E+03  0.00000000000E+00 0.  1.
</event>
<event>
12    1  0.9966151E-001  0.1968961E+03  0.7818608E-02  0.1152654E+00
         21   -1    0    0  501  502  0.00000000000E+00  0.00000000000E+00  0.19793420332E+03  0.19793420332E+03  0.00000000000E+00 0.  1.
         21   -1    0    0  502  503 -0.00000000000E+00 -0.00000000000E+00 -0.24356294778E+03  0.24356294778E+03  0.00000000000E+00 0.  1.
         -6    2    1    2    0  503  0.53005025763E+02  0.75462175390E+02  0.76195424006E+02  0.20996053690E+03  0.17255031656E+03 0.  0.
        -24    2    3    3    0    0  0.18075680112E+02 -0.50788357400E+01  0.89075371965E+02  0.12110730555E+03  0.79875107406E+02 0.  0.
          6    2    1    2  501    0 -0.53005025763E+02 -0.75462175390E+02 -0.12182416847E+03  0.23153661420E+03  0.17396552251E+03 0.  0.
         24    2    5    5    0    0 -0.49163329473E+02  0.79999793691E+01 -0.93304296256E+01  0.91330975281E+02  0.75981955055E+02 0.  0.
          5    1    5    5  501    0 -0.38416962899E+01 -0.83462154759E+02 -0.11249373884E+03  0.14020563892E+03  0.47000000000E+01 0. -1.
        -11    1    6    6    0    0 -0.43313068863E+02 -0.28714591989E+02 -0.14107248909E+02  0.53847601610E+02  0.00000000000E+00 0.  1.
         12    1    6    6    0    0 -0.58502606102E+01  0.36714571358E+02  0.47768192832E+01  0.37483373670E+02  0.00000000000E+00 0. -1.
         -5    1    3    3    0  503  0.34929345651E+02  0.80541011130E+02 -0.12879947959E+02  0.88853231348E+02  0.47000000000E+01 0.  1.
         13    1    4    4    0    0 -0.35548633149E+01  0.30716791662E+02  0.11528500335E+02  0.33000979730E+02  0.00000000000E+00 0. -1.
        -14    1    4    4    0    0  0.21630543426E+02 -0.35795627402E+02  0.77546871630E+02  0.88106325821E+02  0.00000000000E+00 0.  1.
</event>
<event>
12    1  0.9966151E-001  0.1923761E+03  0.7818608E-02  0.1158117E+00
         21   -1    0    0  501  502  0.00000000000E+00  0.00000000000E+00  0.28598512680E+03  0.28598512680E+03  0.00000000000E+00 0.  1.
         21   -1    0    0  502  503 -0.00000000000E+00 -0.00000000000E+00 -0.16057277309E+03  0.16057277309E+03  0.00000000000E+00 0.  1.
         -6    2    1    2    0  503  0.16269104834E+02  0.65140427244E+02 -0.42563359348E+02  0.19702845017E+03  0.18027925999E+03 0.  0.
        -24    2    3    3    0    0  0.11254479540E+02  0.10802242388E+02 -0.96346231971E+02  0.12026601021E+03  0.70270655663E+02 0.  0.
          6    2    1    2  501    0 -0.16269104834E+02 -0.65140427244E+02  0.16797571306E+03  0.24952944972E+03  0.17187538238E+03 0.  0.
         24    2    5    5    0    0 -0.77492719159E+02 -0.46850948775E+02  0.12072252950E+03  0.16991921590E+03  0.78092751757E+02 0.  0.
          5    1    5    5  501    0  0.61223614325E+02 -0.18289478470E+02  0.47253183553E+02  0.79610233825E+02  0.47000000000E+01 0. -1.
        -11    1    6    6    0    0 -0.77863278771E+02 -0.24333446407E+02  0.12266579165E+03  0.14731497968E+03  0.00000000000E+00 0.  1.
         12    1    6    6    0    0  0.37055961144E+00 -0.22517502367E+02 -0.19432621495E+01  0.22604236220E+02  0.00000000000E+00 0. -1.
         -5    1    3    3    0  503  0.50146252946E+01  0.54338184856E+02  0.53782872623E+02  0.76762439955E+02  0.47000000000E+01 0.  1.
         13    1    4    4    0    0 -0.14528332440E+02  0.25655461870E+02 -0.82183668683E+02  0.87312258964E+02  0.00000000000E+00 0. -1.
        -14    1    4    4    0    0  0.25782811980E+02 -0.14853219481E+02 -0.14162563289E+02  0.32953751250E+02  0.00000000000E+00 0.  1.
</event>
<event>
12    1  0.9966151E-001  0.1834196E+03  0.7818608E-02  0.1165611E+00
         21   -1    0    0  503  502  0.00000000000E+00  0.00000000000E+00  0.85318401767E+03  0.85318401767E+03  0.00000000000E+00 0. -1.
         21   -1    0    0  501  503 -0.00000000000E+00 -0.00000000000E+00 -0.41650164304E+02  0.41650164304E+02  0.00000000000E+00 0. -1.
          6    2    1    2  501    0 -0.25026648602E+02  0.61365512141E+02  0.28680961171E+03  0.34044458099E+03  0.17102836062E+03 0.  0.
         24    2    3    3    0    0  0.24352946591E+02  0.50707678932E+02  0.74997604688E+02  0.12264111419E+03  0.79068751548E+02 0.  0.
         -6    2    1    2    0  502  0.25026648602E+02 -0.61365512141E+02  0.52472424166E+03  0.55438960099E+03  0.16619338337E+03 0.  0.
        -24    2    5    5    0    0 -0.28645709340E+02 -0.74177807019E+02  0.43014928206E+03  0.44479311432E+03  0.80557966515E+02 0.  0.
          5    1    3    3  501    0 -0.49379595193E+02  0.10657833209E+02  0.21181200702E+03  0.21780346679E+03  0.47000000000E+01 0. -1.
        -11    1    4    4    0    0 -0.29013519368E+02  0.20693185828E+02  0.31150550525E+02  0.47332325570E+02  0.00000000000E+00 0.  1.
         12    1    4    4    0    0  0.53366465959E+02  0.30014493104E+02  0.43847054163E+02  0.75308788623E+02  0.00000000000E+00 0. -1.
         -5    1    5    5    0  502  0.53672357942E+02  0.12812294878E+02  0.94574959601E+02  0.10959648667E+03  0.47000000000E+01 0.  1.
         13    1    6    6    0    0  0.14834046943E+02 -0.64323157844E+02  0.20833580754E+03  0.21854364847E+03  0.00000000000E+00 0. -1.
        -14    1    6    6    0    0 -0.43479756283E+02 -0.98546491752E+01  0.22181347452E+03  0.22624946584E+03  0.00000000000E+00 0.  1.
</event>
<event>
12    1  0.9966151E-001  0.1332146E+04  0.7818608E-02  0.9004499E-01
         21   -1    0    0  501  502  0.00000000000E+00  0.00000000000E+00  0.93926952048E+03  0.93926952048E+03  0.00000000000E+00 0. -1.
         21   -1    0    0  502  503 -0.00000000000E+00 -0.00000000000E+00 -0.19145594296E+04  0.19145594296E+04  0.00000000000E+00 0.  1.
         -6    2    1    2    0  503 -0.11337016932E+04  0.67810742405E+03 -0.65238956625E+03  0.14831073746E+04  0.16995920330E+03 0.  0.
        -24    2    3    3    0    0 -0.45161743878E+03  0.22674337721E+03 -0.20769899046E+03  0.55211852877E+03  0.79530679942E+02 0.  0.
          6    2    1    2  501    0  0.11337016932E+04 -0.67810742405E+03 -0.32290034289E+03  0.13707215755E+04  0.17176669704E+03 0.  0.
         24    2    5    5    0    0  0.37870474497E+03 -0.28585254895E+03 -0.12784999481E+03  0.49782352460E+03  0.79709954601E+02 0.  0.
          5    1    5    5  501    0  0.75499694826E+03 -0.39225487510E+03 -0.19505034808E+03  0.87289805087E+03  0.47000000000E+01 0. -1.
        -11    1    6    6    0    0  0.30275130102E+03 -0.20367474323E+03 -0.12560275250E+03  0.38589869491E+03  0.00000000000E+00 0.  1.
         12    1    6    6    0    0  0.75953443947E+02 -0.82177805725E+02 -0.22472423046E+01  0.11192482968E+03  0.00000000000E+00 0. -1.
         -5    1    3    3    0  503 -0.68208425445E+03  0.45136404684E+03 -0.44469057579E+03  0.93098884588E+03  0.47000000000E+01 0.  1.
         11    1    4    4    0    0 -0.48902960416E+02  0.14871389270E+01 -0.31505259244E+02  0.58191859222E+02  0.00000000000E+00 0. -1.
        -12    1    4    4    0    0 -0.40271447836E+03  0.22525623828E+03 -0.17619373122E+03  0.49392666954E+03  0.00000000000E+00 0.  1.
</event>
<event>
12    1  0.9966151E-001  0.2171295E+03  0.7818608E-02  0.1136238E+00
         21   -1    0    0  501  502  0.00000000000E+00  0.00000000000E+00  0.31853227618E+03  0.31853227618E+03  0.00000000000E+00 0. -1.
         21   -1    0    0  502  503 -0.00000000000E+00 -0.00000000000E+00 -0.21279299943E+03  0.21279299943E+03  0.00000000000E+00 0. -1.
         -6    2    1    2    0  503 -0.12928477556E+03  0.26682192838E+02  0.20033768916E+03  0.29543254691E+03  0.17239114672E+03 0.  0.
        -24    2    3    3    0    0 -0.27317883464E+02 -0.31754446054E+02  0.44908225402E+02  0.10051590818E+03  0.79574414780E+02 0.  0.
          6    2    1    2  501    0  0.12928477556E+03 -0.26682192838E+02 -0.94598412415E+02  0.23589272870E+03  0.17108485386E+03 0.  0.
         24    2    5    5    0    0  0.11083875454E+03 -0.36119725371E+02 -0.23041586778E+01  0.14118453484E+03  0.79610926777E+02 0.  0.
          5    1    5    5  501    0  0.18446021013E+02  0.94375325331E+01 -0.92294253737E+02  0.94708193861E+02  0.47000000000E+01 0. -1.
        -13    1    6    6    0    0  0.11156930598E+03 -0.36907217329E+02 -0.23599983146E+02  0.11986163662E+03  0.00000000000E+00 0.  1.
         14    1    6    6    0    0 -0.73055143753E+00  0.78749195806E+00  0.21295824469E+02  0.21322898227E+02  0.00000000000E+00 0. -1.
         -5    1    3    3    0  503 -0.10196689209E+03  0.58436638892E+02  0.15542946376E+03  0.19491663873E+03  0.47000000000E+01 0.  1.
         11    1    4    4    0    0 -0.12897130155E+02 -0.36011509531E+02  0.65000579454E+02  0.75420422396E+02  0.00000000000E+00 0. -1.
        -12    1    4    4    0    0 -0.14420753309E+02  0.42570634776E+01 -0.20092354052E+02  0.25095485785E+02  0.00000000000E+00 0.  1.
</event>
<event>
12    1  0.9966151E-001  0.2331165E+03  0.7818608E-02  0.1124992E+00
         21   -1    0    0  501  502  0.00000000000E+00  0.00000000000E+00  0.25482788195E+03  0.25482788195E+03  0.00000000000E+00 0.  1.
         21   -1    0    0  502  503 -0.00000000000E+00 -0.00000000000E+00 -0.22066647102E+03  0.22066647102E+03  0.00000000000E+00 0.  1.
         -6    2    1    2    0  503 -0.15247528974E+03  0.21930361767E+02 -0.34065820547E+02  0.23259879508E+03  0.17091537261E+03 0.  0.
        -24    2    3    3    0    0 -0.11665081861E+03  0.74822715284E+02 -0.43275552534E+02  0.16788478612E+03  0.84301101761E+02 0.  0.
          6    2    1    2  501    0  0.15247528974E+03 -0.21930361767E+02  0.68227231476E+02  0.24289555790E+03  0.17496754608E+03 0.  0.
         24    2    5    5    0    0  0.10904095385E+02 -0.32758074402E+02  0.34520117810E+01  0.86762404728E+02  0.79522372664E+02 0.  0.
          5    1    5    5  501    0  0.14157119435E+03  0.10827712636E+02  0.64775219694E+02  0.15613315317E+03  0.47000000000E+01 0. -1.
        -11    1    6    6    0    0 -0.16095605070E+02  0.13184870075E+02  0.22053995940E+02  0.30319763165E+02  0.00000000000E+00 0.  1.
         12    1    6    6    0    0  0.26999700455E+02 -0.45942944478E+02 -0.18601984159E+02  0.56442641563E+02  0.00000000000E+00 0. -1.
         -5    1    3    3    0  503 -0.35824471129E+02 -0.52892353518E+02  0.92097319871E+01  0.64714008959E+02  0.47000000000E+01 0.  1.
         11    1    4    4    0    0 -0.74334195890E+02  0.96943957635E+01 -0.49713534266E+02  0.89949927610E+02  0.00000000000E+00 0. -1.
        -12    1    4    4    0    0 -0.42316622720E+02  0.65128319521E+02  0.64379817317E+01  0.77934858509E+02  0.00000000000E+00 0.  1.
</event>
<event>
12    1  0.9966151E-001  0.2097857E+03  0.7818608E-02  0.1142951E+00
         21   -1    0    0  501  502  0.00000000000E+00  0.00000000000E+00  0.23577097682E+03  0.23577097682E+03  0.00000000000E+00 0.  1.
         21   -1    0    0  502  503 -0.00000000000E+00 -0.00000000000E+00 -0.22300966414E+03  0.22300966414E+03  0.00000000000E+00 0.  1.
         -6    2    1    2    0  503  0.95860672231E+02  0.50771055044E+02  0.10545959204E+03  0.22942718851E+03  0.17247649336E+03 0.  0.
        -24    2    3    3    0    0  0.27274788711E+02 -0.43091536950E+02  0.35775961115E+02  0.93809682215E+02  0.70139449867E+02 0.  0.
          6    2    1    2  501    0 -0.95860672231E+02 -0.50771055044E+02 -0.92698279359E+02  0.22935345245E+03  0.17956354487E+03 0.  0.
         24    2    5    5    0    0  0.83062965289E+01 -0.35090961377E+02 -0.87566145792E+02  0.12378332641E+03  0.79712683278E+02 0.  0.
          5    1    5    5  501    0 -0.10416696876E+03 -0.15680093667E+02 -0.51321335668E+01  0.10557012604E+03  0.47000000000E+01 0. -1.
        -13    1    6    6    0    0 -0.18496154134E+02  0.18255611472E+02 -0.15731260744E+02  0.30378407340E+02  0.00000000000E+00 0.  1.
         14    1    6    6    0    0  0.26802450663E+02 -0.53346572849E+02 -0.71834885048E+02  0.93404919068E+02  0.00000000000E+00 0. -1.
         -5    1    3    3    0  503  0.68585883520E+02  0.93862591994E+02  0.69683630926E+02  0.13561750629E+03  0.47000000000E+01 0.  1.
         13    1    4    4    0    0 -0.81061774043E+01  0.63920682733E+01 -0.12455769117E+02  0.16177602826E+02  0.00000000000E+00 0. -1.
        -14    1    4    4    0    0  0.35380966115E+02 -0.49483605224E+02  0.48231730231E+02  0.77632079389E+02  0.00000000000E+00 0.  1.
</event>
<event>
12    1  0.9966151E-001  0.1974216E+03  0.7818608E-02  0.1153033E+00
         21   -1    0    0  501  502  0.00000000000E+00  0.00000000000E+00  0.10000233754E+04  0.10000233754E+04  0.00000000000E+00 0. -1.
         21   -1    0    0  502  503 -0.00000000000E+00 -0.00000000000E+00 -0.38955537507E+02  0.38955537507E+02  0.00000000000E+00 0. -1.
         -6    2    1    2    0  503  0.45720054084E+02  0.72474379198E+02  0.55655084991E+03  0.58885749974E+03  0.17222499086E+03 0.  0.
        -24    2    3    3    0    0  0.34303823753E+02 -0.21168640672E+02  0.17973289032E+03  0.20038200482E+03  0.78893423801E+02 0.  0.
          6    2    1    2  501    0 -0.45720054084E+02 -0.72474379198E+02  0.40451698800E+03  0.45012141318E+03  0.17785509282E+03 0.  0.
         24    2    5    5    0    0 -0.83931150931E+02 -0.81279867444E+02  0.21838373649E+03  0.25984450480E+03  0.78592972750E+02 0.  0.
          5    1    5    5  501    0  0.38211096847E+02  0.88054882456E+01  0.18613325151E+03  0.19027690838E+03  0.47000000000E+01 0. -1.
        -11    1    6    6    0    0 -0.66356016931E+02 -0.94234543286E+02  0.20192758078E+03  0.23250380214E+03  0.00000000000E+00 0.  1.
         12    1    6    6    0    0 -0.17575134000E+02  0.12954675842E+02  0.16456155709E+02  0.27340702661E+02  0.00000000000E+00 0. -1.
         -5    1    3    3    0  503  0.11416230331E+02  0.93643019871E+02  0.37681795959E+03  0.38847549492E+03  0.47000000000E+01 0.  1.
         11    1    4    4    0    0 -0.19311261446E+02  0.36291805121E+01  0.13171204796E+02  0.23655367374E+02  0.00000000000E+00 0. -1.
        -12    1    4    4    0    0  0.53615085199E+02 -0.24797821184E+02  0.16656168553E+03  0.17672663744E+03  0.00000000000E+00 0.  1.
</event>
<event>
12    1  0.9966151E-001  0.3453611E+03  0.7818608E-02  0.1064644E+00
         21   -1    0    0  501  502  0.00000000000E+00  0.00000000000E+00  0.61601080286E+03  0.61601080286E+03  0.00000000000E+00 0.  1.
         21   -1    0    0  502  503 -0.00000000000E+00 -0.00000000000E+00 -0.23158301475E+03  0.23158301475E+03  0.00000000000E+00 0.  1.
         -6    2    1    2    0  503  0.20997326696E+03 -0.21363391200E+03  0.36534112521E+03  0.50274091584E+03  0.17188970155E+03 0.  0.
        -24    2    3    3    0    0  0.23012795091E+03 -0.19993977178E+03  0.35789604024E+03  0.47683222904E+03  0.79653078429E+02 0.  0.
          6    2    1    2  501    0 -0.20997326696E+03  0.21363391200E+03  0.19086662900E+02  0.34485290177E+03  0.16979694332E+03 0.  0.
         24    2    5    5    0    0 -0.74280349335E+02  0.28536618344E+02  0.23568416564E+02  0.11525378999E+03  0.79975352228E+02 0.  0.
          5    1    5    5  501    0 -0.13569291762E+03  0.18509729366E+03 -0.44817536637E+01  0.22959911178E+03  0.47000000000E+01 0. -1.
        -13    1    6    6    0    0 -0.12118466938E+02 -0.17114151467E+02 -0.18004268940E+02  0.27638833576E+02  0.00000000000E+00 0.  1.
         14    1    6    6    0    0 -0.62161882397E+02  0.45650769812E+02  0.41572685503E+02  0.87614956415E+02  0.00000000000E+00 0. -1.
         -5    1    3    3    0  503 -0.20154683949E+02 -0.13694140222E+02  0.74450849633E+01  0.25908686798E+02  0.47000000000E+01 0.  1.
         11    1    4    4    0    0  0.54223065768E+02 -0.87949012848E+02  0.15193773404E+03  0.18373961126E+03  0.00000000000E+00 0. -1.
        -12    1    4    4    0    0  0.17590488514E+03 -0.11199075893E+03  0.20595830621E+03  0.29309261778E+03  0.00000000000E+00 0.  1.
</event>
<event>
12    1  0.9966151E-001  0.1741453E+03  0.7818608E-02  0.1173845E+00
         21   -1    0    0  501  502  0.00000000000E+00  0.00000000000E+00  0.11982338294E+03  0.11982338294E+03  0.00000000000E+00 0. -1.
         21   -1    0    0  502  503 -0.00000000000E+00 -0.00000000000E+00 -0.30397887998E+03  0.30397887998E+03  0.00000000000E+00 0. -1.
         -6    2    1    2    0  503  0.14292084295E+02  0.21678922208E+02 -0.39417073452E+01  0.17319578630E+03  0.17119288535E+03 0.  0.
        -24    2    3    3    0    0  0.28204628302E+01  0.78645567373E+02 -0.12767363934E+02  0.11423156856E+03  0.81809323397E+02 0.  0.
          6    2    1    2  501    0 -0.14292084295E+02 -0.21678922208E+02 -0.18021378969E+03  0.25060647662E+03  0.17219859694E+03 0.  0.
         24    2    5    5    0    0  0.45666624001E+02 -0.48619974824E+02 -0.10975876829E+03  0.15413437154E+03  0.85211940334E+02 0.  0.
          5    1    5    5  501    0 -0.59958708296E+02  0.26941052616E+02 -0.70455021405E+02  0.96472105076E+02  0.47000000000E+01 0. -1.
        -11    1    6    6    0    0  0.37311095435E+02  0.17731162528E+02 -0.40167642395E+02  0.57619019974E+02  0.00000000000E+00 0.  1.
         12    1    6    6    0    0  0.83555285661E+01 -0.66351137352E+02 -0.69591125894E+02  0.96515351570E+02  0.00000000000E+00 0. -1.
         -5    1    3    3    0  503  0.11471621465E+02 -0.56966645166E+02  0.88256565892E+01  0.58964217749E+02  0.47000000000E+01 0.  1.
         11    1    4    4    0    0 -0.22003918414E+02  0.14200313943E+02 -0.33130462126E+02  0.42230899379E+02  0.00000000000E+00 0. -1.
        -12    1    4    4    0    0  0.24824381244E+02  0.64445253430E+02  0.20363098192E+02  0.72000669176E+02  0.00000000000E+00 0.  1.
</event>
<event>
12    1  0.9966151E-001  0.5198949E+03  0.7818608E-02  0.1008736E+00
         21   -1    0    0  503  502  0.00000000000E+00  0.00000000000E+00  0.29828667983E+03  0.29828667983E+03  0.00000000000E+00 0. -1.
         21   -1    0    0  501  503 -0.00000000000E+00 -0.00000000000E+00 -0.93547127395E+03  0.93547127395E+03  0.00000000000E+00 0.  1.
          6    2    1    2  501    0  0.46081195405E+03  0.16788326158E+03 -0.20828290274E+03  0.56006470654E+03  0.17250583012E+03 0.  0.
         24    2    3    3    0    0  0.19855914085E+03  0.60448410505E+02 -0.28880438688E+02  0.22461557573E+03  0.80859967675E+02 0.  0.
         -6    2    1    2    0  502 -0.46081195405E+03 -0.16788326158E+03 -0.42890169138E+03  0.67369324724E+03  0.17138694234E+03 0.  0.
        -24    2    5    5    0    0 -0.44757232185E+03 -0.12734243726E+03 -0.41455300503E+03  0.62845144029E+03  0.80993451598E+02 0.  0.
          5    1    3    3  501    0  0.26225281319E+03  0.10743485107E+03 -0.17940246405E+03  0.33544913081E+03  0.47000000000E+01 0. -1.
        -11    1    4    4    0    0  0.12761031512E+03  0.77286840526E+02 -0.27373248787E+02  0.15168039752E+03  0.00000000000E+00 0.  1.
         12    1    4    4    0    0  0.70948825737E+02 -0.16838430021E+02 -0.15071899007E+01  0.72935178210E+02  0.00000000000E+00 0. -1.
         -5    1    5    5    0  502 -0.13239632193E+02 -0.40540824314E+02 -0.14348686343E+02  0.45241806954E+02  0.47000000000E+01 0.  1.
         13    1    6    6    0    0 -0.16513698860E+03 -0.58191125565E+02 -0.20743300792E+03  0.27144959914E+03  0.00000000000E+00 0. -1.
        -14    1    6    6    0    0 -0.28243533325E+03 -0.69151311696E+02 -0.20711999711E+03  0.35700184114E+03  0.00000000000E+00 0.  1.
</event>
<event>
12    1  0.9966151E-001  0.2109407E+03  0.7818608E-02  0.1140825E+00
         21   -1    0    0  501  502  0.00000000000E+00  0.00000000000E+00  0.13273016451E+03  0.13273016451E+03  0.00000000000E+00 0. -1.
         21   -1    0    0  502  503 -0.00000000000E+00 -0.00000000000E+00 -0.64526054732E+03  0.64526054732E+03  0.00000000000E+00 0. -1.
         -6    2    1    2    0  503  0.11764791266E+03 -0.33603379075E+02 -0.52590868654E+03  0.56663563197E+03  0.17183065616E+03 0.  0.
        -24    2    3    3    0    0  0.30365557959E+02 -0.61790915670E+02 -0.17998359648E+03  0.20872641919E+03  0.80202485587E+02 0.  0.
          6    2    1    2  501    0 -0.11764791266E+03  0.33603379075E+02  0.13378303733E+02  0.21135507986E+03  0.17181901040E+03 0.  0.
         24    2    5    5    0    0 -0.65625466801E+02  0.18032551007E+01 -0.62008569111E+02  0.11428369708E+03  0.70041039067E+02 0.  0.
          5    1    5    5  501    0 -0.52022445861E+02  0.31800123974E+02  0.75386872844E+02  0.97071382782E+02  0.47000000000E+01 0. -1.
        -13    1    6    6    0    0 -0.12206235467E+02  0.31124357178E+02 -0.32314373876E+02  0.46496629480E+02  0.00000000000E+00 0.  1.
         14    1    6    6    0    0 -0.53419231334E+02 -0.29321102077E+02 -0.29694195235E+02  0.67787067601E+02  0.00000000000E+00 0. -1.
         -5    1    3    3    0  503  0.87282354703E+02  0.28187536595E+02 -0.34592509006E+03  0.35790921278E+03  0.47000000000E+01 0.  1.
         11    1    4    4    0    0 -0.26869413581E+02 -0.25783443704E+02 -0.51739673107E+02  0.63747510765E+02  0.00000000000E+00 0. -1.
        -12    1    4    4    0    0  0.57234971540E+02 -0.36007471966E+02 -0.12824392337E+03  0.14497890842E+03  0.00000000000E+00 0.  1.
</event>
<event>
12    1  0.9966151E-001  0.2849073E+03  0.7818608E-02  0.1093122E+00
         21   -1    0    0  503  502  0.00000000000E+00  0.00000000000E+00  0.26242248888E+03  0.26242248888E+03  0.00000000000E+00 0.  1.
         21   -1    0    0  501  503 -0.00000000000E+00 -0.00000000000E+00 -0.31782121656E+03  0.31782121656E+03  0.00000000000E+00 0.  1.
          6    2    1    2  501    0 -0.18502546372E+03 -0.13089566347E+03  0.21633790991E+02  0.28510617128E+03  0.17160830704E+03 0.  0.
         24    2    3    3    0    0 -0.18988733488E+03 -0.13164017312E+03 -0.18415998520E+02  0.24448268391E+03  0.77757948816E+02 0.  0.
         -6    2    1    2    0  502  0.18502546372E+03  0.13089566347E+03 -0.77032518668E+02  0.29513753416E+03  0.17263851887E+03 0.  0.
        -24    2    5    5    0    0  0.39774251240E+02  0.27427026944E+01 -0.46818200968E+01  0.88309562970E+02  0.78658413363E+02 0.  0.
          5    1    3    3  501    0  0.48618711602E+01  0.74450964455E+00  0.40049789511E+02  0.40623487365E+02  0.47000000000E+01 0. -1.
        -11    1    4    4    0    0 -0.87410159708E+01  0.70892533304E+01  0.93520082099E+01  0.14632939914E+02  0.00000000000E+00 0.  1.
         12    1    4    4    0    0 -0.18114631891E+03 -0.13872942645E+03 -0.27768006730E+02  0.22984974400E+03  0.00000000000E+00 0. -1.
         -5    1    5    5    0  502  0.14525121248E+03  0.12815296078E+03 -0.72350698572E+02  0.20682797119E+03  0.47000000000E+01 0.  1.
         13    1    6    6    0    0  0.24491498801E+02  0.23266862301E+02 -0.34994977433E+02  0.48639786599E+02  0.00000000000E+00 0. -1.
        -14    1    6    6    0    0  0.15282752439E+02 -0.20524159607E+02  0.30313157336E+02  0.39669776371E+02  0.00000000000E+00 0.  1.
</event>
<event>
12    1  0.9966151E-001  0.1788614E+03  0.7818608E-02  0.1170008E+00
         21   -1    0    0  501  502  0.00000000000E+00  0.00000000000E+00  0.60374680198E+03  0.60374680198E+03  0.00000000000E+00 0.  1.
         21   -1    0    0  502  503 -0.00000000000E+00 -0.00000000000E+00 -0.54210953481E+02  0.54210953481E+02  0.00000000000E+00 0.  1.
         -6    2    1    2    0  503  0.81999451072E+01  0.42188135538E+02  0.34254543890E+03  0.38439527352E+03  0.16904221578E+03 0.  0.
        -24    2    3    3    0    0  0.61167964984E+02  0.56811594313E+02  0.25193259103E+03  0.27831872156E+03  0.83798586871E+02 0.  0.
          6    2    1    2  501    0 -0.81999451072E+01 -0.42188135538E+02  0.20699040960E+03  0.27356248194E+03  0.17362120832E+03 0.  0.
         24    2    5    5    0    0  0.50535728685E+02  0.11970459283E+02  0.13636012155E+03  0.16682092321E+03  0.80857812883E+02 0.  0.
          5    1    5    5  501    0 -0.58735673793E+02 -0.54158594822E+02  0.70630288050E+02  0.10674155872E+03  0.47000000000E+01 0. -1.
        -11    1    6    6    0    0  0.56747594725E+02  0.14840814944E+02  0.14463901295E+03  0.15608005434E+03  0.00000000000E+00 0.  1.
         12    1    6    6    0    0 -0.62118660396E+01 -0.28703556611E+01 -0.82788914028E+01  0.10740868874E+02  0.00000000000E+00 0. -1.
         -5    1    3    3    0  503 -0.52968019877E+02 -0.14623458774E+02  0.90612847871E+02  0.10607655196E+03  0.47000000000E+01 0.  1.
         13    1    4    4    0    0  0.54637492966E+02  0.62531828209E+02  0.11903138656E+03  0.14513426943E+03  0.00000000000E+00 0. -1.
        -14    1    4    4    0    0  0.65304720188E+01 -0.57202338962E+01  0.13290120447E+03  0.13318445214E+03  0.00000000000E+00 0.  1.
</event>
<event>
12    1  0.9966151E-001  0.4012154E+03  0.7818608E-02  0.1043762E+00
         21   -1    0    0  503  502  0.00000000000E+00  0.00000000000E+00  0.42111454022E+03  0.42111454022E+03  0.00000000000E+00 0. -1.
         21   -1    0    0  501  503 -0.00000000000E+00 -0.00000000000E+00 -0.11872438636E+04  0.11872438636E+04  0.00000000000E+00 0.  1.
          6    2    1    2  501    0 -0.31310342208E+03 -0.17282076471E+03 -0.10463441613E+04  0.11189769737E+04  0.17138434602E+03 0.  0.
         24    2    3    3    0    0 -0.16455946176E+03 -0.69144167877E+02 -0.71663526990E+03  0.74275338595E+03  0.79093298565E+02 0.  0.
         -6    2    1    2    0  502  0.31310342208E+03  0.17282076471E+03  0.28021483791E+03  0.48938143018E+03  0.18185999887E+03 0.  0.
        -24    2    5    5    0    0  0.24334988994E+03  0.16444724989E+03  0.28736838119E+03  0.41860760608E+03  0.79935439136E+02 0.  0.
          5    1    3    3  501    0 -0.14854396032E+03 -0.10367659683E+03 -0.32970889143E+03  0.37622358774E+03  0.47000000000E+01 0. -1.
        -13    1    4    4    0    0 -0.45309691216E+02 -0.57407408893E+02 -0.32850404687E+03  0.33654641214E+03  0.00000000000E+00 0.  1.
         14    1    4    4    0    0 -0.11924977055E+03 -0.11736758984E+02 -0.38813122303E+03  0.40620697381E+03  0.00000000000E+00 0. -1.
         -5    1    5    5    0  502  0.69753532143E+02  0.83735148172E+01 -0.71535432814E+01  0.70773824104E+02  0.47000000000E+01 0.  1.
         13    1    6    6    0    0  0.78917386805E+02  0.13566979560E+02  0.92414310802E+02  0.12228009534E+03  0.00000000000E+00 0. -1.
        -14    1    6    6    0    0  0.16443250314E+03  0.15088027033E+03  0.19495407039E+03  0.29632751074E+03  0.00000000000E+00 0.  1.
</event>
<event>
12    1  0.9966151E-001  0.2193924E+03  0.7818608E-02  0.1134461E+00
         21   -1    0    0  501  502  0.00000000000E+00  0.00000000000E+00  0.81000829357E+02  0.81000829357E+02  0.00000000000E+00 0.  1.
         21   -1    0    0  502  503 -0.00000000000E+00 -0.00000000000E+00 -0.59243749515E+03  0.59243749515E+03  0.00000000000E+00 0.  1.
         -6    2    1    2    0  503  0.12660172575E+03 -0.51749646776E+02 -0.25493533188E+03  0.33590915401E+03  0.17069538191E+03 0.  0.
        -24    2    3    3    0    0  0.49994073524E+02 -0.92544028405E+02 -0.13337873297E+03  0.18647351338E+03  0.76932959154E+02 0.  0.
          6    2    1    2  501    0 -0.12660172575E+03  0.51749646776E+02 -0.25650133392E+03  0.33752917049E+03  0.17154295010E+03 0.  0.
         24    2    5    5    0    0 -0.47929601232E+02  0.21052837233E+02 -0.35627784152E+02  0.10101529716E+03  0.78703765017E+02 0.  0.
          5    1    5    5  501    0 -0.78672124520E+02  0.30696809543E+02 -0.22087354976E+03  0.23651387333E+03  0.47000000000E+01 0. -1.
        -11    1    6    6    0    0 -0.11419947708E+02  0.10687143745E+02  0.24999216288E+02  0.29488829446E+02  0.00000000000E+00 0.  1.
         12    1    6    6    0    0 -0.36509653523E+02  0.10365693487E+02 -0.60627000440E+02  0.71526467718E+02  0.00000000000E+00 0. -1.
         -5    1    3    3    0  503  0.76607652227E+02  0.40794381629E+02 -0.12155659891E+03  0.14943564063E+03  0.47000000000E+01 0.  1.
         13    1    4    4    0    0  0.16751315039E+02  0.97929251604E+01 -0.73250500504E+01  0.20740402527E+02  0.00000000000E+00 0. -1.
        -14    1    4    4    0    0  0.33242758485E+02 -0.10233695357E+03 -0.12605368292E+03  0.16573311086E+03  0.00000000000E+00 0.  1.
</event>
<event>
12    1  0.9966151E-001  0.2067922E+03  0.7818608E-02  0.1144248E+00
         21   -1    0    0  503  502  0.00000000000E+00  0.00000000000E+00  0.17402611194E+03  0.17402611194E+03  0.00000000000E+00 0. -1.
         21   -1    0    0  501  503 -0.00000000000E+00 -0.00000000000E+00 -0.24515714058E+03  0.24515714058E+03  0.00000000000E+00 0.  1.
          6    2    1    2  501    0  0.11088993883E+03  0.23882577202E+02 -0.31096857587E+02  0.20911730935E+03  0.17290482495E+03 0.  0.
         24    2    3    3    0    0  0.13705135774E+03 -0.13657700692E+02 -0.37913410679E+02  0.16261733408E+03  0.77700470953E+02 0.  0.
         -6    2    1    2    0  502 -0.11088993883E+03 -0.23882577202E+02 -0.40034171053E+02  0.21006594317E+03  0.17221500980E+03 0.  0.
        -24    2    5    5    0    0 -0.81944309472E+02 -0.79929467493E+02 -0.87583893509E+01  0.13950130691E+03  0.79248442357E+02 0.  0.
          5    1    3    3  501    0 -0.26161418919E+02  0.37540277894E+02  0.68165530920E+01  0.46499975272E+02  0.47000000000E+01 0. -1.
        -13    1    4    4    0    0  0.56623500763E+02 -0.42390787125E+02 -0.43965746770E+01  0.70869806975E+02  0.00000000000E+00 0.  1.
         14    1    4    4    0    0  0.80427856981E+02  0.28733086432E+02 -0.33516836002E+02  0.91747527106E+02  0.00000000000E+00 0. -1.
         -5    1    5    5    0  502 -0.28945629354E+02  0.56046890291E+02 -0.31275781702E+02  0.70564636264E+02  0.47000000000E+01 0.  1.
         11    1    6    6    0    0 -0.44691082981E+02 -0.71806408529E+02  0.25399920572E+02  0.88309734282E+02  0.00000000000E+00 0. -1.
        -12    1    6    6    0    0 -0.37253226491E+02 -0.81230589639E+01 -0.34158309923E+02  0.51191572624E+02  0.00000000000E+00 0.  1.
</event>
<event>
12    1  0.9966151E-001  0.2117841E+03  0.7818608E-02  0.1140370E+00
         21   -1    0    0  503  502  0.00000000000E+00  0.00000000000E+00  0.24705443791E+02  0.24705443791E+02  0.00000000000E+00 0.  1.
         21   -1    0    0  501  503 -0.00000000000E+00 -0.00000000000E+00 -0.18731225712E+04  0.18731225712E+04  0.00000000000E+00 0.  1.
          6    2    1    2  501    0  0.64783543356E+02 -0.10420037763E+03 -0.11056136942E+04  0.11257149569E+04  0.17262067400E+03 0.  0.
         24    2    3    3    0    0  0.15657052674E+02 -0.92598022763E+02 -0.40629219780E+03  0.42455828958E+03  0.79729882381E+02 0.  0.
         -6    2    1    2    0  502 -0.64783543356E+02  0.10420037763E+03 -0.74280343316E+03  0.77211305809E+03  0.17130968441E+03 0.  0.
        -24    2    5    5    0    0 -0.48033851038E+02  0.12585430716E+03 -0.71916740198E+03  0.73564119459E+03  0.76286680605E+02 0.  0.
          5    1    3    3  501    0  0.49126490682E+02 -0.11602354869E+02 -0.69932149644E+03  0.70115666730E+03  0.47000000000E+01 0. -1.
        -11    1    4    4    0    0 -0.27724975302E+02 -0.67458224762E+02 -0.24986978662E+03  0.26029636303E+03  0.00000000000E+00 0.  1.
         12    1    4    4    0    0  0.43382027976E+02 -0.25139798001E+02 -0.15642241118E+03  0.16426192655E+03  0.00000000000E+00 0. -1.
         -5    1    5    5    0  502 -0.16749692318E+02 -0.21653929531E+02 -0.23636031181E+02  0.36471863496E+02  0.47000000000E+01 0.  1.
         13    1    6    6    0    0 -0.26865397594E+02  0.80637774259E+02 -0.60624510061E+03  0.61217425807E+03  0.00000000000E+00 0. -1.
        -14    1    6    6    0    0 -0.21168453444E+02  0.45216532905E+02 -0.11292230137E+03  0.12346693653E+03  0.00000000000E+00 0.  1.
</event>
<event>
12    1  0.9966151E-001  0.1936528E+03  0.7818608E-02  0.1156715E+00
         21   -1    0    0  501  502  0.00000000000E+00  0.00000000000E+00  0.13496548696E+03  0.13496548696E+03  0.00000000000E+00 0.  1.
         21   -1    0    0  502  503 -0.00000000000E+00 -0.00000000000E+00 -0.28467111691E+03  0.28467111691E+03  0.00000000000E+00 0.  1.
         -6    2    1    2    0  503 -0.20159511949E+02  0.75716638979E+02 -0.23287686683E+02  0.18837287405E+03  0.16971331116E+03 0.  0.
        -24    2    3    3    0    0 -0.11332717690E+02 -0.89977847983E+01  0.31247875787E+02  0.87127313814E+02  0.80033420829E+02 0.  0.
          6    2    1    2  501    0  0.20159511949E+02 -0.75716638979E+02 -0.12641794327E+03  0.23126372982E+03  0.17709319866E+03 0.  0.
         24    2    5    5    0    0  0.12955853499E+02 -0.17984459292E+02  0.92513669721E+01  0.83570977772E+02  0.80045147380E+02 0.  0.
          5    1    5    5  501    0  0.72036584499E+01 -0.57732179687E+02 -0.13566931024E+03  0.14769275205E+03  0.47000000000E+01 0. -1.
        -11    1    6    6    0    0  0.19447096688E+02  0.28094730547E+02  0.13725021285E+02  0.36822271295E+02  0.00000000000E+00 0.  1.
         12    1    6    6    0    0 -0.64912431890E+01 -0.46079189839E+02 -0.44736543127E+01  0.46748706477E+02  0.00000000000E+00 0. -1.
         -5    1    3    3    0  503 -0.88267942586E+01  0.84714423777E+02 -0.54535562470E+02  0.10124556023E+03  0.47000000000E+01 0.  1.
         13    1    4    4    0    0 -0.71079767001E+01  0.29068332197E+02  0.37862646798E+02  0.48260452671E+02  0.00000000000E+00 0. -1.
        -14    1    4    4    0    0 -0.42247409902E+01 -0.38066116995E+02 -0.66147710108E+01  0.38866861142E+02  0.00000000000E+00 0.  1.
</event>
<event>
12    1  0.9966151E-001  0.2274486E+03  0.7818608E-02  0.1128492E+00
         21   -1    0    0  501  502  0.00000000000E+00  0.00000000000E+00  0.44285337701E+03  0.44285337701E+03  0.00000000000E+00 0.  1.
         21   -1    0    0  502  503 -0.00000000000E+00 -0.00000000000E+00 -0.20030244288E+03  0.20030244288E+03  0.00000000000E+00 0.  1.
         -6    2    1    2    0  503  0.26648026694E+02  0.14553032473E+03  0.32900170582E+03  0.39983171528E+03  0.17243574271E+03 0.  0.
        -24    2    3    3    0    0  0.12391549285E+02  0.14775952613E+03  0.34115447444E+03  0.38038958906E+03  0.79520035062E+02 0.  0.
          6    2    1    2  501    0 -0.26648026694E+02 -0.14553032473E+03 -0.86450771684E+02  0.24332410461E+03  0.17275326688E+03 0.  0.
         24    2    5    5    0    0  0.28966985026E+02 -0.76164481860E+02 -0.10218800012E+03  0.15291171583E+03  0.79369332572E+02 0.  0.
          5    1    5    5  501    0 -0.55615011720E+02 -0.69365842873E+02  0.15737228434E+02  0.90412388780E+02  0.47000000000E+01 0. -1.
        -13    1    6    6    0    0  0.75746758329E+01 -0.23786818884E+02 -0.92123176261E+02  0.95445628873E+02  0.00000000000E+00 0.  1.
         14    1    6    6    0    0  0.21392309193E+02 -0.52377662976E+02 -0.10064823857E+02  0.57466086962E+02  0.00000000000E+00 0. -1.
         -5    1    3    3    0  503  0.14256477409E+02 -0.22292014011E+01 -0.12152768616E+02  0.19442126222E+02  0.47000000000E+01 0.  1.
         11    1    4    4    0    0 -0.32922242934E+02  0.54915528001E+02  0.15023328602E+03  0.16330838780E+03  0.00000000000E+00 0. -1.
        -12    1    4    4    0    0  0.45313792219E+02  0.92843998133E+02  0.19092118842E+03  0.21708120126E+03  0.00000000000E+00 0.  1.
</event>
<event>
12    1  0.9966151E-001  0.2195083E+03  0.7818608E-02  0.1134347E+00
         21   -1    0    0  503  502  0.00000000000E+00  0.00000000000E+00  0.10698505214E+04  0.10698505214E+04  0.00000000000E+00 0. -1.
         21   -1    0    0  501  503 -0.00000000000E+00 -0.00000000000E+00 -0.44950558079E+02  0.44950558079E+02  0.00000000000E+00 0.  1.
          6    2    1    2  501    0 -0.95442723217E+02 -0.96619056351E+02  0.52320873259E+03  0.56718991154E+03  0.17179191607E+03 0.  0.
         24    2    3    3    0    0  0.17123474566E+02 -0.32880983237E+02  0.22978211194E+03  0.24647982041E+03  0.81105551354E+02 0.  0.
         -6    2    1    2    0  502  0.95442723217E+02  0.96619056351E+02  0.50169123076E+03  0.54761116797E+03  0.17245099245E+03 0.  0.
        -24    2    5    5    0    0  0.12806058284E+03  0.96857008719E+02  0.46320084309E+03  0.49693986119E+03  0.81322884741E+02 0.  0.
          5    1    3    3  501    0 -0.11256619778E+03 -0.63738073114E+02  0.29342662065E+03  0.32071009113E+03  0.47000000000E+01 0. -1.
        -11    1    4    4    0    0 -0.20408919855E+02 -0.38284494972E+01  0.12857040472E+02  0.24423032672E+02  0.00000000000E+00 0.  1.
         12    1    4    4    0    0  0.37532394421E+02 -0.29052533740E+02  0.21692507147E+03  0.22205678774E+03  0.00000000000E+00 0. -1.
         -5    1    5    5    0  502 -0.32617859625E+02 -0.23795236834E+00  0.38490387665E+02  0.50671306777E+02  0.47000000000E+01 0.  1.
         13    1    6    6    0    0  0.13273821952E+03  0.88668516345E+02  0.36617390072E+03  0.39945571254E+03  0.00000000000E+00 0. -1.
        -14    1    6    6    0    0 -0.46776366748E+01  0.81884923742E+01  0.97026942371E+02  0.97484148651E+02  0.00000000000E+00 0.  1.
</event>
<event>
12    1  0.9966151E-001  0.1883506E+03  0.7818608E-02  0.1160318E+00
         21   -1    0    0  503  502  0.00000000000E+00  0.00000000000E+00  0.12185104984E+04  0.12185104984E+04  0.00000000000E+00 0. -1.
         21   -1    0    0  501  503 -0.00000000000E+00 -0.00000000000E+00 -0.28985399180E+02  0.28985399180E+02  0.00000000000E+00 0. -1.
          6    2    1    2  501    0  0.39847891330E+02 -0.60405014432E+02  0.63135562592E+03  0.65840412470E+03  0.17219014152E+03 0.  0.
         24    2    3    3    0    0  0.54877743630E+02 -0.10765418433E+03  0.51266200192E+03  0.52968486859E+03  0.56060161002E+02 0.  0.
         -6    2    1    2    0  502 -0.39847891330E+02  0.60405014432E+02  0.55816947332E+03  0.58909177289E+03  0.17389461099E+03 0.  0.
        -24    2    5    5    0    0  0.21905162248E+02  0.59874412049E+02  0.16947742987E+03  0.19549640223E+03  0.73698457911E+02 0.  0.
          5    1    3    3  501    0 -0.15029852300E+02  0.47249169901E+02  0.11869362399E+03  0.12871925611E+03  0.47000000000E+01 0. -1.
        -13    1    4    4    0    0  0.42506479393E+02 -0.25654268906E+02  0.16769034952E+03  0.17488566444E+03  0.00000000000E+00 0.  1.
         14    1    4    4    0    0  0.12371264237E+02 -0.81999915427E+02  0.34497165240E+03  0.35479920416E+03  0.00000000000E+00 0. -1.
         -5    1    5    5    0  502 -0.61753053578E+02  0.53060238345E+00  0.38869204345E+03  0.39359537066E+03  0.47000000000E+01 0.  1.
         11    1    6    6    0    0 -0.76824108958E+01  0.64993063187E+02  0.96667487840E+02  0.11673782979E+03  0.00000000000E+00 0. -1.
        -12    1    6    6    0    0  0.29587573144E+02 -0.51186511378E+01  0.72809942026E+02  0.78758572434E+02  0.00000000000E+00 0.  1.
</event>
<event>
12    1  0.9966151E-001  0.2332547E+03  0.7818608E-02  0.1124570E+00
         21   -1    0    0  501  502  0.00000000000E+00  0.00000000000E+00  0.44696804109E+03  0.44696804109E+03  0.00000000000E+00 0.  1.
         21   -1    0    0  502  503 -0.00000000000E+00 -0.00000000000E+00 -0.12457585956E+03  0.12457585956E+03  0.00000000000E+00 0.  1.
         -6    2    1    2    0  503  0.14838144140E+03  0.55777090990E+02  0.11400591512E+03  0.25962492902E+03  0.17111288395E+03 0.  0.
        -24    2    3    3    0    0  0.17189185693E+03  0.56595150110E+02  0.71208258319E+02  0.21056233342E+03  0.80722107942E+02 0.  0.
          6    2    1    2  501    0 -0.14838144140E+03 -0.55777090990E+02  0.20838626641E+03  0.31191897163E+03  0.16953015308E+03 0.  0.
         24    2    5    5    0    0 -0.68271985216E+02  0.33273668391E+02  0.82505357514E+02  0.13809246059E+03  0.80586553964E+02 0.  0.
          5    1    5    5  501    0 -0.80109456184E+02 -0.89050759381E+02  0.12588090889E+03  0.17382651104E+03  0.47000000000E+01 0. -1.
        -11    1    6    6    0    0 -0.15973900807E+02  0.19476898245E+02 -0.12991417006E+02  0.28342406180E+02  0.00000000000E+00 0.  1.
         12    1    6    6    0    0 -0.52298084409E+02  0.13796770146E+02  0.95496774520E+02  0.10975005441E+03  0.00000000000E+00 0. -1.
         -5    1    3    3    0  503 -0.23510415527E+02 -0.81805912006E+00  0.42797656801E+02  0.49062595596E+02  0.47000000000E+01 0.  1.
         11    1    4    4    0    0 -0.35609719314E+00 -0.11730183814E+02 -0.79032632202E+00  0.11762169580E+02  0.00000000000E+00 0. -1.
        -12    1    4    4    0    0  0.17224795412E+03  0.68325333924E+02  0.71998584641E+02  0.19880016385E+03  0.00000000000E+00 0.  1.
</event>
<event>
12    1  0.9966151E-001  0.1891493E+03  0.7818608E-02  0.1159752E+00
         21   -1    0    0  503  502  0.00000000000E+00  0.00000000000E+00  0.19026469711E+03  0.19026469711E+03  0.00000000000E+00 0. -1.
         21   -1    0    0  501  503 -0.00000000000E+00 -0.00000000000E+00 -0.18693257674E+03  0.18693257674E+03  0.00000000000E+00 0. -1.
          6    2    1    2  501    0  0.21526314400E+02 -0.69237547418E+02 -0.13136231502E+02  0.18960485198E+03  0.17470036958E+03 0.  0.
         24    2    3    3    0    0  0.96044946699E+01 -0.31409141737E+02  0.60677609160E+02  0.10567815101E+03  0.80045729711E+02 0.  0.
         -6    2    1    2    0  502 -0.21526314400E+02  0.69237547418E+02  0.16468351870E+02  0.18759242188E+03  0.17222801732E+03 0.  0.
        -24    2    5    5    0    0  0.95254591531E+01 -0.19246136464E+02  0.22195975906E+02  0.93526112122E+02  0.88279806079E+02 0.  0.
          5    1    3    3  501    0  0.11921819730E+02 -0.37828405681E+02 -0.73813840662E+02  0.83926700968E+02  0.47000000000E+01 0. -1.
        -13    1    4    4    0    0  0.39477206723E+01 -0.57821213328E+02  0.31680293790E+02  0.66049362024E+02  0.00000000000E+00 0.  1.
         14    1    4    4    0    0  0.56567739976E+01  0.26412071591E+02  0.28997315370E+02  0.39628788986E+02  0.00000000000E+00 0. -1.
         -5    1    5    5    0  502 -0.31051773553E+02  0.88483683882E+02 -0.57276240359E+01  0.94066309756E+02  0.47000000000E+01 0.  1.
         13    1    6    6    0    0 -0.39578773714E+02 -0.99352435853E+01  0.81757254528E+01  0.41617675097E+02  0.00000000000E+00 0. -1.
        -14    1    6    6    0    0  0.49104232867E+02 -0.93108928789E+01  0.14020250453E+02  0.51908437025E+02  0.00000000000E+00 0.  1.
</event>
<event>
12    1  0.9966151E-001  0.2325933E+03  0.7818608E-02  0.1125112E+00
         21   -1    0    0  503  502  0.00000000000E+00  0.00000000000E+00  0.20273006426E+03  0.20273006426E+03  0.00000000000E+00 0.  1.
         21   -1    0    0  501  503 -0.00000000000E+00 -0.00000000000E+00 -0.26570774847E+03  0.26570774847E+03  0.00000000000E+00 0.  1.
          6    2    1    2  501    0 -0.63143130186E+02 -0.14077328234E+03 -0.19387186654E+02  0.23339987467E+03  0.17405592945E+03 0.  0.
         24    2    3    3    0    0 -0.93704544102E+02 -0.14505233129E+03 -0.42250197732E+02  0.19470727129E+03  0.79404797637E+02 0.  0.
         -6    2    1    2    0  502  0.63143130186E+02  0.14077328234E+03 -0.43590497557E+02  0.23503793806E+03  0.17186776585E+03 0.  0.
        -24    2    5    5    0    0  0.80124596423E+02  0.14303517555E+03  0.55669043270E+01  0.18276914702E+03  0.80588822325E+02 0.  0.
          5    1    3    3  501    0  0.30561413916E+02  0.42790489455E+01  0.22863011077E+02  0.38692603375E+02  0.47000000000E+01 0. -1.
        -13    1    4    4    0    0  0.26437162772E+01 -0.79495010178E+01 -0.24862724203E+02  0.26236212703E+02  0.00000000000E+00 0.  1.
         14    1    4    4    0    0 -0.96348260379E+02 -0.13710283027E+03 -0.17387473529E+02  0.16847105859E+03  0.00000000000E+00 0. -1.
         -5    1    5    5    0  502 -0.16981466237E+02 -0.22618932048E+01 -0.49157401884E+02  0.52268791036E+02  0.47000000000E+01 0.  1.
         13    1    6    6    0    0  0.20969640426E+02  0.46662836494E+02 -0.35713321650E+02  0.62390604041E+02  0.00000000000E+00 0. -1.
        -14    1    6    6    0    0  0.59154955997E+02  0.96372339053E+02  0.41280225977E+02  0.12037854298E+03  0.00000000000E+00 0.  1.
</event>
<event>
12    1  0.9966151E-001  0.3483960E+03  0.7818608E-02  0.1063286E+00
         21   -1    0    0  501  502  0.00000000000E+00  0.00000000000E+00  0.38110468010E+03  0.38110468010E+03  0.00000000000E+00 0. -1.
         21   -1    0    0  502  503 -0.00000000000E+00 -0.00000000000E+00 -0.48719625719E+03  0.48719625719E+03  0.00000000000E+00 0. -1.
         -6    2    1    2    0  503 -0.14156188527E+03  0.26786803045E+03  0.20250839883E+03  0.40288313763E+03  0.17179092494E+03 0.  0.
        -24    2    3    3    0    0 -0.74483585083E+02  0.13544443491E+03  0.31941477799E+02  0.17671799539E+03  0.79473218746E+02 0.  0.
          6    2    1    2  501    0  0.14156188527E+03 -0.26786803045E+03 -0.30859997592E+03  0.46541779966E+03  0.17200794749E+03 0.  0.
         24    2    5    5    0    0  0.79909911247E+02 -0.12597275045E+03 -0.24714267452E+03  0.29888153849E+03  0.77433485712E+02 0.  0.
          5    1    5    5  501    0  0.61651974023E+02 -0.14189528001E+03 -0.61457301398E+02  0.16653626117E+03  0.47000000000E+01 0. -1.
        -13    1    6    6    0    0  0.59399482067E+01 -0.69901918583E+02 -0.71193415553E+02  0.99950305775E+02  0.00000000000E+00 0.  1.
         14    1    6    6    0    0  0.73969963041E+02 -0.56070831865E+02 -0.17594925897E+03  0.19893123272E+03  0.00000000000E+00 0. -1.
         -5    1    3    3    0  503 -0.67078300187E+02  0.13242359555E+03  0.17056692103E+03  0.22616514224E+03  0.47000000000E+01 0.  1.
         11    1    4    4    0    0 -0.63396273019E+02  0.14281417033E+03  0.17747623826E+02  0.15725760024E+03  0.00000000000E+00 0. -1.
        -12    1    4    4    0    0 -0.11087312064E+02 -0.73697354264E+01  0.14193853972E+02  0.19460395157E+02  0.00000000000E+00 0.  1.
</event>
<event>
12    1  0.9966151E-001  0.2374099E+03  0.7818608E-02  0.1123728E+00
         21   -1    0    0  501  502  0.00000000000E+00  0.00000000000E+00  0.39756309219E+02  0.39756309219E+02  0.00000000000E+00 0.  1.
         21   -1    0    0  502  503 -0.00000000000E+00 -0.00000000000E+00 -0.16536452210E+04  0.16536452210E+04  0.00000000000E+00 0.  1.
         -6    2    1    2    0  503 -0.48675443948E+02 -0.14914622280E+03 -0.45815623182E+03  0.51601415334E+03  0.17818411565E+03 0.  0.
        -24    2    3    3    0    0 -0.73740753686E+02 -0.12836197425E+03 -0.23052245305E+03  0.28601527948E+03  0.82156214300E+02 0.  0.
          6    2    1    2  501    0  0.48675443948E+02  0.14914622280E+03 -0.11557326800E+04  0.11773873769E+04  0.16096307989E+03 0.  0.
         24    2    5    5    0    0 -0.18517078890E+02  0.97693048760E+02 -0.49684648823E+03  0.51307166286E+03  0.80618139237E+02 0.  0.
          5    1    5    5  501    0  0.67192522838E+02  0.51453174043E+02 -0.65888619175E+03  0.66431571404E+03  0.47000000000E+01 0. -1.
        -13    1    6    6    0    0  0.21896393417E+02  0.50765435924E+02 -0.13366315523E+03  0.14464584541E+03  0.00000000000E+00 0.  1.
         14    1    6    6    0    0 -0.40413472306E+02  0.46927612837E+02 -0.36318333301E+03  0.36842581745E+03  0.00000000000E+00 0. -1.
         -5    1    3    3    0  503  0.25065309738E+02 -0.20784248558E+02 -0.22763377877E+03  0.22999887386E+03  0.47000000000E+01 0.  1.
         13    1    4    4    0    0 -0.52314604346E+02 -0.18606211171E+02 -0.97796051996E+02  0.11245922242E+03  0.00000000000E+00 0. -1.
        -14    1    4    4    0    0 -0.21426149340E+02 -0.10975576307E+03 -0.13272640105E+03  0.17355605705E+03  0.00000000000E+00 0.  1.
</event>
<event>
12    1  0.9966151E-001  0.2889933E+03  0.7818608E-02  0.1091156E+00
         21   -1    0    0  503  502  0.00000000000E+00  0.00000000000E+00  0.11334420123E+03  0.11334420123E+03  0.00000000000E+00 0.  1.
         21   -1    0    0  501  503 -0.00000000000E+00 -0.00000000000E+00 -0.78037800379E+03  0.78037800379E+03  0.00000000000E+00 0.  1.
          6    2    1    2  501    0  0.16094193116E+01 -0.22938262337E+03 -0.22275714205E+03  0.36488061169E+03  0.17577866288E+03 0.  0.
         24    2    3    3    0    0  0.69572435322E+02 -0.16583298721E+03 -0.15429287774E+03  0.24926498434E+03  0.77368190448E+02 0.  0.
         -6    2    1    2    0  502 -0.16094193116E+01  0.22938262337E+03 -0.44427666052E+03  0.52884159334E+03  0.17225766059E+03 0.  0.
        -24    2    5    5    0    0  0.41127470848E+02  0.93206004712E+02 -0.12456105176E+03  0.17868352370E+03  0.77675722422E+02 0.  0.
          5    1    3    3  501    0 -0.67963016010E+02 -0.63549636159E+02 -0.68464264307E+02  0.11561562735E+03  0.47000000000E+01 0. -1.
        -11    1    4    4    0    0  0.69960659777E+02 -0.13671689973E+03 -0.15748525085E+03  0.21997183643E+03  0.00000000000E+00 0.  1.
         12    1    4    4    0    0 -0.38822445542E+00 -0.29116087482E+02  0.31923731069E+01  0.29293147911E+02  0.00000000000E+00 0. -1.
         -5    1    5    5    0  502 -0.42736890159E+02  0.13617661865E+03 -0.31971560876E+03  0.35015806964E+03  0.47000000000E+01 0.  1.
         11    1    6    6    0    0  0.54806746715E+01  0.82562441210E+02 -0.11234404283E+03  0.13952698109E+03  0.00000000000E+00 0. -1.
        -12    1    6    6    0    0  0.35646796176E+02  0.10643563503E+02 -0.12217008925E+02  0.39156542605E+02  0.00000000000E+00 0.  1.
</event>
<event>
12    1  0.9966151E-001  0.2370081E+03  0.7818608E-02  0.1122309E+00
         21   -1    0    0  501  502  0.00000000000E+00  0.00000000000E+00  0.89726760512E+02  0.89726760512E+02  0.00000000000E+00 0.  1.
         21   -1    0    0  502  503 -0.00000000000E+00 -0.00000000000E+00 -0.69377437193E+03  0.69377437193E+03  0.00000000000E+00 0.  1.
         -6    2    1    2    0  503 -0.11008862804E+03  0.11567401498E+03 -0.17104015536E+03  0.28987343610E+03  0.17109029909E+03 0.  0.
        -24    2    3    3    0    0 -0.82285106886E+02 -0.63089663656E+01 -0.86275051354E+02  0.13867787933E+03  0.70551597139E+02 0.  0.
          6    2    1    2  501    0  0.11008862804E+03 -0.11567401498E+03 -0.43300745606E+03  0.49362769635E+03  0.17513669470E+03 0.  0.
         24    2    5    5    0    0  0.54330107128E+02 -0.47609822997E+00 -0.12596130547E+03  0.16094315918E+03  0.84169250921E+02 0.  0.
          5    1    5    5  501    0  0.55758520914E+02 -0.11519791675E+03 -0.30704615059E+03  0.33268453717E+03  0.47000000000E+01 0. -1.
        -13    1    6    6    0    0 -0.15570551847E+02  0.87125613317E+01 -0.15059105723E+01  0.17905825210E+02  0.00000000000E+00 0.  1.
         14    1    6    6    0    0  0.69900658975E+02 -0.91886595617E+01 -0.12445539490E+03  0.14303733397E+03  0.00000000000E+00 0. -1.
         -5    1    3    3    0  503 -0.27803521155E+02  0.12198298135E+03 -0.84765104004E+02  0.15119555676E+03  0.47000000000E+01 0.  1.
         11    1    4    4    0    0 -0.47649415158E+02  0.31071229457E+02 -0.53483218705E+02  0.78079080091E+02  0.00000000000E+00 0. -1.
        -12    1    4    4    0    0 -0.34635691729E+02 -0.37380195823E+02 -0.32791832649E+02  0.60598799244E+02  0.00000000000E+00 0.  1.
</event>
<event>
12    1  0.9966151E-001  0.2872161E+03  0.7818608E-02  0.1091936E+00
         21   -1    0    0  503  502  0.00000000000E+00  0.00000000000E+00  0.84624288817E+02  0.84624288817E+02  0.00000000000E+00 0.  1.
         21   -1    0    0  501  503 -0.00000000000E+00 -0.00000000000E+00 -0.97297527072E+03  0.97297527072E+03  0.00000000000E+00 0.  1.
          6    2    1    2  501    0 -0.33505061007E+02  0.22662337856E+03 -0.42386898824E+03  0.51148912598E+03  0.17168419255E+03 0.  0.
         24    2    3    3    0    0  0.31347665881E+01  0.48608188437E+02 -0.86129143409E+02  0.12792403675E+03  0.81078647560E+02 0.  0.
         -6    2    1    2    0  502  0.33505061007E+02 -0.22662337856E+03 -0.46448199366E+03  0.54611043356E+03  0.17324069494E+03 0.  0.
        -24    2    5    5    0    0 -0.25619581253E+02 -0.14218021654E+03 -0.18409899299E+03  0.24734114465E+03  0.80085115319E+02 0.  0.
          5    1    3    3  501    0 -0.36639827595E+02  0.17801519013E+03 -0.33773984483E+03  0.38356508922E+03  0.47000000000E+01 0. -1.
        -11    1    4    4    0    0 -0.68182362875E+01  0.31811999754E+01 -0.80760962685E+02  0.81110674225E+02  0.00000000000E+00 0.  1.
         12    1    4    4    0    0  0.99530028756E+01  0.45426988461E+02 -0.53681807234E+01  0.46813362528E+02  0.00000000000E+00 0. -1.
         -5    1    5    5    0  502  0.59124642260E+02 -0.84443162025E+02 -0.28038300066E+03  0.29876928891E+03  0.47000000000E+01 0.  1.
         11    1    6    6    0    0 -0.26163160339E+02 -0.11754543879E+03 -0.18711527743E+03  0.22251644476E+03  0.00000000000E+00 0. -1.
        -12    1    6    6    0    0  0.54357908526E+00 -0.24634777747E+02  0.30162844360E+01  0.24824699890E+02  0.00000000000E+00 0.  1.
</event>
<event>
12    1  0.9966151E-001  0.2680714E+03  0.7818608E-02  0.1102466E+00
         21   -1    0    0  503  502  0.00000000000E+00  0.00000000000E+00  0.60967833601E+03  0.60967833601E+03  0.00000000000E+00 0.  1.
         21   -1    0    0  501  503 -0.00000000000E+00 -0.00000000000E+00 -0.37051500039E+03  0.37051500039E+03  0.00000000000E+00 0.  1.
          6    2    1    2  501    0 -0.17999497527E+03  0.97992869525E+02  0.52451078237E+03  0.58904483110E+03  0.17280468346E+03 0.  0.
         24    2    3    3    0    0 -0.12506139818E+03  0.57693871442E+02  0.48246150915E+03  0.50884546380E+03  0.84768284719E+02 0.  0.
         -6    2    1    2    0  502  0.17999497527E+03 -0.97992869525E+02 -0.28534744675E+03  0.39114850529E+03  0.17196858499E+03 0.  0.
        -24    2    5    5    0    0  0.74995978698E+02 -0.66229988968E+02 -0.24019238010E+03  0.27242723548E+03  0.80705705574E+02 0.  0.
          5    1    3    3  501    0 -0.54933577090E+02  0.40298998083E+02  0.42049273218E+02  0.80199367308E+02  0.47000000000E+01 0. -1.
        -13    1    4    4    0    0 -0.35669953522E+02  0.18070066515E+02  0.29225540392E+03  0.29497812463E+03  0.00000000000E+00 0.  1.
         14    1    4    4    0    0 -0.89391444657E+02  0.39623804927E+02  0.19020610523E+03  0.21386733917E+03  0.00000000000E+00 0. -1.
         -5    1    5    5    0  502  0.10499899657E+03 -0.31762880557E+02 -0.45155066651E+02  0.11872126982E+03  0.47000000000E+01 0.  1.
         13    1    6    6    0    0  0.75823721343E+00 -0.52581432981E+02 -0.87240963346E+02  0.10186445751E+03  0.00000000000E+00 0. -1.
        -14    1    6    6    0    0  0.74237741484E+02 -0.13648555987E+02 -0.15295141675E+03  0.17056277797E+03  0.00000000000E+00 0.  1.
</event>
<event>
12    1  0.9966151E-001  0.2631963E+03  0.7818608E-02  0.1105354E+00
         21   -1    0    0  503  502  0.00000000000E+00  0.00000000000E+00  0.37658233749E+03  0.37658233749E+03  0.00000000000E+00 0. -1.
         21   -1    0    0  501  503 -0.00000000000E+00 -0.00000000000E+00 -0.29053878325E+03  0.29053878325E+03  0.00000000000E+00 0. -1.
          6    2    1    2  501    0 -0.69185213688E+02 -0.18751107818E+03  0.24561668682E+03  0.35999978110E+03  0.17124627679E+03 0.  0.
         24    2    3    3    0    0 -0.54625365736E+02 -0.11737317422E+03  0.64739647745E+02  0.16539785920E+03  0.80030226970E+02 0.  0.
         -6    2    1    2    0  502  0.69185213688E+02  0.18751107818E+03 -0.15957313259E+03  0.30712133964E+03  0.17003803804E+03 0.  0.
        -24    2    5    5    0    0  0.24896885129E+02  0.50115735100E+02 -0.80353677922E+01  0.97777793028E+02  0.79777740506E+02 0.  0.
          5    1    3    3  501    0 -0.14559847952E+02 -0.70137903964E+02  0.18087703907E+03  0.19460192190E+03  0.47000000000E+01 0. -1.
        -11    1    4    4    0    0  0.16307160470E+02 -0.48590424899E+02  0.92650652325E+01  0.52084492012E+02  0.00000000000E+00 0.  1.
         12    1    4    4    0    0 -0.70932526205E+02 -0.68782749322E+02  0.55474582513E+02  0.11331336719E+03  0.00000000000E+00 0. -1.
         -5    1    5    5    0  502  0.44288328559E+02  0.13739534308E+03 -0.15153776479E+03  0.20934354661E+03  0.47000000000E+01 0.  1.
         13    1    6    6    0    0  0.18519862301E+02 -0.19786944096E+02 -0.46943535274E+01  0.27505370591E+02  0.00000000000E+00 0. -1.
        -14    1    6    6    0    0  0.63770228283E+01  0.69902679196E+02 -0.33410142648E+01  0.70272422438E+02  0.00000000000E+00 0.  1.
</event>
<event>
12    1  0.9966151E-001  0.1968963E+03  0.7818608E-02  0.1152679E+00
         21   -1    0    0  501  502  0.00000000000E+00  0.00000000000E+00  0.25985752765E+03  0.25985752765E+03  0.00000000000E+00 0.  1.
         21   -1    0    0  502  503 -0.00000000000E+00 -0.00000000000E+00 -0.15496287483E+03  0.15496287483E+03  0.00000000000E+00 0.  1.
         -6    2    1    2    0  503 -0.35493718432E+02  0.87776258293E+02  0.96081649684E+02  0.21908869405E+03  0.17263747243E+03 0.  0.
        -24    2    3    3    0    0 -0.58807611783E+02  0.72653583711E+00  0.74560358684E+02  0.12631775157E+03  0.83295043166E+02 0.  0.
          6    2    1    2  501    0  0.35493718432E+02 -0.87776258293E+02  0.88130031400E+01  0.19573170843E+03  0.17108114183E+03 0.  0.
         24    2    5    5    0    0  0.88558841681E+02 -0.59123100565E+02  0.16800555568E+01  0.13482292668E+03  0.82681252473E+02 0.  0.
          5    1    5    5  501    0 -0.53065123249E+02 -0.28653157728E+02  0.71329475832E+01  0.60908781751E+02  0.47000000000E+01 0. -1.
        -13    1    6    6    0    0  0.91209587095E+02 -0.48910284186E+02 -0.24707345517E+02  0.10640421796E+03  0.00000000000E+00 0.  1.
         14    1    6    6    0    0 -0.26507454142E+01 -0.10212816379E+02  0.26387401074E+02  0.28418708716E+02  0.00000000000E+00 0. -1.
         -5    1    3    3    0  503  0.23313893352E+02  0.87049722456E+02  0.21521291001E+02  0.92770942483E+02  0.47000000000E+01 0.  1.
         11    1    4    4    0    0 -0.12260240259E+02  0.32064244408E+02  0.17220620417E+01  0.34371423571E+02  0.00000000000E+00 0. -1.
        -12    1    4    4    0    0 -0.46547371525E+02 -0.31337708570E+02  0.72838296642E+02  0.91946327996E+02  0.00000000000E+00 0.  1.
</event>
<event>
12    1  0.9966151E-001  0.2020523E+03  0.7818608E-02  0.1149475E+00
         21   -1    0    0  503  502  0.00000000000E+00  0.00000000000E+00  0.35179782047E+03  0.35179782047E+03  0.00000000000E+00 0.  1.
         21   -1    0    0  501  503 -0.00000000000E+00 -0.00000000000E+00 -0.12442863861E+03  0.12442863861E+03  0.00000000000E+00 0.  1.
          6    2    1    2  501    0  0.78986520291E+02 -0.48763484227E+02  0.18674620095E+03  0.27013098039E+03  0.17169698662E+03 0.  0.
         24    2    3    3    0    0  0.63016375711E+02  0.34284217754E+02  0.75914414029E+02  0.13063997239E+03  0.78468674851E+02 0.  0.
         -6    2    1    2    0  502 -0.78986520291E+02  0.48763484227E+02  0.40622980916E+02  0.20609547869E+03  0.17946691053E+03 0.  0.
        -24    2    5    5    0    0 -0.92417768588E+02  0.91340596013E+02  0.63825475552E+02  0.15556178066E+03  0.56935295233E+02 0.  0.
          5    1    3    3  501    0  0.15970144579E+02 -0.83047701981E+02  0.11083178692E+03  0.13949100800E+03  0.47000000000E+01 0. -1.
        -13    1    4    4    0    0 -0.11925382168E+02  0.25332690749E+02  0.80301466255E+01  0.29128048600E+02  0.00000000000E+00 0.  1.
         14    1    4    4    0    0  0.74941757879E+02  0.89515270049E+01  0.67884267403E+02  0.10151192379E+03  0.00000000000E+00 0. -1.
         -5    1    5    5    0  502  0.13431248297E+02 -0.42577111786E+02 -0.23202494636E+02  0.50533698026E+02  0.47000000000E+01 0.  1.
         11    1    6    6    0    0 -0.72008585383E+02  0.71951441014E+02  0.20414156734E+02  0.10382188607E+03  0.00000000000E+00 0. -1.
        -12    1    6    6    0    0 -0.20409183205E+02  0.19389154999E+02  0.43411318818E+02  0.51739894590E+02  0.00000000000E+00 0.  1.
</event>
<event>
12    1  0.9966151E-001  0.4218337E+03  0.7818608E-02  0.1036649E+00
         21   -1    0    0  501  502  0.00000000000E+00  0.00000000000E+00  0.15134924777E+03  0.15134924777E+03  0.00000000000E+00 0.  1.
         21   -1    0    0  502  503 -0.00000000000E+00 -0.00000000000E+00 -0.19553459796E+04  0.19553459796E+04  0.00000000000E+00 0.  1.
         -6    2    1    2    0  503  0.51756063674E+02 -0.37945066956E+03 -0.15711251329E+04  0.16267691526E+04  0.17686772448E+03 0.  0.
        -24    2    3    3    0    0 -0.21824523493E+02 -0.13126738990E+03 -0.44862422368E+03  0.47479718062E+03  0.80381783818E+02 0.  0.
          6    2    1    2  501    0 -0.51756063674E+02  0.37945066956E+03 -0.23287159889E+03  0.47992607469E+03  0.17157609054E+03 0.  0.
         24    2    5    5    0    0 -0.94194646513E+02  0.25902227950E+03 -0.19389998206E+03  0.34634124261E+03  0.79936728592E+02 0.  0.
          5    1    5    5  501    0  0.42438582839E+02  0.12042839006E+03 -0.38971616830E+02  0.13358483209E+03  0.47000000000E+01 0. -1.
        -11    1    6    6    0    0  0.12775088286E+02  0.23745750264E+02 -0.29825567610E+02  0.40207313011E+02  0.00000000000E+00 0.  1.
         12    1    6    6    0    0 -0.10696973480E+03  0.23527652924E+03 -0.16407441445E+03  0.30613392959E+03  0.00000000000E+00 0. -1.
         -5    1    3    3    0  503  0.73580587167E+02 -0.24818327966E+03 -0.11225009092E+04  0.11519719720E+04  0.47000000000E+01 0.  1.
         11    1    4    4    0    0  0.28438456971E+02 -0.37943451785E+02 -0.10533970270E+03  0.11552014687E+03  0.00000000000E+00 0. -1.
        -12    1    4    4    0    0 -0.50262980464E+02 -0.93323938112E+02 -0.34328452098E+03  0.35927703374E+03  0.00000000000E+00 0.  1.
</event>
<event>
12    1  0.9966151E-001  0.1891483E+03  0.7818608E-02  0.1159433E+00
         21   -1    0    0  501  502  0.00000000000E+00  0.00000000000E+00  0.34668685856E+03  0.34668685856E+03  0.00000000000E+00 0. -1.
         21   -1    0    0  502  503 -0.00000000000E+00 -0.00000000000E+00 -0.15114436187E+03  0.15114436187E+03  0.00000000000E+00 0. -1.
         -6    2    1    2    0  503 -0.41302521581E+02 -0.65857282791E+02 -0.43282697928E+02  0.19317639261E+03  0.17146616790E+03 0.  0.
        -24    2    3    3    0    0 -0.81844692077E+02 -0.56219729617E+02 -0.69212533925E+02  0.14387125682E+03  0.77777580755E+02 0.  0.
          6    2    1    2  501    0  0.41302521581E+02  0.65857282791E+02  0.23882519462E+03  0.30465482782E+03  0.17243552576E+03 0.  0.
         24    2    5    5    0    0  0.68516093018E+02  0.71314490759E+02  0.24464614335E+03  0.27590881882E+03  0.80583678561E+02 0.  0.
          5    1    5    5  501    0 -0.27213571436E+02 -0.54572079677E+01 -0.58209487349E+01  0.28746008998E+02  0.47000000000E+01 0. -1.
        -11    1    6    6    0    0  0.40869117839E+02  0.78449257048E+02  0.12648670945E+03  0.15434849657E+03  0.00000000000E+00 0.  1.
         12    1    6    6    0    0  0.27646975179E+02 -0.71347662897E+01  0.11815943390E+03  0.12156032225E+03  0.00000000000E+00 0. -1.
         -5    1    3    3    0  503  0.40542170496E+02 -0.96375531735E+01  0.25929835997E+02  0.49305135782E+02  0.47000000000E+01 0.  1.
         11    1    4    4    0    0 -0.31687908997E+02  0.16274655892E+02 -0.33033533958E+02  0.48581913988E+02  0.00000000000E+00 0. -1.
        -12    1    4    4    0    0 -0.50156783080E+02 -0.72494385509E+02 -0.36178999967E+02  0.95289342835E+02  0.00000000000E+00 0.  1.
</event>
<event>
12    1  0.9966151E-001  0.4403577E+03  0.7818608E-02  0.1030690E+00
         21   -1    0    0  501  502  0.00000000000E+00  0.00000000000E+00  0.25790178933E+03  0.25790178933E+03  0.00000000000E+00 0.  1.
         21   -1    0    0  502  503 -0.00000000000E+00 -0.00000000000E+00 -0.90637334549E+03  0.90637334549E+03  0.00000000000E+00 0.  1.
         -6    2    1    2    0  503 -0.16314925786E+03 -0.37041291215E+03 -0.82774245753E+02  0.44738716016E+03  0.17169825125E+03 0.  0.
        -24    2    3    3    0    0 -0.15606010090E+03 -0.28638162019E+03 -0.10981919546E+02  0.33653707095E+03  0.82264269838E+02 0.  0.
          6    2    1    2  501    0  0.16314925786E+03  0.37041291215E+03 -0.56569731041E+03  0.71688797466E+03  0.17346906175E+03 0.  0.
         24    2    5    5    0    0  0.66378063123E+02  0.10387455273E+03 -0.12357030771E+03  0.19162067348E+03  0.79075227407E+02 0.  0.
          5    1    5    5  501    0  0.96771194740E+02  0.26653835943E+03 -0.44212700270E+03  0.52526730118E+03  0.47000000000E+01 0. -1.
        -11    1    6    6    0    0 -0.13239824386E+02  0.10035370046E+02 -0.38739141346E+02  0.42151188287E+02  0.00000000000E+00 0.  1.
         12    1    6    6    0    0  0.79617887510E+02  0.93839182679E+02 -0.84831166364E+02  0.14946948519E+03  0.00000000000E+00 0. -1.
         -5    1    3    3    0  503 -0.70891569656E+01 -0.84031291967E+02 -0.71792326207E+02  0.11085008921E+03  0.47000000000E+01 0.  1.
         11    1    4    4    0    0 -0.85577457027E+02 -0.80761313344E+02  0.10377117250E+02  0.11812525321E+03  0.00000000000E+00 0. -1.
        -12    1    4    4    0    0 -0.70482643871E+02 -0.20562030684E+03 -0.21359036797E+02  0.21841181773E+03  0.00000000000E+00 0.  1.
</event>
<event>
12    1  0.9966151E-001  0.4621873E+03  0.7818608E-02  0.1024170E+00
         21   -1    0    0  503  502  0.00000000000E+00  0.00000000000E+00  0.42348786402E+03  0.42348786402E+03  0.00000000000E+00 0. -1.
         21   -1    0    0  501  503 -0.00000000000E+00 -0.00000000000E+00 -0.12756327268E+04  0.12756327268E+04  0.00000000000E+00 0. -1.
          6    2    1    2  501    0 -0.41564607029E+03 -0.10317096097E+03  0.23458126436E+03  0.51831018260E+03  0.17381361529E+03 0.  0.
         24    2    3    3    0    0 -0.30191723349E+03 -0.68247822293E+01  0.14678268871E+03  0.34525668115E+03  0.80351880128E+02 0.  0.
         -6    2    1    2    0  502  0.41564607029E+03  0.10317096097E+03 -0.10867261271E+04  0.11808104082E+04  0.17301341510E+03 0.  0.
        -24    2    5    5    0    0  0.39943207390E+03  0.67369432598E+02 -0.10445650451E+04  0.11229805720E+04  0.76711209310E+02 0.  0.
          5    1    3    3  501    0 -0.11372883679E+03 -0.96346178744E+02  0.87798575649E+02  0.17305350145E+03  0.47000000000E+01 0. -1.
        -11    1    4    4    0    0 -0.24598035517E+03 -0.14565435124E+02  0.15037722236E+03  0.28867247190E+03  0.00000000000E+00 0.  1.
         12    1    4    4    0    0 -0.55936878325E+02  0.77406528952E+01 -0.35945336491E+01  0.56584209248E+02  0.00000000000E+00 0. -1.
         -5    1    5    5    0  502  0.16213996393E+02  0.35801528375E+02 -0.42161082038E+02  0.57829836171E+02  0.47000000000E+01 0.  1.
         13    1    6    6    0    0  0.27987314714E+02  0.26101988718E+02 -0.10946696782E+03  0.11596387646E+03  0.00000000000E+00 0. -1.
        -14    1    6    6    0    0  0.37144475918E+03  0.41267443880E+02 -0.93509807723E+03  0.10070166955E+04  0.00000000000E+00 0.  1.
</event>
<event>
12    1  0.9966151E-001  0.2706339E+03  0.7818608E-02  0.1101402E+00
         21   -1    0    0  503  502  0.00000000000E+00  0.00000000000E+00  0.26111754085E+03  0.26111754085E+03  0.00000000000E+00 0.  1.
         21   -1    0    0  501  503 -0.00000000000E+00 -0.00000000000E+00 -0.10161632176E+04  0.10161632176E+04  0.00000000000E+00 0. -1.
          6    2    1    2  501    0  0.96527108208E+02  0.18044598721E+03 -0.92155432878E+03  0.95952635001E+03  0.17190171186E+03 0.  0.
         24    2    3    3    0    0 -0.10360239296E+02  0.72624832785E+02 -0.27578696983E+03  0.29613515449E+03  0.79094096510E+02 0.  0.
         -6    2    1    2    0  502 -0.96527108208E+02 -0.18044598721E+03  0.16650865205E+03  0.31775440843E+03  0.17710024266E+03 0.  0.
        -24    2    5    5    0    0  0.19438968914E+02 -0.54296594414E+02  0.74491989868E+02  0.12320118573E+03  0.79394470416E+02 0.  0.
          5    1    3    3  501    0  0.10688734750E+03  0.10782115442E+03 -0.64576735895E+03  0.66339119552E+03  0.47000000000E+01 0. -1.
        -13    1    4    4    0    0  0.94099153260E+01  0.59353137616E+02 -0.86323446665E+02  0.10518117177E+03  0.00000000000E+00 0.  1.
         14    1    4    4    0    0 -0.19770154622E+02  0.13271695170E+02 -0.18946352316E+03  0.19095398272E+03  0.00000000000E+00 0. -1.
         -5    1    5    5    0  502 -0.11596607712E+03 -0.12614939279E+03  0.92016662179E+02  0.19455322270E+03  0.47000000000E+01 0.  1.
         11    1    6    6    0    0 -0.22205268708E+02  0.29527187859E+01  0.30204630176E+01  0.22603444504E+02  0.00000000000E+00 0. -1.
        -12    1    6    6    0    0  0.41644237621E+02 -0.57249313199E+02  0.71471526850E+02  0.10059774122E+03  0.00000000000E+00 0.  1.
</event>
<event>
12    1  0.9966151E-001  0.1895711E+03  0.7818608E-02  0.1159548E+00
         21   -1    0    0  501  502  0.00000000000E+00  0.00000000000E+00  0.10687916879E+03  0.10687916879E+03  0.00000000000E+00 0. -1.
         21   -1    0    0  502  503 -0.00000000000E+00 -0.00000000000E+00 -0.33098111034E+03  0.33098111034E+03  0.00000000000E+00 0. -1.
         -6    2    1    2    0  503 -0.64591401468E+02  0.41255395168E+02 -0.11583974521E+03  0.21955333736E+03  0.17003165765E+03 0.  0.
        -24    2    3    3    0    0 -0.23176541471E+02  0.12957847895E+02  0.94542326704E+01  0.84510334198E+02  0.79671551850E+02 0.  0.
          6    2    1    2  501    0  0.64591401468E+02 -0.41255395168E+02 -0.10826219633E+03  0.21830694176E+03  0.17338731469E+03 0.  0.
         24    2    5    5    0    0  0.98088480753E+02 -0.66733784564E+02 -0.63952388782E+02  0.15701541142E+03  0.80555467435E+02 0.  0.
          5    1    5    5  501    0 -0.33497079285E+02  0.25478389396E+02 -0.44309807550E+02  0.61291530344E+02  0.47000000000E+01 0. -1.
        -13    1    6    6    0    0  0.15800280374E+02 -0.14709253611E+02  0.19270713851E+02  0.28937370545E+02  0.00000000000E+00 0.  1.
         14    1    6    6    0    0  0.82288200379E+02 -0.52024530953E+02 -0.83223102633E+02  0.12807804087E+03  0.00000000000E+00 0. -1.
         -5    1    3    3    0  503 -0.41414859997E+02  0.28297547273E+02 -0.12529397788E+03  0.13504300317E+03  0.47000000000E+01 0.  1.
         13    1    4    4    0    0  0.15241463666E+02 -0.21248019889E+02  0.18830385557E+02  0.32223655660E+02  0.00000000000E+00 0. -1.
        -14    1    4    4    0    0 -0.38418005137E+02  0.34205867784E+02 -0.93761528865E+01  0.52286678538E+02  0.00000000000E+00 0.  1.
</event>
<event>
12    1  0.9966151E-001  0.2214048E+03  0.7818608E-02  0.1133217E+00
         21   -1    0    0  501  502  0.00000000000E+00  0.00000000000E+00  0.66007374050E+03  0.66007374050E+03  0.00000000000E+00 0.  1.
         21   -1    0    0  502  503 -0.00000000000E+00 -0.00000000000E+00 -0.14226278559E+03  0.14226278559E+03  0.00000000000E+00 0.  1.
         -6    2    1    2    0  503 -0.91972794280E+02 -0.10068816891E+03 -0.19208334412E+02  0.22223647180E+03  0.17442186514E+03 0.  0.
        -24    2    3    3    0    0 -0.72243029712E+02 -0.13010506257E+03 -0.48483246910E+02  0.17604418084E+03  0.80588744418E+02 0.  0.
          6    2    1    2  501    0  0.91972794280E+02  0.10068816891E+03  0.53701928932E+03  0.58010005429E+03  0.17184077992E+03 0.  0.
         24    2    5    5    0    0  0.39416002784E+02 -0.13869066868E+02  0.27525156359E+03  0.28953163062E+03  0.79493204612E+02 0.  0.
          5    1    5    5  501    0  0.52556791496E+02  0.11455723578E+03  0.26176772573E+03  0.29056842367E+03  0.47000000000E+01 0. -1.
        -13    1    6    6    0    0 -0.14103944746E+02 -0.30339262796E+02  0.11561337976E+03  0.12035715893E+03  0.00000000000E+00 0.  1.
         14    1    6    6    0    0  0.53519947530E+02  0.16470195928E+02  0.15963818383E+03  0.16917447169E+03  0.00000000000E+00 0. -1.
         -5    1    3    3    0  503 -0.19729764568E+02  0.29416893659E+02  0.29274912497E+02  0.46192290960E+02  0.47000000000E+01 0.  1.
         13    1    4    4    0    0  0.10313912034E+02 -0.53819084670E+02 -0.28874222706E+02  0.61940224354E+02  0.00000000000E+00 0. -1.
        -14    1    4    4    0    0 -0.82556941746E+02 -0.76285977902E+02 -0.19609024204E+02  0.11410395648E+03  0.00000000000E+00 0.  1.
</event>
<event>
12    1  0.9966151E-001  0.2440999E+03  0.7818608E-02  0.1117272E+00
         21   -1    0    0  501  502  0.00000000000E+00  0.00000000000E+00  0.13890612051E+03  0.13890612051E+03  0.00000000000E+00 0. -1.
         21   -1    0    0  502  503 -0.00000000000E+00 -0.00000000000E+00 -0.42759013630E+03  0.42759013630E+03  0.00000000000E+00 0. -1.
         -6    2    1    2    0  503  0.17096801150E+03  0.60188270376E+01 -0.15436804780E+03  0.28788266031E+03  0.17257069476E+03 0.  0.
        -24    2    3    3    0    0  0.11151643397E+03  0.26502178197E+01 -0.17761718822E+03  0.22378546747E+03  0.78032885378E+02 0.  0.
          6    2    1    2  501    0 -0.17096801150E+03 -0.60188270376E+01 -0.13431596800E+03  0.27861359650E+03  0.17412199649E+03 0.  0.
         24    2    5    5    0    0 -0.15441743783E+03  0.94784051555E+01 -0.16575938173E+03  0.23956408995E+03  0.77331722421E+02 0.  0.
          5    1    5    5  501    0 -0.16550573674E+02 -0.15497232193E+02  0.31443413735E+02  0.39049506551E+02  0.47000000000E+01 0. -1.
        -13    1    6    6    0    0 -0.96167134556E+02  0.12586226311E+02 -0.15087923349E+03  0.17936296708E+03  0.00000000000E+00 0.  1.
         14    1    6    6    0    0 -0.58250303271E+02 -0.31078211553E+01 -0.14880148247E+02  0.60201122875E+02  0.00000000000E+00 0. -1.
         -5    1    3    3    0  503  0.59451577532E+02  0.33686092179E+01  0.23249140424E+02  0.64097192837E+02  0.47000000000E+01 0.  1.
         13    1    4    4    0    0  0.28487712591E+01 -0.74871638317E+01 -0.70187457354E+02  0.70643133351E+02  0.00000000000E+00 0. -1.
        -14    1    4    4    0    0  0.10866766271E+03  0.10137381651E+02 -0.10742973087E+03  0.15314233412E+03  0.00000000000E+00 0.  1.
</event>
<event>
12    1  0.9966151E-001  0.2729792E+03  0.7818608E-02  0.1099702E+00
         21   -1    0    0  503  502  0.00000000000E+00  0.00000000000E+00  0.43788617302E+03  0.43788617302E+03  0.00000000000E+00 0.  1.
         21   -1    0    0  501  503 -0.00000000000E+00 -0.00000000000E+00 -0.17277769815E+03  0.17277769815E+03  0.00000000000E+00 0.  1.
          6    2    1    2  501    0  0.89262769858E+02 -0.19168289941E+03  0.91403831809E+02  0.28710405817E+03  0.17135899083E+03 0.  0.
         24    2    3    3    0    0  0.82803488774E+02 -0.42271630350E+02  0.49359798307E+02  0.13168449574E+03  0.79127165010E+02 0.  0.
         -6    2    1    2    0  502 -0.89262769858E+02  0.19168289941E+03  0.17370464306E+03  0.32355981299E+03  0.17264841023E+03 0.  0.
        -24    2    5    5    0    0 -0.12427501940E+03  0.15287797528E+03  0.10520964368E+03  0.23727346011E+03  0.80085391765E+02 0.  0.
          5    1    3    3  501    0  0.64592810836E+01 -0.14941126906E+03  0.42044033502E+02  0.15541956244E+03  0.47000000000E+01 0. -1.
        -11    1    4    4    0    0 -0.68077036968E+01  0.30016398328E+00 -0.12877381787E+02  0.14569210333E+02  0.00000000000E+00 0.  1.
         12    1    4    4    0    0  0.89611192471E+02 -0.42571794333E+02  0.62237180094E+02  0.11711528540E+03  0.00000000000E+00 0. -1.
         -5    1    5    5    0  502  0.35012249541E+02  0.38804924128E+02  0.68494999376E+02  0.86286352884E+02  0.47000000000E+01 0.  1.
         11    1    6    6    0    0 -0.10818428289E+02  0.20791470412E+02 -0.13012838987E+02  0.26807790118E+02  0.00000000000E+00 0. -1.
        -12    1    6    6    0    0 -0.11345659111E+03  0.13208650487E+03  0.11822248267E+03  0.21046566999E+03  0.00000000000E+00 0.  1.
</event>
<event>
12    1  0.9966151E-001  0.2120757E+03  0.7818608E-02  0.1139976E+00
         21   -1    0    0  501  502  0.00000000000E+00  0.00000000000E+00  0.16679751840E+03  0.16679751840E+03  0.00000000000E+00 0.  1.
         21   -1    0    0  502  503 -0.00000000000E+00 -0.00000000000E+00 -0.55255330548E+03  0.55255330548E+03  0.00000000000E+00 0.  1.
         -6    2    1    2    0  503 -0.11873354618E+03  0.35088388851E+02 -0.45031968128E+03  0.49766503252E+03  0.17191224282E+03 0.  0.
        -24    2    3    3    0    0 -0.11100028610E+03 -0.23440079646E+02 -0.22175716333E+03  0.26155425440E+03  0.79773978583E+02 0.  0.
          6    2    1    2  501    0  0.11873354618E+03 -0.35088388851E+02  0.64563894206E+02  0.22168579136E+03  0.17218374963E+03 0.  0.
         24    2    5    5    0    0  0.24147491420E+02  0.39276223063E+02  0.17986853190E+02  0.92580686852E+02  0.78242786571E+02 0.  0.
          5    1    5    5  501    0  0.94586054757E+02 -0.74364611914E+02  0.46577041016E+02  0.12910510451E+03  0.47000000000E+01 0. -1.
        -11    1    6    6    0    0  0.11991265575E+02  0.48157034709E+02  0.41478635241E+02  0.64678958120E+02  0.00000000000E+00 0.  1.
         12    1    6    6    0    0  0.12156225844E+02 -0.88808116466E+01 -0.23491782051E+02  0.27901728732E+02  0.00000000000E+00 0. -1.
         -5    1    3    3    0  503 -0.77332600804E+01  0.58528468497E+02 -0.22856251795E+03  0.23611077812E+03  0.47000000000E+01 0.  1.
         11    1    4    4    0    0 -0.37121105725E+02  0.22332880245E+02 -0.35465088704E+02  0.55986664010E+02  0.00000000000E+00 0. -1.
        -12    1    4    4    0    0 -0.73879180372E+02 -0.45772959892E+02 -0.18629207463E+03  0.20556759039E+03  0.00000000000E+00 0.  1.
</event>
<event>
12    1  0.9966151E-001  0.2692558E+03  0.7818608E-02  0.1101777E+00
         21   -1    0    0  503  502  0.00000000000E+00  0.00000000000E+00  0.35479163440E+03  0.35479163440E+03  0.00000000000E+00 0.  1.
         21   -1    0    0  501  503 -0.00000000000E+00 -0.00000000000E+00 -0.21473691162E+03  0.21473691162E+03  0.00000000000E+00 0.  1.
          6    2    1    2  501    0  0.22166868443E+02  0.20552019992E+03  0.13374188030E+03  0.30019877399E+03  0.17176289100E+03 0.  0.
         24    2    3    3    0    0  0.53860184892E+02  0.15706034028E+03  0.15242709314E+03  0.23917376696E+03  0.80007512616E+02 0.  0.
         -6    2    1    2    0  502 -0.22166868443E+02 -0.20552019992E+03  0.63128424793E+01  0.26932977204E+03  0.17253623241E+03 0.  0.
        -24    2    5    5    0    0  0.32300018570E+02 -0.13716254286E+03 -0.45276711720E+02  0.16772768957E+03  0.78903376734E+02 0.  0.
          5    1    3    3  501    0 -0.31693316449E+02  0.48459859643E+02 -0.18685212833E+02  0.61025007028E+02  0.47000000000E+01 0. -1.
        -11    1    4    4    0    0  0.45091580021E+02  0.24236947559E+02  0.41581231338E+02  0.65952096368E+02  0.00000000000E+00 0.  1.
         12    1    4    4    0    0  0.87686048706E+01  0.13282339272E+03  0.11084586180E+03  0.17322167059E+03  0.00000000000E+00 0. -1.
         -5    1    5    5    0  502 -0.54466887014E+02 -0.68357657058E+02  0.51589554199E+02  0.10160208247E+03  0.47000000000E+01 0.  1.
         11    1    6    6    0    0  0.79068796783E+00 -0.12416231744E+03 -0.21116169496E+02  0.12594760368E+03  0.00000000000E+00 0. -1.
        -12    1    6    6    0    0  0.31509330602E+02 -0.13000225421E+02 -0.24160542224E+02  0.41780085885E+02  0.00000000000E+00 0.  1.
</event>
<event>
12    1  0.9966151E-001  0.2952402E+03  0.7818608E-02  0.1088002E+00
         21   -1    0    0  501  502  0.00000000000E+00  0.00000000000E+00  0.38675558702E+03  0.38675558702E+03  0.00000000000E+00 0. -1.
         21   -1    0    0  502  503 -0.00000000000E+00 -0.00000000000E+00 -0.28528412714E+03  0.28528412714E+03  0.00000000000E+00 0. -1.
         -6    2    1    2    0  503  0.21461211786E+03  0.10624821020E+03  0.20722818813E+03  0.35842963341E+03  0.16787268047E+03 0.  0.
        -24    2    3    3    0    0  0.16668573918E+03  0.14155710876E+03  0.16961142972E+03  0.28785508698E+03  0.79183099968E+02 0.  0.
          6    2    1    2  501    0 -0.21461211786E+03 -0.10624821020E+03 -0.10575672825E+03  0.31361008075E+03  0.17268397110E+03 0.  0.
         24    2    5    5    0    0 -0.16928842072E+03 -0.13636139943E+03 -0.11996322548E+03  0.25717466411E+03  0.67042014814E+02 0.  0.
          5    1    5    5  501    0 -0.45323697134E+02  0.30113189229E+02  0.14206497223E+02  0.56435416635E+02  0.47000000000E+01 0. -1.
        -11    1    6    6    0    0 -0.25492651042E+02 -0.57659587758E+02 -0.25705665856E+02  0.68082924251E+02  0.00000000000E+00 0.  1.
         12    1    6    6    0    0 -0.14379576968E+03 -0.78701811669E+02 -0.94257559620E+02  0.18909173986E+03  0.00000000000E+00 0. -1.
         -5    1    3    3    0  503  0.47926378674E+02 -0.35308898563E+02  0.37616758414E+02  0.70574546432E+02  0.47000000000E+01 0.  1.
         11    1    4    4    0    0  0.12965833170E+03  0.96027000925E+02  0.78375066689E+02  0.17937424276E+03  0.00000000000E+00 0. -1.
        -12    1    4    4    0    0  0.37027407483E+02  0.45530107835E+02  0.91236363028E+02  0.10848084422E+03  0.00000000000E+00 0.  1.
</event>
<event>
12    1  0.9966151E-001  0.5657503E+03  0.7818608E-02  0.9979388E-01
         21   -1    0    0  501  502  0.00000000000E+00  0.00000000000E+00  0.15667140218E+03  0.15667140218E+03  0.00000000000E+00 0.  1.
         21   -1    0    0  502  503 -0.00000000000E+00 -0.00000000000E+00 -0.20927821653E+04  0.20927821653E+04  0.00000000000E+00 0.  1.
         -6    2    1    2    0  503 -0.35515413788E+03  0.40473206705E+03 -0.11441146831E+04  0.12761441658E+04  0.17205527038E+03 0.  0.
        -24    2    3    3    0    0 -0.35571812304E+03  0.33618125673E+03 -0.99033008041E+03  0.11077062672E+04  0.81891914729E+02 0.  0.
          6    2    1    2  501    0  0.35515413788E+03 -0.40473206705E+03 -0.79199608000E+03  0.97330940166E+03  0.17358252470E+03 0.  0.
         24    2    5    5    0    0  0.10950644743E+03 -0.13414429906E+03 -0.36060675838E+03  0.40790745189E+03  0.79780324093E+02 0.  0.
          5    1    5    5  501    0  0.24564769045E+03 -0.27058776798E+03 -0.43138932161E+03  0.56540194977E+03  0.47000000000E+01 0. -1.
        -11    1    6    6    0    0  0.78788142018E+02 -0.13546366121E+03 -0.32537105818E+03  0.36114304692E+03  0.00000000000E+00 0.  1.
         12    1    6    6    0    0  0.30718305409E+02  0.13193621469E+01 -0.35235700199E+02  0.46764404971E+02  0.00000000000E+00 0. -1.
         -5    1    3    3    0  503  0.56398515795E+00  0.68550810317E+02 -0.15378460271E+03  0.16843789866E+03  0.47000000000E+01 0.  1.
         13    1    4    4    0    0 -0.29424535299E+03  0.24729308386E+03 -0.82563078728E+03  0.91071422190E+03  0.00000000000E+00 0. -1.
        -14    1    4    4    0    0 -0.61472770052E+02  0.88888172870E+02 -0.16469929313E+03  0.19699204525E+03  0.00000000000E+00 0.  1.
</event>
<event>
12    1  0.9966151E-001  0.2962371E+03  0.7818608E-02  0.1087153E+00
         21   -1    0    0  503  502  0.00000000000E+00  0.00000000000E+00  0.27946198263E+03  0.27946198263E+03  0.00000000000E+00 0. -1.
         21   -1    0    0  501  503 -0.00000000000E+00 -0.00000000000E+00 -0.38085342167E+03  0.38085342167E+03  0.00000000000E+00 0. -1.
          6    2    1    2  501    0 -0.20780547952E+03  0.12109102329E+03  0.87739026874E+02  0.30895724433E+03  0.17294591279E+03 0.  0.
         24    2    3    3    0    0 -0.18149060856E+03  0.41851572065E+02  0.94780675153E+02  0.22503443531E+03  0.83466913288E+02 0.  0.
         -6    2    1    2    0  502  0.20780547952E+03 -0.12109102329E+03 -0.18913046592E+03  0.35135815997E+03  0.17273120795E+03 0.  0.
        -24    2    5    5    0    0  0.58835179689E+02 -0.99073404857E+02 -0.59568201029E+02  0.15264883398E+03  0.80474704234E+02 0.  0.
          5    1    3    3  501    0 -0.26314870954E+02  0.79239451222E+02 -0.70416482790E+01  0.83922809020E+02  0.47000000000E+01 0. -1.
        -13    1    4    4    0    0 -0.11310962594E+03  0.38927671989E+02  0.16018033568E+02  0.12068856004E+03  0.00000000000E+00 0.  1.
         14    1    4    4    0    0 -0.68380982628E+02  0.29239000764E+01  0.78762641585E+02  0.10434587527E+03  0.00000000000E+00 0. -1.
         -5    1    5    5    0  502  0.14897029983E+03 -0.22017618431E+02 -0.12956226489E+03  0.19870932599E+03  0.47000000000E+01 0.  1.
         11    1    6    6    0    0  0.33919581896E+02 -0.50903329474E+02 -0.74503650877E+02  0.96397515433E+02  0.00000000000E+00 0. -1.
        -12    1    6    6    0    0  0.24915597793E+02 -0.48170075383E+02  0.14935449848E+02  0.56251318544E+02  0.00000000000E+00 0.  1.
</event>
<event>
12    1  0.9966151E-001  0.2024115E+03  0.7818608E-02  0.1148970E+00
         21   -1    0    0  503  502  0.00000000000E+00  0.00000000000E+00  0.19431293621E+03  0.19431293621E+03  0.00000000000E+00 0.  1.
         21   -1    0    0  501  503 -0.00000000000E+00 -0.00000000000E+00 -0.36238528814E+03  0.36238528814E+03  0.00000000000E+00 0.  1.
          6    2    1    2  501    0  0.42445322730E+01  0.10573293863E+03 -0.26691734923E+03  0.33144115818E+03  0.16556237390E+03 0.  0.
         24    2    3    3    0    0  0.46316146477E+01  0.74119236279E+02 -0.65312680527E+02  0.12731838029E+03  0.80181735341E+02 0.  0.
         -6    2    1    2    0  502 -0.42445322730E+01 -0.10573293863E+03  0.98844997301E+02  0.22525706617E+03  0.17254837583E+03 0.  0.
        -24    2    5    5    0    0  0.25805351676E+02  0.26462323648E+01  0.68966854375E+02  0.10879319343E+03  0.80041321905E+02 0.  0.
          5    1    3    3  501    0 -0.38708237476E+00  0.31613702347E+02 -0.20160466870E+03  0.20412277788E+03  0.47000000000E+01 0. -1.
        -11    1    4    4    0    0 -0.20422978732E+02 -0.69563045580E+01 -0.24536622840E+01  0.21714250896E+02  0.00000000000E+00 0.  1.
         12    1    4    4    0    0  0.25054593380E+02  0.81075540837E+02 -0.62859018243E+02  0.10560412940E+03  0.00000000000E+00 0. -1.
         -5    1    5    5    0  502 -0.30049883949E+02 -0.10837917099E+03  0.29878142926E+02  0.11646387274E+03  0.47000000000E+01 0.  1.
         13    1    6    6    0    0  0.70852488788E+01 -0.32921730348E+02  0.61720841500E+01  0.34236467451E+02  0.00000000000E+00 0. -1.
        -14    1    6    6    0    0  0.18720102797E+02  0.35567962713E+02  0.62794770225E+02  0.74556725974E+02  0.00000000000E+00 0.  1.
</event>
<event>
12    1  0.9966151E-001  0.1907318E+03  0.7818608E-02  0.1158095E+00
         21   -1    0    0  501  502  0.00000000000E+00  0.00000000000E+00  0.50547477279E+02  0.50547477279E+02  0.00000000000E+00 0. -1.
         21   -1    0    0  502  503 -0.00000000000E+00 -0.00000000000E+00 -0.95985144755E+03  0.95985144755E+03  0.00000000000E+00 0. -1.
         -6    2    1    2    0  503 -0.72887507660E+02  0.29953222193E+02 -0.19824082899E+03  0.27419963173E+03  0.17226789449E+03 0.  0.
        -24    2    3    3    0    0  0.23126778341E+02  0.37594265644E+02 -0.71385043774E+02  0.11485218461E+03  0.78402953703E+02 0.  0.
          6    2    1    2  501    0  0.72887507660E+02 -0.29953222193E+02 -0.71106314128E+03  0.73619929310E+03  0.17369174989E+03 0.  0.
         24    2    5    5    0    0  0.49567509240E+01  0.34838689674E+02 -0.22368103067E+03  0.23983653130E+03  0.79057286748E+02 0.  0.
          5    1    5    5  501    0  0.67930756736E+02 -0.64791911868E+02 -0.48738211061E+03  0.49636276180E+03  0.47000000000E+01 0. -1.
        -11    1    6    6    0    0  0.14109726229E+01 -0.24820927550E+02 -0.90648998993E+02  0.93996331347E+02  0.00000000000E+00 0.  1.
         12    1    6    6    0    0  0.35457783012E+01  0.59659617225E+02 -0.13303203168E+03  0.14584019995E+03  0.00000000000E+00 0. -1.
         -5    1    3    3    0  503 -0.96014286001E+02 -0.76410434504E+01 -0.12685578522E+03  0.15934744712E+03  0.47000000000E+01 0.  1.
         11    1    4    4    0    0  0.23399010950E+00  0.43994603387E+01  0.17075489958E+02  0.17634691944E+02  0.00000000000E+00 0. -1.
        -12    1    4    4    0    0  0.22892788231E+02  0.33194805305E+02 -0.88460533732E+02  0.97217492666E+02  0.00000000000E+00 0.  1.
</event>
<event>
12    1  0.9966151E-001  0.3335420E+03  0.7818608E-02  0.1069616E+00
         21   -1    0    0  501  502  0.00000000000E+00  0.00000000000E+00  0.70732256331E+03  0.70732256331E+03  0.00000000000E+00 0.  1.
         21   -1    0    0  502  503 -0.00000000000E+00 -0.00000000000E+00 -0.16501197970E+03  0.16501197970E+03  0.00000000000E+00 0.  1.
         -6    2    1    2    0  503  0.11585751743E+01 -0.28603915297E+03  0.36660514406E+03  0.49563053166E+03  0.17155335302E+03 0.  0.
        -24    2    3    3    0    0  0.23455597430E+02 -0.28523504107E+03  0.36766440940E+03  0.47280476025E+03  0.80361867024E+02 0.  0.
          6    2    1    2  501    0 -0.11585751743E+01  0.28603915297E+03  0.17570543954E+03  0.37670401135E+03  0.17092036553E+03 0.  0.
         24    2    5    5    0    0 -0.43241356512E+02  0.25275179677E+03  0.17916542393E+03  0.32273114724E+03  0.79384246457E+02 0.  0.
          5    1    5    5  501    0  0.42082781338E+02  0.33287356199E+02 -0.34599843817E+01  0.53972864105E+02  0.47000000000E+01 0. -1.
        -11    1    6    6    0    0  0.20069135619E+02  0.25452916863E+02  0.24012148167E+02  0.40338622199E+02  0.00000000000E+00 0.  1.
         12    1    6    6    0    0 -0.63310492131E+02  0.22729887991E+03  0.15515327576E+03  0.28239252504E+03  0.00000000000E+00 0. -1.
         -5    1    3    3    0  503 -0.22297022255E+02 -0.80411190396E+00 -0.10592653376E+01  0.22825771410E+02  0.47000000000E+01 0.  1.
         13    1    4    4    0    0  0.45439275840E+02 -0.10450623255E+03  0.12082968767E+03  0.16609061940E+03  0.00000000000E+00 0. -1.
        -14    1    4    4    0    0 -0.21983678410E+02 -0.18072880852E+03  0.24683472173E+03  0.30671414085E+03  0.00000000000E+00 0.  1.
</event>
<event>
12    1  0.9966151E-001  0.2347893E+03  0.7818608E-02  0.1123376E+00
         21   -1    0    0  503  502  0.00000000000E+00  0.00000000000E+00  0.71163742570E+02  0.71163742570E+02  0.00000000000E+00 0. -1.
         21   -1    0    0  501  503 -0.00000000000E+00 -0.00000000000E+00 -0.82821978638E+03  0.82821978638E+03  0.00000000000E+00 0.  1.
          6    2    1    2  501    0  0.14453656106E+02 -0.15845375830E+03 -0.49391107622E+03  0.54672041362E+03  0.17215852508E+03 0.  0.
         24    2    3    3    0    0  0.14191116013E+02 -0.63243003593E+02 -0.11085393039E+03  0.15197996254E+03  0.81291142538E+02 0.  0.
         -6    2    1    2    0  502 -0.14453656106E+02  0.15845375830E+03 -0.26314496759E+03  0.35266311534E+03  0.17265427089E+03 0.  0.
        -24    2    5    5    0    0  0.43308258037E+02  0.47688020149E+02 -0.79271836635E+02  0.13031899969E+03  0.80927530038E+02 0.  0.
          5    1    3    3  501    0  0.26254009288E+00 -0.95210754704E+02 -0.38305714584E+03  0.39474045107E+03  0.47000000000E+01 0. -1.
        -13    1    4    4    0    0 -0.11149171007E+02  0.13902991823E+02 -0.41602439181E+02  0.45258812861E+02  0.00000000000E+00 0.  1.
         14    1    4    4    0    0  0.25340287020E+02 -0.77145995417E+02 -0.69251491205E+02  0.10672114968E+03  0.00000000000E+00 0. -1.
         -5    1    5    5    0  502 -0.57761914142E+02  0.11076573815E+03 -0.18387313096E+03  0.22234411564E+03  0.47000000000E+01 0.  1.
         13    1    6    6    0    0  0.18766238462E+02 -0.17659183483E+02 -0.14954697729E+01  0.25811913860E+02  0.00000000000E+00 0. -1.
        -14    1    6    6    0    0  0.24542019575E+02  0.65347203632E+02 -0.77776366862E+02  0.10450708583E+03  0.00000000000E+00 0.  1.
</event>
<event>
12    1  0.9966151E-001  0.3139183E+03  0.7818608E-02  0.1078534E+00
         21   -1    0    0  501  502  0.00000000000E+00  0.00000000000E+00  0.10355260698E+04  0.10355260698E+04  0.00000000000E+00 0.  1.
         21   -1    0    0  502  503 -0.00000000000E+00 -0.00000000000E+00 -0.12043294687E+03  0.12043294687E+03  0.00000000000E+00 0.  1.
         -6    2    1    2    0  503 -0.14249287550E+03 -0.22050566669E+03  0.72273622191E+03  0.78779341984E+03  0.17130048825E+03 0.  0.
        -24    2    3    3    0    0 -0.21699133095E+02 -0.15445917080E+03  0.43333598473E+03  0.46728155562E+03  0.79015749968E+02 0.  0.
          6    2    1    2  501    0  0.14249287550E+03  0.22050566669E+03  0.19235690104E+03  0.36816559686E+03  0.17209811366E+03 0.  0.
         24    2    5    5    0    0  0.16419402372E+03  0.20631711487E+03  0.13901914763E+03  0.30867391025E+03  0.80167513036E+02 0.  0.
          5    1    5    5  501    0 -0.21701148217E+02  0.14188551812E+02  0.53337753417E+02  0.59491686613E+02  0.47000000000E+01 0. -1.
        -11    1    6    6    0    0  0.24793018860E+02  0.90095880515E+02  0.37259987799E+02  0.10059954354E+03  0.00000000000E+00 0.  1.
         12    1    6    6    0    0  0.13940100486E+03  0.11622123436E+03  0.10175915983E+03  0.20807436671E+03  0.00000000000E+00 0. -1.
         -5    1    3    3    0  503 -0.12079374241E+03 -0.66046495887E+02  0.28940023718E+03  0.32051186421E+03  0.47000000000E+01 0.  1.
         13    1    4    4    0    0 -0.17798527536E+01 -0.14844347630E+03  0.32975159812E+03  0.36162791650E+03  0.00000000000E+00 0. -1.
        -14    1    4    4    0    0 -0.19919280341E+02 -0.60156944953E+01  0.10358438661E+03  0.10565363912E+03  0.00000000000E+00 0.  1.
</event>
<event>
12    1  0.9966151E-001  0.4161603E+03  0.7818608E-02  0.1038421E+00
         21   -1    0    0  501  502  0.00000000000E+00  0.00000000000E+00  0.51561706584E+03  0.51561706584E+03  0.00000000000E+00 0.  1.
         21   -1    0    0  502  503 -0.00000000000E+00 -0.00000000000E+00 -0.35260251896E+03  0.35260251896E+03  0.00000000000E+00 0.  1.
         -6    2    1    2    0  503  0.18794041039E+03 -0.32641427914E+03 -0.15560508580E+02  0.41645114332E+03  0.17697894185E+03 0.  0.
        -24    2    3    3    0    0  0.20392242992E+03 -0.33174269895E+03 -0.20599751669E+02  0.39824946820E+03  0.80874677259E+02 0.  0.
          6    2    1    2  501    0 -0.18794041039E+03  0.32641427914E+03  0.17857505547E+03  0.45176844149E+03  0.17417748076E+03 0.  0.
         24    2    5    5    0    0 -0.20067404967E+03  0.22714746194E+03  0.15082205056E+03  0.34780515062E+03  0.79718806962E+02 0.  0.
          5    1    5    5  501    0  0.12733639286E+02  0.99266817202E+02  0.27753004909E+02  0.10396329087E+03  0.47000000000E+01 0. -1.
        -13    1    6    6    0    0 -0.51023537763E+02  0.34659459905E+02  0.64271735896E+02  0.89081623256E+02  0.00000000000E+00 0.  1.
         14    1    6    6    0    0 -0.14965051191E+03  0.19248800204E+03  0.86550314661E+02  0.25872352736E+03  0.00000000000E+00 0. -1.
         -5    1    3    3    0  503 -0.15982019538E+02  0.53284198043E+01  0.50392430888E+01  0.18201675117E+02  0.47000000000E+01 0.  1.
         11    1    4    4    0    0  0.18879252632E+03 -0.25001931903E+03 -0.30643038582E+01  0.31330762493E+03  0.00000000000E+00 0. -1.
        -12    1    4    4    0    0  0.15129903610E+02 -0.81723379918E+02 -0.17535447811E+02  0.84941843272E+02  0.00000000000E+00 0.  1.
</event>
<event>
12    1  0.9966151E-001  0.1804344E+03  0.7818608E-02  0.1168120E+00
         21   -1    0    0  501  502  0.00000000000E+00  0.00000000000E+00  0.77941461595E+02  0.77941461595E+02  0.00000000000E+00 0. -1.
         21   -1    0    0  502  503 -0.00000000000E+00 -0.00000000000E+00 -0.49265065788E+03  0.49265065788E+03  0.00000000000E+00 0. -1.
         -6    2    1    2    0  503 -0.53144193427E+02  0.86644369771E+01 -0.92479918280E+02  0.20275383466E+03  0.17221267206E+03 0.  0.
        -24    2    3    3    0    0  0.15799580413E+02 -0.19350043076E+02  0.17482962005E+01  0.82591022405E+02  0.78703046536E+02 0.  0.
          6    2    1    2  501    0  0.53144193427E+02 -0.86644369771E+01 -0.32222927801E+03  0.36783828482E+03  0.16903821583E+03 0.  0.
         24    2    5    5    0    0 -0.21122595605E+02 -0.21800077754E+02 -0.88232057771E+02  0.12194218869E+03  0.78508559597E+02 0.  0.
          5    1    5    5  501    0  0.74266789031E+02  0.13135640777E+02 -0.23399722024E+03  0.24589609613E+03  0.47000000000E+01 0. -1.
        -11    1    6    6    0    0 -0.48237137751E+02 -0.29672015771E+01 -0.67290674954E+02  0.82847212864E+02  0.00000000000E+00 0.  1.
         12    1    6    6    0    0  0.27114542147E+02 -0.18832876177E+02 -0.20941382817E+02  0.39094975830E+02  0.00000000000E+00 0. -1.
         -5    1    3    3    0  503 -0.68943773839E+02  0.28014480053E+02 -0.94228214480E+02  0.12016281225E+03  0.47000000000E+01 0.  1.
         11    1    4    4    0    0  0.32657207519E+02  0.11504377111E+02 -0.21205854960E+02  0.40602120392E+02  0.00000000000E+00 0. -1.
        -12    1    4    4    0    0 -0.16857627106E+02 -0.30854420188E+02  0.22954151161E+02  0.41988902013E+02  0.00000000000E+00 0.  1.
</event>
<event>
12    1  0.9966151E-001  0.2160472E+03  0.7818608E-02  0.1137015E+00
         21   -1    0    0  501  502  0.00000000000E+00  0.00000000000E+00  0.44198827194E+03  0.44198827194E+03  0.00000000000E+00 0.  1.
         21   -1    0    0  502  503 -0.00000000000E+00 -0.00000000000E+00 -0.10766792787E+03  0.10766792787E+03  0.00000000000E+00 0.  1.
         -6    2    1    2    0  503 -0.11437919904E+03 -0.59580781892E+02  0.20888994228E+03  0.30051857455E+03  0.17333186354E+03 0.  0.
        -24    2    3    3    0    0 -0.72173171503E+02 -0.65756513958E+01  0.70293501557E+02  0.14617494494E+03  0.10570587633E+03 0.  0.
          6    2    1    2  501    0  0.11437919904E+03  0.59580781892E+02  0.12543040179E+03  0.24913762527E+03  0.17234935418E+03 0.  0.
         24    2    5    5    0    0  0.56554994380E+02  0.98923527764E+02  0.66798327566E+02  0.15775217552E+03  0.86251959873E+02 0.  0.
          5    1    5    5  501    0  0.57824204656E+02 -0.39342745872E+02  0.58632074226E+02  0.91385449744E+02  0.47000000000E+01 0. -1.
        -13    1    6    6    0    0 -0.20002202801E+02  0.45032599490E+02  0.21993572704E+02  0.53960544605E+02  0.00000000000E+00 0.  1.
         14    1    6    6    0    0  0.76557197181E+02  0.53890928273E+02  0.44804754862E+02  0.10379163092E+03  0.00000000000E+00 0. -1.
         -5    1    3    3    0  503 -0.42206027533E+02 -0.53005130496E+02  0.13859644072E+03  0.15434362960E+03  0.47000000000E+01 0.  1.
         11    1    4    4    0    0  0.10518142749E+02  0.20124973007E+02  0.52883669633E+02  0.57552831201E+02  0.00000000000E+00 0. -1.
        -12    1    4    4    0    0 -0.82691314252E+02 -0.26700624403E+02  0.17409831924E+02  0.88622113740E+02  0.00000000000E+00 0.  1.
</event>
<event>
12    1  0.9966151E-001  0.2734416E+03  0.7818608E-02  0.1101024E+00
         21   -1    0    0  503  502  0.00000000000E+00  0.00000000000E+00  0.24710103050E+03  0.24710103050E+03  0.00000000000E+00 0. -1.
         21   -1    0    0  501  503 -0.00000000000E+00 -0.00000000000E+00 -0.32563457356E+03  0.32563457356E+03  0.00000000000E+00 0. -1.
          6    2    1    2  501    0  0.44241544872E+02  0.20702024643E+03 -0.13515704865E+03  0.30502086786E+03  0.17307687687E+03 0.  0.
         24    2    3    3    0    0  0.43461986685E+02  0.52088946514E+02 -0.10476759256E+03  0.14706541703E+03  0.77780368993E+02 0.  0.
         -6    2    1    2    0  502 -0.44241544872E+02 -0.20702024643E+03  0.56623505589E+02  0.26771473619E+03  0.15378641639E+03 0.  0.
        -24    2    5    5    0    0  0.14131537270E+01 -0.11645492589E+03  0.82142877499E+02  0.16302587752E+03  0.79159570797E+02 0.  0.
          5    1    3    3  501    0  0.77955818678E+00  0.15493129991E+03 -0.30389456087E+02  0.15795545083E+03  0.47000000000E+01 0. -1.
        -11    1    4    4    0    0  0.38272238075E+01  0.35167933402E+02 -0.17751392925E+01  0.35420083305E+02  0.00000000000E+00 0.  1.
         12    1    4    4    0    0  0.39634762878E+02  0.16921013112E+02 -0.10299245327E+03  0.11164533373E+03  0.00000000000E+00 0. -1.
         -5    1    5    5    0  502 -0.45654698599E+02 -0.90565320538E+02 -0.25519371911E+02  0.10468885868E+03  0.47000000000E+01 0.  1.
         13    1    6    6    0    0 -0.15579183012E+02  0.62631065767E+01  0.75141156477E+01  0.18395634843E+02  0.00000000000E+00 0. -1.
        -14    1    6    6    0    0  0.16992336739E+02 -0.12271803247E+03  0.74628761852E+02  0.14463024267E+03  0.00000000000E+00 0.  1.
</event>
<event>
12    1  0.9966151E-001  0.2074161E+03  0.7818608E-02  0.1143810E+00
         21   -1    0    0  503  502  0.00000000000E+00  0.00000000000E+00  0.17530972805E+02  0.17530972805E+02  0.00000000000E+00 0.  1.
         21   -1    0    0  501  503 -0.00000000000E+00 -0.00000000000E+00 -0.24839912904E+04  0.24839912904E+04  0.00000000000E+00 0.  1.
          6    2    1    2  501    0 -0.13314646769E+02 -0.11411292075E+03 -0.10759877200E+04  0.10957969786E+04  0.17269165050E+03 0.  0.
         24    2    3    3    0    0 -0.26422046261E+02 -0.63587494122E+01 -0.67980785380E+03  0.68498882171E+03  0.79576438436E+02 0.  0.
         -6    2    1    2    0  502  0.13314646769E+02  0.11411292075E+03 -0.13904725975E+04  0.14057252846E+04  0.17161145853E+03 0.  0.
        -24    2    5    5    0    0  0.53084589581E+01  0.10594017546E+03 -0.13863505452E+04  0.13926878721E+04  0.79750701289E+02 0.  0.
          5    1    3    3  501    0  0.13107399492E+02 -0.10775417134E+03 -0.39617986624E+03  0.41080815690E+03  0.47000000000E+01 0. -1.
        -13    1    4    4    0    0 -0.90163435102E+00  0.28747084115E+02 -0.46225510981E+03  0.46314899798E+03  0.00000000000E+00 0.  1.
         14    1    4    4    0    0 -0.25520411910E+02 -0.35105833527E+02 -0.21755274399E+03  0.22183982372E+03  0.00000000000E+00 0. -1.
         -5    1    5    5    0  502  0.80061878107E+01  0.81727452931E+01 -0.41220523243E+01  0.13037412483E+02  0.47000000000E+01 0.  1.
         11    1    6    6    0    0  0.29280408609E+02  0.46623809278E+02 -0.34419316652E+03  0.34856858407E+03  0.00000000000E+00 0. -1.
        -12    1    6    6    0    0 -0.23971949651E+02  0.59316366182E+02 -0.10421573787E+04  0.10441192880E+04  0.00000000000E+00 0.  1.
</event>
<event>
12    1  0.9966151E-001  0.1807828E+03  0.7818608E-02  0.1168074E+00
         21   -1    0    0  501  502  0.00000000000E+00  0.00000000000E+00  0.60698344634E+03  0.60698344634E+03  0.00000000000E+00 0. -1.
         21   -1    0    0  502  503 -0.00000000000E+00 -0.00000000000E+00 -0.55866029770E+02  0.55866029770E+02  0.00000000000E+00 0. -1.
         -6    2    1    2    0  503  0.33760173448E+01 -0.46473761921E+02  0.35267362552E+03  0.39440514191E+03  0.17031007542E+03 0.  0.
        -24    2    3    3    0    0  0.15767572698E+02 -0.84843434195E+02  0.16686869015E+03  0.20421748089E+03  0.80078680537E+02 0.  0.
          6    2    1    2  501    0 -0.33760173448E+01  0.46473761921E+02  0.19844379106E+03  0.26844433421E+03  0.17467459551E+03 0.  0.
         24    2    5    5    0    0 -0.93340583089E+01  0.93210422502E+02  0.98787327896E+02  0.15811159045E+03  0.80405418814E+02 0.  0.
          5    1    5    5  501    0  0.59580409642E+01 -0.46736660581E+02  0.99656463162E+02  0.11033274375E+03  0.47000000000E+01 0. -1.
        -13    1    6    6    0    0 -0.36615164549E+02  0.75762969977E+02  0.45249067749E+02  0.95541488511E+02  0.00000000000E+00 0.  1.
         14    1    6    6    0    0  0.27281106240E+02  0.17447452525E+02  0.53538260147E+02  0.62570101941E+02  0.00000000000E+00 0. -1.
         -5    1    3    3    0  503 -0.12391555353E+02  0.38369672273E+02  0.18580493537E+03  0.19018766101E+03  0.47000000000E+01 0.  1.
         13    1    4    4    0    0  0.10892800650E+02 -0.60850225443E+02  0.36964567241E+02  0.72026261001E+02  0.00000000000E+00 0. -1.
        -14    1    4    4    0    0  0.48747720478E+01 -0.23993208751E+02  0.12990412291E+03  0.13219121989E+03  0.00000000000E+00 0.  1.
</event>
<event>
12    1  0.9966151E-001  0.1729331E+03  0.7818608E-02  0.1174966E+00
         21   -1    0    0  503  502  0.00000000000E+00  0.00000000000E+00  0.29721137877E+03  0.29721137877E+03  0.00000000000E+00 0.  1.
         21   -1    0    0  501  503 -0.00000000000E+00 -0.00000000000E+00 -0.13735447233E+03  0.13735447233E+03  0.00000000000E+00 0.  1.
          6    2    1    2  501    0 -0.12199677118E+02  0.35551002570E+01  0.19269553539E+03  0.25854246482E+03  0.17190452552E+03 0.  0.
         24    2    3    3    0    0 -0.20038658354E+02 -0.10198286105E+02  0.18522837829E+02  0.83588688526E+02  0.78348072472E+02 0.  0.
         -6    2    1    2    0  502  0.12199677118E+02 -0.35551002570E+01 -0.32838628949E+02  0.17602338629E+03  0.17246560848E+03 0.  0.
        -24    2    5    5    0    0  0.60466611821E+02  0.97598482457E+01  0.20958605602E+02  0.10238088983E+03  0.79316566178E+02 0.  0.
          5    1    3    3  501    0  0.78389812361E+01  0.13753386362E+02  0.17417269756E+03  0.17495377629E+03  0.47000000000E+01 0. -1.
        -13    1    4    4    0    0 -0.16306501373E+02  0.15137751732E+02  0.42840026106E+02  0.48273402109E+02  0.00000000000E+00 0.  1.
         14    1    4    4    0    0 -0.37321569817E+01 -0.25336037836E+02 -0.24317188276E+02  0.35315286416E+02  0.00000000000E+00 0. -1.
         -5    1    5    5    0  502 -0.48266934703E+02 -0.13314948503E+02 -0.53797234551E+02  0.73642496458E+02  0.47000000000E+01 0.  1.
         11    1    6    6    0    0  0.56659088995E+02 -0.22715480586E+02  0.30610966447E+02  0.68288188517E+02  0.00000000000E+00 0. -1.
        -12    1    6    6    0    0  0.38075228260E+01  0.32475328832E+02 -0.96523608454E+01  0.34092701311E+02  0.00000000000E+00 0.  1.
</event>
<event>
12    1  0.9966151E-001  0.2263256E+03  0.7818608E-02  0.1129491E+00
         21   -1    0    0  503  502  0.00000000000E+00  0.00000000000E+00  0.37314849540E+03  0.37314849540E+03  0.00000000000E+00 0.  1.
         21   -1    0    0  501  503 -0.00000000000E+00 -0.00000000000E+00 -0.26826285232E+03  0.26826285232E+03  0.00000000000E+00 0.  1.
          6    2    1    2  501    0  0.49749412475E+02  0.13797232838E+03 -0.17241905976E+03  0.28347115292E+03  0.17063468267E+03 0.  0.
         24    2    3    3    0    0  0.97225814661E+02  0.83073940223E+02 -0.10558318218E+03  0.18469379560E+03  0.81300991347E+02 0.  0.
         -6    2    1    2    0  502 -0.49749412475E+02 -0.13797232838E+03  0.27730470284E+03  0.35794019480E+03  0.17237145180E+03 0.  0.
        -24    2    5    5    0    0  0.14020467135E+02 -0.13956798945E+03  0.17617197504E+03  0.23827791038E+03  0.77871693244E+02 0.  0.
          5    1    3    3  501    0 -0.47476402186E+02  0.54898388157E+02 -0.66835877579E+02  0.98777357317E+02  0.47000000000E+01 0. -1.
        -13    1    4    4    0    0  0.80339772988E+02  0.34997695066E+02 -0.10072121767E+03  0.13350685927E+03  0.00000000000E+00 0.  1.
         14    1    4    4    0    0  0.16886041673E+02  0.48076245157E+02 -0.48619645069E+01  0.51186936328E+02  0.00000000000E+00 0. -1.
         -5    1    5    5    0  502 -0.63769879611E+02  0.15956610696E+01  0.10113272780E+03  0.11966228442E+03  0.47000000000E+01 0.  1.
         13    1    6    6    0    0 -0.24657947922E+02 -0.10161132252E+03  0.13179765640E+03  0.16823643331E+03  0.00000000000E+00 0. -1.
        -14    1    6    6    0    0  0.38678415057E+02 -0.37956666931E+02  0.44374318635E+02  0.70041477070E+02  0.00000000000E+00 0.  1.
</event>
<event>
12    1  0.9966151E-001  0.2292620E+03  0.7818608E-02  0.1127350E+00
         21   -1    0    0  501  502  0.00000000000E+00  0.00000000000E+00  0.44017777355E+03  0.44017777355E+03  0.00000000000E+00 0.  1.
         21   -1    0    0  502  503 -0.00000000000E+00 -0.00000000000E+00 -0.13375735965E+03  0.13375735965E+03  0.00000000000E+00 0. -1.
         -6    2    1    2    0  503  0.14930779245E+03 -0.16848380362E+02  0.57734624645E+02  0.23641988257E+03  0.17316001036E+03 0.  0.
        -24    2    3    3    0    0  0.16051632321E+02 -0.40453836977E+02  0.42468156406E+01  0.90826416009E+02  0.79606749561E+02 0.  0.
          6    2    1    2  501    0 -0.14930779245E+03  0.16848380362E+02  0.24868578925E+03  0.33751525062E+03  0.17174177658E+03 0.  0.
         24    2    5    5    0    0 -0.58911987815E+02  0.26604252471E+02  0.32181559127E+02  0.10264773436E+03  0.72955438884E+02 0.  0.
          5    1    5    5  501    0 -0.90395804635E+02 -0.97558721095E+01  0.21650423012E+03  0.23486751627E+03  0.47000000000E+01 0. -1.
        -13    1    6    6    0    0  0.56121269712E+01 -0.16304141786E+02  0.15925760787E+02  0.23472342558E+02  0.00000000000E+00 0.  1.
         14    1    6    6    0    0 -0.64524114787E+02  0.42908394257E+02  0.16255798340E+02  0.79175391798E+02  0.00000000000E+00 0. -1.
         -5    1    3    3    0  503  0.13325616013E+03  0.23605456615E+02  0.53487809004E+02  0.14559346656E+03  0.47000000000E+01 0.  1.
         11    1    4    4    0    0  0.20557054926E+02  0.10383552621E+02 -0.23358036001E+02  0.32802568772E+02  0.00000000000E+00 0. -1.
        -12    1    4    4    0    0 -0.45054226047E+01 -0.50837389598E+02  0.27604851641E+02  0.58023847237E+02  0.00000000000E+00 0.  1.
</event>
<event>
12    1  0.9966151E-001  0.1850055E+03  0.7818608E-02  0.1163113E+00
         21   -1    0    0  501  502  0.00000000000E+00  0.00000000000E+00  0.15588326214E+04  0.15588326214E+04  0.00000000000E+00 0. -1.
         21   -1    0    0  502  503 -0.00000000000E+00 -0.00000000000E+00 -0.25912315058E+02  0.25912315058E+02  0.00000000000E+00 0. -1.
         -6    2    1    2    0  503  0.60322837011E+02 -0.28083004628E+02  0.10768881128E+04  0.10926144650E+04  0.17231036508E+03 0.  0.
        -24    2    3    3    0    0  0.47152108149E+02  0.50252592509E+02  0.66101147694E+03  0.66919339786E+03  0.78326156155E+02 0.  0.
          6    2    1    2  501    0 -0.60322837011E+02  0.28083004628E+02  0.45603219361E+03  0.49213047149E+03  0.17262543133E+03 0.  0.
         24    2    5    5    0    0  0.32546955527E+02  0.31084467716E+02  0.25936879412E+03  0.27457038818E+03  0.78046000908E+02 0.  0.
          5    1    5    5  501    0 -0.92869792537E+02 -0.30014630875E+01  0.19666339950E+03  0.21756008331E+03  0.47000000000E+01 0. -1.
        -11    1    6    6    0    0  0.13586502457E+02 -0.32349892600E+01  0.18552501942E+01  0.14089008404E+02  0.00000000000E+00 0.  1.
         12    1    6    6    0    0  0.18960453070E+02  0.34319456976E+02  0.25751354392E+03  0.26048137978E+03  0.00000000000E+00 0. -1.
         -5    1    3    3    0  503  0.13170728862E+02 -0.78335597138E+02  0.41587663584E+03  0.42342106716E+03  0.47000000000E+01 0.  1.
         11    1    4    4    0    0  0.59313612925E+02  0.42210082933E+02  0.33330570461E+03  0.34116343372E+03  0.00000000000E+00 0. -1.
        -12    1    4    4    0    0 -0.12161504776E+02  0.80425095760E+01  0.32770577233E+03  0.32802996414E+03  0.00000000000E+00 0.  1.
</event>
<event>
12    1  0.9966151E-001  0.3235388E+03  0.7818608E-02  0.1074490E+00
         21   -1    0    0  501  502  0.00000000000E+00  0.00000000000E+00  0.11393250482E+03  0.11393250482E+03  0.00000000000E+00 0. -1.
         21   -1    0    0  502  503 -0.00000000000E+00 -0.00000000000E+00 -0.93179659002E+03  0.93179659002E+03  0.00000000000E+00 0. -1.
         -6    2    1    2    0  503  0.19839771232E+03  0.18228844367E+03 -0.32682669639E+03  0.45988373148E+03  0.17912740732E+03 0.  0.
        -24    2    3    3    0    0  0.15450821563E+02  0.68029227359E+02 -0.85521543283E+02  0.13619406487E+03  0.79800910264E+02 0.  0.
          6    2    1    2  501    0 -0.19839771232E+03 -0.18228844367E+03 -0.49103738881E+03  0.58584536336E+03  0.17177410635E+03 0.  0.
         24    2    5    5    0    0 -0.20159935388E+03 -0.11725502112E+03 -0.43418379987E+03  0.49927737197E+03  0.79820314660E+02 0.  0.
          5    1    5    5  501    0  0.32016415630E+01 -0.65033422548E+02 -0.56853588940E+02  0.86567991384E+02  0.47000000000E+01 0. -1.
        -13    1    6    6    0    0 -0.19149937700E+03 -0.12027088610E+03 -0.43322508391E+03  0.48869322766E+03  0.00000000000E+00 0.  1.
         14    1    6    6    0    0 -0.10099976879E+02  0.30158649765E+01 -0.95871596041E+00  0.10584144311E+02  0.00000000000E+00 0. -1.
         -5    1    3    3    0  503  0.18294689076E+03  0.11425921631E+03 -0.24130515311E+03  0.32368966661E+03  0.47000000000E+01 0.  1.
         13    1    4    4    0    0 -0.18045497196E+01  0.53605438139E+02 -0.97077396951E+02  0.11090906364E+03  0.00000000000E+00 0. -1.
        -14    1    4    4    0    0  0.17255371282E+02  0.14423789220E+02  0.11555853668E+02  0.25285001237E+02  0.00000000000E+00 0.  1.
</event>
<event>
12    1  0.9966151E-001  0.2417470E+03  0.7818608E-02  0.1118649E+00
         21   -1    0    0  501  502  0.00000000000E+00  0.00000000000E+00  0.77045688402E+02  0.77045688402E+02  0.00000000000E+00 0.  1.
         21   -1    0    0  502  503 -0.00000000000E+00 -0.00000000000E+00 -0.88033223911E+03  0.88033223911E+03  0.00000000000E+00 0.  1.
         -6    2    1    2    0  503 -0.11356485169E+03  0.12611666991E+03 -0.22332678063E+03  0.32905083691E+03  0.17203840372E+03 0.  0.
        -24    2    3    3    0    0  0.96534060211E+01  0.52576550155E+02 -0.10397870887E+03  0.14235070172E+03  0.81207564354E+02 0.  0.
          6    2    1    2  501    0  0.11356485169E+03 -0.12611666991E+03 -0.57995977008E+03  0.62832709060E+03  0.17216041331E+03 0.  0.
         24    2    5    5    0    0 -0.25617109415E+01 -0.79077058450E+02 -0.21000212578E+03  0.23770085983E+03  0.78364930905E+02 0.  0.
          5    1    5    5  501    0  0.11612656263E+03 -0.47039611457E+02 -0.36995764430E+03  0.39062623078E+03  0.47000000000E+01 0. -1.
        -13    1    6    6    0    0 -0.80308762348E+01 -0.29788714459E+02 -0.17325066003E+03  0.17597628727E+03  0.00000000000E+00 0.  1.
         14    1    6    6    0    0  0.54691652934E+01 -0.49288343991E+02 -0.36751465750E+02  0.61724572555E+02  0.00000000000E+00 0. -1.
         -5    1    3    3    0  503 -0.12321825771E+03  0.73540119751E+02 -0.11934807176E+03  0.18670013518E+03  0.47000000000E+01 0.  1.
         13    1    4    4    0    0 -0.26706793697E+02  0.18075320791E+02 -0.67282457463E+01  0.32942971058E+02  0.00000000000E+00 0. -1.
        -14    1    4    4    0    0  0.36360199718E+02  0.34501229364E+02 -0.97250463124E+02  0.10940773066E+03  0.00000000000E+00 0.  1.
</event>
<event>
12    1  0.9966151E-001  0.2745343E+03  0.7818608E-02  0.1098749E+00
         21   -1    0    0  503  502  0.00000000000E+00  0.00000000000E+00  0.24930663501E+03  0.24930663501E+03  0.00000000000E+00 0.  1.
         21   -1    0    0  501  503 -0.00000000000E+00 -0.00000000000E+00 -0.30638031201E+03  0.30638031201E+03  0.00000000000E+00 0.  1.
          6    2    1    2  501    0  0.16298149557E+03 -0.13787262876E+03 -0.61644632260E+02  0.28111458070E+03  0.17220196613E+03 0.  0.
         24    2    3    3    0    0  0.15408767628E+02 -0.25788901476E+02 -0.62013437285E+00  0.85956820684E+02  0.80533799713E+02 0.  0.
         -6    2    1    2    0  502 -0.16298149557E+03  0.13787262876E+03  0.45709552676E+01  0.27457236632E+03  0.17261883170E+03 0.  0.
        -24    2    5    5    0    0 -0.99217771536E+02  0.75218123131E+02  0.70603525343E+02  0.16333482819E+03  0.78685933141E+02 0.  0.
          5    1    3    3  501    0  0.14757272794E+03 -0.11208372728E+03 -0.61024497888E+02  0.19515776002E+03  0.47000000000E+01 0. -1.
        -13    1    4    4    0    0 -0.28169655797E+01  0.28298742631E+02  0.38883761856E+01  0.28703198410E+02  0.00000000000E+00 0.  1.
         14    1    4    4    0    0  0.18225733208E+02 -0.54087644107E+02 -0.45085105585E+01  0.57253622274E+02  0.00000000000E+00 0. -1.
         -5    1    5    5    0  502 -0.63763724032E+02  0.62654505626E+02 -0.66032570075E+02  0.11123753813E+03  0.47000000000E+01 0.  1.
         13    1    6    6    0    0 -0.27097909158E+02 -0.10197074470E+02 -0.35746741488E+01  0.29172852170E+02  0.00000000000E+00 0. -1.
        -14    1    6    6    0    0 -0.72119862378E+02  0.85415197601E+02  0.74178199492E+02  0.13416197602E+03  0.00000000000E+00 0.  1.
</event>
<event>
12    1  0.9966151E-001  0.2004246E+03  0.7818608E-02  0.1149565E+00
         21   -1    0    0  501  502  0.00000000000E+00  0.00000000000E+00  0.23278704598E+03  0.23278704598E+03  0.00000000000E+00 0. -1.
         21   -1    0    0  502  503 -0.00000000000E+00 -0.00000000000E+00 -0.49968984622E+03  0.49968984622E+03  0.00000000000E+00 0. -1.
         -6    2    1    2    0  503  0.45862399752E+02 -0.92682833883E+02 -0.43001860692E+03  0.47406486322E+03  0.17066934356E+03 0.  0.
        -24    2    3    3    0    0 -0.41854958041E+02 -0.65810940051E+02 -0.22585807347E+03  0.25018979324E+03  0.74162968853E+02 0.  0.
          6    2    1    2  501    0 -0.45862399752E+02  0.92682833883E+02  0.16311580669E+03  0.25841202898E+03  0.17168734061E+03 0.  0.
         24    2    5    5    0    0 -0.90057549246E+00 -0.10675313319E+02  0.31238579606E+02  0.84866169753E+02  0.78177007886E+02 0.  0.
          5    1    5    5  501    0 -0.44961824260E+02  0.10335814720E+03  0.13187722708E+03  0.17354585923E+03  0.47000000000E+01 0. -1.
        -11    1    6    6    0    0  0.25817982037E+02  0.21613641583E+02  0.19325224342E+01  0.33726137370E+02  0.00000000000E+00 0.  1.
         12    1    6    6    0    0 -0.26718557529E+02 -0.32288954902E+02  0.29306057172E+02  0.51140032383E+02  0.00000000000E+00 0. -1.
         -5    1    3    3    0  503  0.87717357793E+02 -0.26871893832E+02 -0.20416053345E+03  0.22387506998E+03  0.47000000000E+01 0.  1.
         11    1    4    4    0    0 -0.10426488021E+02  0.14318073145E+02 -0.69339687958E+02  0.71566131635E+02  0.00000000000E+00 0. -1.
        -12    1    4    4    0    0 -0.31428470020E+02 -0.80129013196E+02 -0.15651838551E+03  0.17862366161E+03  0.00000000000E+00 0.  1.
</event>
<event>
12    1  0.9966151E-001  0.2372074E+03  0.7818608E-02  0.1121684E+00
         21   -1    0    0  501  502  0.00000000000E+00  0.00000000000E+00  0.14609293191E+03  0.14609293191E+03  0.00000000000E+00 0. -1.
         21   -1    0    0  502  503 -0.00000000000E+00 -0.00000000000E+00 -0.44823556496E+03  0.44823556496E+03  0.00000000000E+00 0. -1.
         -6    2    1    2    0  503  0.12240641952E+03 -0.10892422643E+03 -0.39474663461E+02  0.24046951449E+03  0.17152119315E+03 0.  0.
        -24    2    3    3    0    0  0.31961086599E+02 -0.79800734716E+02  0.31985342878E+02  0.12148565625E+03  0.79661999703E+02 0.  0.
          6    2    1    2  501    0 -0.12240641952E+03  0.10892422643E+03 -0.26266796958E+03  0.35385898238E+03  0.17138815164E+03 0.  0.
         24    2    5    5    0    0 -0.91406667909E+02  0.25492913614E+02 -0.22382995941E+03  0.25663630193E+03  0.82202634749E+02 0.  0.
          5    1    5    5  501    0 -0.30999751612E+02  0.83431312819E+02 -0.38838010174E+02  0.97222680446E+02  0.47000000000E+01 0. -1.
        -13    1    6    6    0    0 -0.49814110781E+02 -0.23511307003E+02 -0.64441481706E+02  0.84775773393E+02  0.00000000000E+00 0.  1.
         14    1    6    6    0    0 -0.41592557128E+02  0.49004220617E+02 -0.15938847770E+03  0.17186052854E+03  0.00000000000E+00 0. -1.
         -5    1    3    3    0  503  0.90445332922E+02 -0.29123491717E+02 -0.71460006339E+02  0.11898385825E+03  0.47000000000E+01 0.  1.
         11    1    4    4    0    0  0.57518861465E+02 -0.67873271030E+02  0.25418126246E+02  0.92527193227E+02  0.00000000000E+00 0. -1.
        -12    1    4    4    0    0 -0.25557774867E+02 -0.11927463686E+02  0.65672166318E+01  0.28958463019E+02  0.00000000000E+00 0.  1.
</event>
<event>
12    1  0.9966151E-001  0.3064637E+03  0.7818608E-02  0.1082069E+00
         21   -1    0    0  501  502  0.00000000000E+00  0.00000000000E+00  0.20184782180E+04  0.20184782180E+04  0.00000000000E+00 0. -1.
         21   -1    0    0  502  503 -0.00000000000E+00 -0.00000000000E+00 -0.48470995157E+02  0.48470995157E+02  0.00000000000E+00 0. -1.
         -6    2    1    2    0  503  0.19470695161E+03  0.16318345407E+03  0.11926554135E+04  0.12313680740E+04  0.17117465195E+03 0.  0.
        -24    2    3    3    0    0  0.10658319001E+03  0.94569576403E+02  0.95024024680E+03  0.96442076713E+03  0.82749672228E+02 0.  0.
          6    2    1    2  501    0 -0.19470695161E+03 -0.16318345407E+03  0.77735180928E+03  0.83558113915E+03  0.17140702447E+03 0.  0.
         24    2    5    5    0    0 -0.15871395053E+03 -0.17002577877E+03  0.75072235177E+03  0.79004509254E+03  0.80550079209E+02 0.  0.
          5    1    5    5  501    0 -0.35993001084E+02  0.68423246973E+01  0.26629457508E+02  0.45536046616E+02  0.47000000000E+01 0. -1.
        -13    1    6    6    0    0 -0.24396071043E+02 -0.43796987484E+02  0.28127957035E+03  0.28571233976E+03  0.00000000000E+00 0.  1.
         14    1    6    6    0    0 -0.13431787948E+03 -0.12622879129E+03  0.46944278142E+03  0.50433275278E+03  0.00000000000E+00 0. -1.
         -5    1    3    3    0  503  0.88123761597E+02  0.68613877671E+02  0.24241516672E+03  0.26694730682E+03  0.47000000000E+01 0.  1.
         13    1    4    4    0    0  0.59648384356E+01 -0.12747479728E+02  0.40796261570E+02  0.43155677437E+02  0.00000000000E+00 0. -1.
        -14    1    4    4    0    0  0.10061835158E+03  0.10731705613E+03  0.90944398523E+03  0.92126508969E+03  0.00000000000E+00 0.  1.
</event>
<event>
12    1  0.9966151E-001  0.1893760E+03  0.7818608E-02  0.1159235E+00
         21   -1    0    0  503  502  0.00000000000E+00  0.00000000000E+00  0.93954563221E+02  0.93954563221E+02  0.00000000000E+00 0.  1.
         21   -1    0    0  501  503 -0.00000000000E+00 -0.00000000000E+00 -0.39181886989E+03  0.39181886989E+03  0.00000000000E+00 0.  1.
          6    2    1    2  501    0 -0.32282435029E+02  0.71672662233E+02 -0.10613254871E+03  0.21628440312E+03  0.17127667387E+03 0.  0.
         24    2    3    3    0    0 -0.69255035037E+02  0.34208898988E+02 -0.16330414297E+02  0.11208737795E+03  0.79563743108E+02 0.  0.
         -6    2    1    2    0  502  0.32282435029E+02 -0.71672662233E+02 -0.19173175796E+03  0.26948903000E+03  0.17229087078E+03 0.  0.
        -24    2    5    5    0    0  0.18638488513E+02 -0.93177513485E+02 -0.68848237195E+02  0.14390612678E+03  0.83303369004E+02 0.  0.
          5    1    3    3  501    0  0.36972600007E+02  0.37463763244E+02 -0.89802134414E+02  0.10419702516E+03  0.47000000000E+01 0. -1.
        -13    1    4    4    0    0 -0.36073963658E+02 -0.24326707284E+02 -0.86864527221E+01  0.44368615058E+02  0.00000000000E+00 0.  1.
         14    1    4    4    0    0 -0.33181071379E+02  0.58535606272E+02 -0.76439615753E+01  0.67718762895E+02  0.00000000000E+00 0. -1.
         -5    1    5    5    0  502  0.13643946517E+02  0.21504851252E+02 -0.12288352076E+03  0.12558290321E+03  0.47000000000E+01 0.  1.
         11    1    6    6    0    0 -0.11926592571E+02 -0.69387492507E+01  0.14587992271E+02  0.20079824949E+02  0.00000000000E+00 0. -1.
        -12    1    6    6    0    0  0.30565081083E+02 -0.86238764234E+02 -0.83436229466E+02  0.12382630183E+03  0.00000000000E+00 0.  1.
</event>
<event>
12    1  0.9966151E-001  0.1747718E+03  0.7818608E-02  0.1173241E+00
         21   -1    0    0  503  502  0.00000000000E+00  0.00000000000E+00  0.11084106643E+03  0.11084106643E+03  0.00000000000E+00 0.  1.
         21   -1    0    0  501  503 -0.00000000000E+00 -0.00000000000E+00 -0.28635950032E+03  0.28635950032E+03  0.00000000000E+00 0.  1.
          6    2    1    2  501    0  0.17295424106E+02  0.22114461433E+02 -0.46486686096E+02  0.18084854655E+03  0.17250218464E+03 0.  0.
         24    2    3    3    0    0 -0.27840974900E+02  0.68283713457E+02 -0.10734797205E+02  0.10689462910E+03  0.76638374537E+02 0.  0.
         -6    2    1    2    0  502 -0.17295424106E+02 -0.22114461433E+02 -0.12903174780E+03  0.21635202019E+03  0.17137918078E+03 0.  0.
        -24    2    5    5    0    0 -0.49753137801E+02 -0.35947529554E+02 -0.14506903030E+03  0.17731176684E+03  0.81405402184E+02 0.  0.
          5    1    3    3  501    0  0.45136399006E+02 -0.46169252023E+02 -0.35751888891E+02  0.73953917455E+02  0.47000000000E+01 0. -1.
        -13    1    4    4    0    0 -0.26148516798E+02  0.16794975719E+02 -0.37610548852E+02  0.48789030786E+02  0.00000000000E+00 0.  1.
         14    1    4    4    0    0 -0.16924581021E+01  0.51488737738E+02  0.26875751648E+02  0.58105598309E+02  0.00000000000E+00 0. -1.
         -5    1    5    5    0  502  0.32457713695E+02  0.13833068121E+02  0.16037282505E+02  0.39040253356E+02  0.47000000000E+01 0.  1.
         13    1    6    6    0    0 -0.90947755585E+01  0.22210401074E+02 -0.12776447855E+02  0.27189234600E+02  0.00000000000E+00 0. -1.
        -14    1    6    6    0    0 -0.40658362242E+02 -0.58157930629E+02 -0.13229258245E+03  0.15012253224E+03  0.00000000000E+00 0.  1.
</event>
<event>
12    1  0.9966151E-001  0.2245420E+03  0.7818608E-02  0.1131206E+00
         21   -1    0    0  503  502  0.00000000000E+00  0.00000000000E+00  0.75546542574E+02  0.75546542574E+02  0.00000000000E+00 0.  1.
         21   -1    0    0  501  503 -0.00000000000E+00 -0.00000000000E+00 -0.68327532778E+03  0.68327532778E+03  0.00000000000E+00 0.  1.
          6    2    1    2  501    0  0.64361424273E+02 -0.12309724559E+03 -0.38114709498E+03  0.44237111005E+03  0.17641929086E+03 0.  0.
         24    2    3    3    0    0  0.93185862921E+02 -0.28647140242E+02 -0.21338475871E+03  0.24764575953E+03  0.79316475411E+02 0.  0.
         -6    2    1    2    0  502 -0.64361424273E+02  0.12309724559E+03 -0.22658169023E+03  0.31645076031E+03  0.17177455151E+03 0.  0.
        -24    2    5    5    0    0 -0.13970301445E+02  0.10543668338E+03 -0.65496111321E+02  0.14668087355E+03  0.76899119260E+02 0.  0.
          5    1    3    3  501    0 -0.28824438648E+02 -0.94450105345E+02 -0.16776233627E+03  0.19472535051E+03  0.47000000000E+01 0. -1.
        -13    1    4    4    0    0  0.14626862829E+01  0.12093664041E+02 -0.38849787067E+00  0.12187989649E+02  0.00000000000E+00 0.  1.
         14    1    4    4    0    0  0.91723176638E+02 -0.40740804283E+02 -0.21299626084E+03  0.23545776988E+03  0.00000000000E+00 0. -1.
         -5    1    5    5    0  502 -0.50391122828E+02  0.17660562206E+02 -0.16108557891E+03  0.16976988676E+03  0.47000000000E+01 0. -1.
         13    1    6    6    0    0  0.31385929931E+02  0.46160455790E+02 -0.36022424846E+02  0.66434022670E+02  0.00000000000E+00 0. -1.
        -14    1    6    6    0    0 -0.45356231376E+02  0.59276227591E+02 -0.29473686475E+02  0.80246850881E+02  0.00000000000E+00 0.  1.
</event>
<event>
12    1  0.9966151E-001  0.1822457E+03  0.7818608E-02  0.1166754E+00
         21   -1    0    0  503  502  0.00000000000E+00  0.00000000000E+00  0.32554164371E+02  0.32554164371E+02  0.00000000000E+00 0.  1.
         21   -1    0    0  501  503 -0.00000000000E+00 -0.00000000000E+00 -0.99548917816E+03  0.99548917816E+03  0.00000000000E+00 0.  1.
          6    2    1    2  501    0 -0.16377489562E+01 -0.45070961908E+02 -0.50162117207E+03  0.53370150815E+03  0.17657696820E+03 0.  0.
         24    2    3    3    0    0  0.37957753618E+02  0.21798358367E+02 -0.36743634058E+03  0.37856618393E+03  0.79918281690E+02 0.  0.
         -6    2    1    2    0  502  0.16377489562E+01  0.45070961908E+02 -0.46131384172E+03  0.49434183438E+03  0.17184095796E+03 0.  0.
        -24    2    5    5    0    0  0.58662437096E+02  0.35916901921E+02 -0.22119132192E+03  0.24732659925E+03  0.86680680874E+02 0.  0.
          5    1    3    3  501    0 -0.39595502574E+02 -0.66869320275E+02 -0.13418483149E+03  0.15513532422E+03  0.47000000000E+01 0. -1.
        -13    1    4    4    0    0  0.25045042415E+02  0.68903901443E+01 -0.35341271766E+03  0.35436602634E+03  0.00000000000E+00 0.  1.
         14    1    4    4    0    0  0.12912711203E+02  0.14907968223E+02 -0.14023622920E+02  0.24200157581E+02  0.00000000000E+00 0. -1.
         -5    1    5    5    0  502 -0.57024688139E+02  0.91540599862E+01 -0.24012251980E+03  0.24701523513E+03  0.47000000000E+01 0.  1.
         11    1    6    6    0    0  0.29263962084E+02 -0.21968603227E+02 -0.37043931601E+02  0.52069682859E+02  0.00000000000E+00 0. -1.
        -12    1    6    6    0    0  0.29398475012E+02  0.57885505149E+02 -0.18414739032E+03  0.19525691639E+03  0.00000000000E+00 0.  1.
</event>
<event>
12    1  0.9966151E-001  0.1951850E+03  0.7818608E-02  0.1154166E+00
         21   -1    0    0  503  502  0.00000000000E+00  0.00000000000E+00  0.10042311738E+04  0.10042311738E+04  0.00000000000E+00 0.  1.
         21   -1    0    0  501  503 -0.00000000000E+00 -0.00000000000E+00 -0.42455796361E+02  0.42455796361E+02  0.00000000000E+00 0.  1.
          6    2    1    2  501    0 -0.90442993944E+02  0.91515975629E+01  0.65508539522E+03  0.68315442225E+03  0.17117068299E+03 0.  0.
         24    2    3    3    0    0 -0.93807908115E+02 -0.49817565897E+01  0.65620163343E+03  0.66784395737E+03  0.81180207871E+02 0.  0.
         -6    2    1    2    0  502  0.90442993944E+02 -0.91515975629E+01  0.30668998223E+03  0.36353254792E+03  0.17272371380E+03 0.  0.
        -24    2    5    5    0    0  0.11166712522E+03 -0.42058656669E+02  0.28409867059E+03  0.31808152319E+03  0.78900718050E+02 0.  0.
          5    1    3    3  501    0  0.33649141717E+01  0.14133354153E+02 -0.11162382159E+01  0.15310464877E+02  0.47000000000E+01 0. -1.
        -13    1    4    4    0    0  0.71141249925E+01 -0.19591544042E+02  0.78982352615E+02  0.81686298711E+02  0.00000000000E+00 0.  1.
         14    1    4    4    0    0 -0.10092203311E+03  0.14609787452E+02  0.57721928082E+03  0.58615765866E+03  0.00000000000E+00 0. -1.
         -5    1    5    5    0  502 -0.21224131277E+02  0.32907059107E+02  0.22591311638E+02  0.45451024730E+02  0.47000000000E+01 0.  1.
         13    1    6    6    0    0 -0.27974355528E+01  0.75881526087E+01  0.68562160823E+02  0.69037494178E+02  0.00000000000E+00 0. -1.
        -14    1    6    6    0    0  0.11446456077E+03 -0.49646809278E+02  0.21553650976E+03  0.24904402901E+03  0.00000000000E+00 0.  1.
</event>
<event>
12    1  0.9966151E-001  0.1729133E+03  0.7818608E-02  0.1174917E+00
         21   -1    0    0  501  502  0.00000000000E+00  0.00000000000E+00  0.55263920616E+03  0.55263920616E+03  0.00000000000E+00 0.  1.
         21   -1    0    0  502  503 -0.00000000000E+00 -0.00000000000E+00 -0.59817394350E+02  0.59817394350E+02  0.00000000000E+00 0.  1.
         -6    2    1    2    0  503 -0.57395775337E+00 -0.15785344652E+02  0.15119517484E+03  0.22969325807E+03  0.17219031732E+03 0.  0.
        -24    2    3    3    0    0  0.20857405394E+02 -0.70415331721E+02  0.12602004785E+03  0.16566501562E+03  0.78552496059E+02 0.  0.
          6    2    1    2  501    0  0.57395775337E+00  0.15785344652E+02  0.34162663697E+03  0.38276334244E+03  0.17189971114E+03 0.  0.
         24    2    5    5    0    0  0.57210155142E+01  0.60956334659E+02  0.31307471859E+03  0.32887259569E+03  0.79956238152E+02 0.  0.
          5    1    5    5  501    0 -0.51470577608E+01 -0.45170990007E+02  0.28551918378E+02  0.53890746746E+02  0.47000000000E+01 0. -1.
        -11    1    6    6    0    0  0.58677680048E+01 -0.18762911920E+02  0.43057910774E+02  0.47333510807E+02  0.00000000000E+00 0.  1.
         12    1    6    6    0    0 -0.14675249064E+00  0.79719246579E+02  0.27001680782E+03  0.28153908488E+03  0.00000000000E+00 0. -1.
         -5    1    3    3    0  503 -0.21431363147E+02  0.54629987069E+02  0.25175126985E+02  0.64028242458E+02  0.47000000000E+01 0.  1.
         11    1    4    4    0    0 -0.69445016378E+00 -0.81344425479E+01  0.90366627033E+02  0.90734660951E+02  0.00000000000E+00 0. -1.
        -12    1    4    4    0    0  0.21551855558E+02 -0.62280889173E+02  0.35653420822E+02  0.74930354667E+02  0.00000000000E+00 0.  1.
</event>
<event>
12    1  0.9966151E-001  0.1911528E+03  0.7818608E-02  0.1157743E+00
         21   -1    0    0  501  502  0.00000000000E+00  0.00000000000E+00  0.10165139126E+04  0.10165139126E+04  0.00000000000E+00 0. -1.
         21   -1    0    0  502  503 -0.00000000000E+00 -0.00000000000E+00 -0.55246591422E+02  0.55246591422E+02  0.00000000000E+00 0. -1.
         -6    2    1    2    0  503 -0.60115129761E+02 -0.57099723034E+02  0.79838836793E+03  0.82062518758E+03  0.17066782138E+03 0.  0.
        -24    2    3    3    0    0 -0.69668290888E+02  0.56800949199E+01  0.30667219149E+03  0.32480318666E+03  0.81014460415E+02 0.  0.
          6    2    1    2  501    0  0.60115129761E+02  0.57099723034E+02  0.16287895327E+03  0.25113531646E+03  0.17223584574E+03 0.  0.
         24    2    5    5    0    0 -0.91936280288E+00  0.19199044967E+02  0.14026965987E+02  0.85785158314E+02  0.82418984806E+02 0.  0.
          5    1    5    5  501    0  0.61034492564E+02  0.37900678067E+02  0.14885198728E+03  0.16535015814E+03  0.47000000000E+01 0. -1.
        -11    1    6    6    0    0 -0.60560767524E+01  0.45662065927E+02  0.29504254723E+02  0.54701018063E+02  0.00000000000E+00 0.  1.
         12    1    6    6    0    0  0.51367139495E+01 -0.26463020960E+02 -0.15477288736E+02  0.31084140251E+02  0.00000000000E+00 0. -1.
         -5    1    3    3    0  503  0.95531611269E+01 -0.62779817954E+02  0.49171617644E+03  0.49582200093E+03  0.47000000000E+01 0.  1.
         13    1    4    4    0    0 -0.31302513446E+01  0.16611792333E+02  0.81612143795E+01  0.18771135771E+02  0.00000000000E+00 0. -1.
        -14    1    4    4    0    0 -0.66538039544E+02 -0.10931697413E+02  0.29851097711E+03  0.30603205089E+03  0.00000000000E+00 0.  1.
</event>
<event>
12    1  0.9966151E-001  0.2143810E+03  0.7818608E-02  0.1138224E+00
         21   -1    0    0  501  502  0.00000000000E+00  0.00000000000E+00  0.15192777422E+03  0.15192777422E+03  0.00000000000E+00 0.  1.
         21   -1    0    0  502  503 -0.00000000000E+00 -0.00000000000E+00 -0.32559228232E+03  0.32559228232E+03  0.00000000000E+00 0.  1.
         -6    2    1    2    0  503  0.10264876586E+03 -0.76769264464E+02 -0.22528518922E+02  0.21556151316E+03  0.17183987515E+03 0.  0.
        -24    2    3    3    0    0  0.11170725116E+03 -0.12591898177E+02  0.17352375961E+02  0.13931607870E+03  0.80441276537E+02 0.  0.
          6    2    1    2  501    0 -0.10264876586E+03  0.76769264464E+02 -0.15113598917E+03  0.26195854337E+03  0.17131813134E+03 0.  0.
         24    2    5    5    0    0 -0.56629960914E+02  0.11243295270E+03 -0.13549539094E+03  0.20149080503E+03  0.79946370921E+02 0.  0.
          5    1    5    5  501    0 -0.46018804945E+02 -0.35663688231E+02 -0.15640598238E+02  0.60467738341E+02  0.47000000000E+01 0. -1.
        -11    1    6    6    0    0  0.18719932414E+02  0.14877572266E+02 -0.35314787547E+02  0.42648707432E+02  0.00000000000E+00 0.  1.
         12    1    6    6    0    0 -0.75349893328E+02  0.97555380429E+02 -0.10018060339E+03  0.15884209760E+03  0.00000000000E+00 0. -1.
         -5    1    3    3    0  503 -0.90584853017E+01 -0.64177366288E+02 -0.39880894883E+02  0.76245434462E+02  0.47000000000E+01 0.  1.
         13    1    4    4    0    0  0.17933469621E+02  0.28914586463E+02  0.13767678421E+02  0.36704381375E+02  0.00000000000E+00 0. -1.
        -14    1    4    4    0    0  0.93773781539E+02 -0.41506484640E+02  0.35846975401E+01  0.10261169732E+03  0.00000000000E+00 0.  1.
</event>
<event>
12    1  0.9966151E-001  0.1958876E+03  0.7818608E-02  0.1153366E+00
         21   -1    0    0  503  502  0.00000000000E+00  0.00000000000E+00  0.14237262202E+04  0.14237262202E+04  0.00000000000E+00 0.  1.
         21   -1    0    0  501  503 -0.00000000000E+00 -0.00000000000E+00 -0.32863216547E+02  0.32863216547E+02  0.00000000000E+00 0.  1.
          6    2    1    2  501    0  0.27028593149E+02 -0.88728619660E+02  0.38546314204E+03  0.43238151611E+03  0.17253587686E+03 0.  0.
         24    2    3    3    0    0 -0.14320875327E+02 -0.27165811693E+02  0.79536236827E+02  0.11755915476E+03  0.80938699675E+02 0.  0.
         -6    2    1    2    0  502 -0.27028593149E+02  0.88728619660E+02  0.10053998617E+04  0.10242079207E+04  0.17195833850E+03 0.  0.
        -24    2    5    5    0    0  0.48280505190E+02  0.70199916159E+02  0.54026849653E+03  0.55263178688E+03  0.79074699634E+02 0.  0.
          5    1    3    3  501    0  0.41349468477E+02 -0.61562807967E+02  0.30592690522E+03  0.31482236135E+03  0.47000000000E+01 0. -1.
        -11    1    4    4    0    0 -0.38792169687E+02 -0.38294113901E+02  0.32726051430E+02  0.63578817468E+02  0.00000000000E+00 0.  1.
         12    1    4    4    0    0  0.24471294359E+02  0.11128302208E+02  0.46810185397E+02  0.53980337296E+02  0.00000000000E+00 0. -1.
         -5    1    5    5    0  502 -0.75309098339E+02  0.18528703501E+02  0.46513136512E+03  0.47157613380E+03  0.47000000000E+01 0.  1.
         11    1    6    6    0    0  0.44665089862E+02  0.19130221853E+02  0.12324664289E+03  0.13247894408E+03  0.00000000000E+00 0. -1.
        -12    1    6    6    0    0  0.36154153280E+01  0.51069694306E+02  0.41702185364E+03  0.42015284281E+03  0.00000000000E+00 0.  1.
</event>
<event>
12    1  0.9966151E-001  0.2652679E+03  0.7818608E-02  0.1104072E+00
         21   -1    0    0  503  502  0.00000000000E+00  0.00000000000E+00  0.42158391932E+03  0.42158391932E+03  0.00000000000E+00 0.  1.
         21   -1    0    0  501  503 -0.00000000000E+00 -0.00000000000E+00 -0.36383233268E+03  0.36383233268E+03  0.00000000000E+00 0.  1.
          6    2    1    2  501    0  0.19529700130E+03  0.48369577861E+02  0.31794745096E+03  0.41383992785E+03  0.17231473973E+03 0.  0.
         24    2    3    3    0    0  0.25337306817E+02 -0.37902803665E+01  0.74379614419E+02  0.11225357279E+03  0.80076165120E+02 0.  0.
         -6    2    1    2    0  502 -0.19529700130E+03 -0.48369577861E+02 -0.26019586432E+03  0.37157632415E+03  0.17287724570E+03 0.  0.
        -24    2    5    5    0    0 -0.20334819613E+03 -0.45776461801E+02 -0.27525249970E+03  0.35367832824E+03  0.76671037253E+02 0.  0.
          5    1    3    3  501    0  0.16995969448E+03  0.52159858227E+02  0.24356783654E+03  0.30158635506E+03  0.47000000000E+01 0. -1.
        -13    1    4    4    0    0  0.11934668269E+02  0.36951465238E+02  0.48617746538E+02  0.62221639068E+02  0.00000000000E+00 0.  1.
         14    1    4    4    0    0  0.13402638548E+02 -0.40741745604E+02  0.25761867881E+02  0.50031933719E+02  0.00000000000E+00 0. -1.
         -5    1    5    5    0  502  0.80511948249E+01 -0.25931160595E+01  0.15056635372E+02  0.17897995914E+02  0.47000000000E+01 0.  1.
         11    1    6    6    0    0 -0.37359643488E+02  0.49267450295E+01 -0.14355089410E+02  0.40324736454E+02  0.00000000000E+00 0. -1.
        -12    1    6    6    0    0 -0.16598855264E+03 -0.50703206831E+02 -0.26089741029E+03  0.31335359178E+03  0.00000000000E+00 0.  1.
</event>
<event>
12    1  0.9966151E-001  0.1937659E+03  0.7818608E-02  0.1155634E+00
         21   -1    0    0  503  502  0.00000000000E+00  0.00000000000E+00  0.49669972167E+03  0.49669972167E+03  0.00000000000E+00 0. -1.
         21   -1    0    0  501  503 -0.00000000000E+00 -0.00000000000E+00 -0.19365945842E+03  0.19365945842E+03  0.00000000000E+00 0. -1.
          6    2    1    2  501    0 -0.21354092716E+02 -0.82772066850E+02  0.42245500217E+03  0.46477249452E+03  0.17389085794E+03 0.  0.
         24    2    3    3    0    0 -0.66580174448E+02 -0.90148128334E+02  0.37028975713E+03  0.39518005569E+03  0.80580193025E+02 0.  0.
         -6    2    1    2    0  502  0.21354092716E+02  0.82772066850E+02 -0.11941473892E+03  0.22558668557E+03  0.17123743899E+03 0.  0.
        -24    2    5    5    0    0  0.74931080701E+02  0.35944131656E+02 -0.67892371312E+02  0.13760945261E+03  0.86141394866E+02 0.  0.
          5    1    3    3  501    0  0.45226081732E+02  0.73760614848E+01  0.52165245042E+02  0.69592438829E+02  0.47000000000E+01 0. -1.
        -11    1    4    4    0    0  0.20855098939E+01  0.13312313892E+02  0.28280842207E+02  0.31326874862E+02  0.00000000000E+00 0.  1.
         12    1    4    4    0    0 -0.68665684342E+02 -0.10346044223E+03  0.34200891492E+03  0.36385318083E+03  0.00000000000E+00 0. -1.
         -5    1    5    5    0  502 -0.53576987986E+02  0.46827935194E+02 -0.51522367606E+02  0.87977232963E+02  0.47000000000E+01 0.  1.
         13    1    6    6    0    0  0.85045382924E+02  0.41734114418E+02 -0.32190269784E+02  0.10005332044E+03  0.00000000000E+00 0. -1.
        -14    1    6    6    0    0 -0.10114302222E+02 -0.57899827620E+01 -0.35702101528E+02  0.37556132167E+02  0.00000000000E+00 0.  1.
</event>
<event>
12    1  0.9966151E-001  0.1865133E+03  0.7818608E-02  0.1162215E+00
         21   -1    0    0  503  502  0.00000000000E+00  0.00000000000E+00  0.32402301834E+03  0.32402301834E+03  0.00000000000E+00 0.  1.
         21   -1    0    0  501  503 -0.00000000000E+00 -0.00000000000E+00 -0.15198644679E+03  0.15198644679E+03  0.00000000000E+00 0.  1.
          6    2    1    2  501    0 -0.19434743651E+00 -0.71352241974E+02 -0.45363398210E+02  0.18956579481E+03  0.16966488282E+03 0.  0.
         24    2    3    3    0    0  0.62551984735E+02 -0.58460748755E+02 -0.99242679226E+01  0.11620834970E+03  0.77945362315E+02 0.  0.
         -6    2    1    2    0  502  0.19434743651E+00  0.71352241974E+02  0.21739996976E+03  0.28644367032E+03  0.17232541661E+03 0.  0.
        -24    2    5    5    0    0 -0.22629882601E+02  0.10624447951E+03  0.11178795601E+03  0.17280212350E+03  0.74592397493E+02 0.  0.
          5    1    3    3  501    0 -0.62746332172E+02 -0.12891493219E+02 -0.35439130287E+02  0.73357445116E+02  0.47000000000E+01 0. -1.
        -11    1    4    4    0    0  0.18946246809E+02 -0.59017239567E+02  0.17853313936E+02  0.64503764640E+02  0.00000000000E+00 0.  1.
         12    1    4    4    0    0  0.43605737927E+02  0.55649081223E+00 -0.27777581858E+02  0.51704585058E+02  0.00000000000E+00 0. -1.
         -5    1    5    5    0  502  0.22824230037E+02 -0.34892237532E+02  0.10561201375E+03  0.11364154682E+03  0.47000000000E+01 0.  1.
         13    1    6    6    0    0 -0.38970116218E+02  0.32664646250E+02  0.70309982729E+02  0.86770632958E+02  0.00000000000E+00 0. -1.
        -14    1    6    6    0    0  0.16340233617E+02  0.73579833255E+02  0.41477973283E+02  0.86031490538E+02  0.00000000000E+00 0.  1.
</event>
<event>
12    1  0.9966151E-001  0.1851739E+03  0.7818608E-02  0.1164953E+00
         21   -1    0    0  503  502  0.00000000000E+00  0.00000000000E+00  0.10328867994E+04  0.10328867994E+04  0.00000000000E+00 0. -1.
         21   -1    0    0  501  503 -0.00000000000E+00 -0.00000000000E+00 -0.58476609453E+02  0.58476609453E+02  0.00000000000E+00 0. -1.
          6    2    1    2  501    0  0.43221451897E+02 -0.25294305980E+02  0.86292152428E+03  0.88256611361E+03  0.17827364360E+03 0.  0.
         24    2    3    3    0    0  0.73533540953E+02 -0.43201558394E+02  0.36779675344E+03  0.38616897308E+03  0.81107753201E+02 0.  0.
         -6    2    1    2    0  502 -0.43221451897E+02  0.25294305980E+02  0.11148866562E+03  0.20879729520E+03  0.16928878316E+03 0.  0.
        -24    2    5    5    0    0  0.75760455632E+01  0.64541576815E+02  0.99396699618E+02  0.14330653510E+03  0.80212514637E+02 0.  0.
          5    1    3    3  501    0 -0.30312089056E+02  0.17907252414E+02  0.49512477084E+03  0.49639714053E+03  0.47000000000E+01 0. -1.
        -13    1    4    4    0    0  0.43238323502E+02 -0.16137234968E+02  0.59967396407E+02  0.75670678625E+02  0.00000000000E+00 0.  1.
         14    1    4    4    0    0  0.30295217451E+02 -0.27064323426E+02  0.30782935704E+03  0.31049829445E+03  0.00000000000E+00 0. -1.
         -5    1    5    5    0  502 -0.50797497461E+02 -0.39247270836E+02  0.12091966003E+02  0.65490760097E+02  0.47000000000E+01 0.  1.
         11    1    6    6    0    0  0.83568187195E+01 -0.18390667627E+02  0.17060998737E+02  0.26441080779E+02  0.00000000000E+00 0. -1.
        -12    1    6    6    0    0 -0.78077315628E+00  0.82932244442E+02  0.82335700881E+02  0.11686545432E+03  0.00000000000E+00 0.  1.
</event>
<event>
12    1  0.9966151E-001  0.2550722E+03  0.7818608E-02  0.1110401E+00
         21   -1    0    0  503  502  0.00000000000E+00  0.00000000000E+00  0.20773951718E+03  0.20773951718E+03  0.00000000000E+00 0.  1.
         21   -1    0    0  501  503 -0.00000000000E+00 -0.00000000000E+00 -0.31518359215E+03  0.31518359215E+03  0.00000000000E+00 0.  1.
          6    2    1    2  501    0 -0.14414859714E+03  0.11783932097E+03 -0.24230610492E+02  0.25622047615E+03  0.17434702834E+03 0.  0.
         24    2    3    3    0    0 -0.10870030321E+03  0.62338908321E+02 -0.81443158940E+02  0.16885776645E+03  0.78600647222E+02 0.  0.
         -6    2    1    2    0  502  0.14414859714E+03 -0.11783932097E+03 -0.83213464472E+02  0.26670263318E+03  0.17187463527E+03 0.  0.
        -24    2    5    5    0    0  0.48044331746E+02 -0.12591679879E+03 -0.51462934992E+02  0.16505883554E+03  0.80204036569E+02 0.  0.
          5    1    3    3  501    0 -0.35448293930E+02  0.55500412648E+02  0.57212548447E+02  0.87362709702E+02  0.47000000000E+01 0. -1.
        -13    1    4    4    0    0  0.82980663443E+01 -0.27582640065E+01 -0.19425303240E+02  0.21302777550E+02  0.00000000000E+00 0.  1.
         14    1    4    4    0    0 -0.11699836956E+03  0.65097172328E+02 -0.62017855699E+02  0.14755498890E+03  0.00000000000E+00 0. -1.
         -5    1    5    5    0  502  0.96104265397E+02  0.80774778239E+01 -0.31750529480E+02  0.10164379764E+03  0.47000000000E+01 0.  1.
         13    1    6    6    0    0  0.55866315664E+02 -0.10141409565E+03 -0.68195306185E+02  0.13437434208E+03  0.00000000000E+00 0. -1.
        -14    1    6    6    0    0 -0.78219839179E+01 -0.24502703139E+02  0.16732371193E+02  0.30684493466E+02  0.00000000000E+00 0.  1.
</event>
<event>
12    1  0.9966151E-001  0.2327102E+03  0.7818608E-02  0.1124803E+00
         21   -1    0    0  503  502  0.00000000000E+00  0.00000000000E+00  0.40749132523E+03  0.40749132523E+03  0.00000000000E+00 0. -1.
         21   -1    0    0  501  503 -0.00000000000E+00 -0.00000000000E+00 -0.13331528373E+03  0.13331528373E+03  0.00000000000E+00 0. -1.
          6    2    1    2  501    0  0.15462608416E+03  0.19569848437E+02  0.15539846287E+03  0.27982625251E+03  0.17280579985E+03 0.  0.
         24    2    3    3    0    0  0.18413370530E+03  0.11469450971E+02  0.12759388671E+03  0.23821494875E+03  0.80183490494E+02 0.  0.
         -6    2    1    2    0  502 -0.15462608416E+03 -0.19569848437E+02  0.11877757863E+03  0.26098035646E+03  0.17236713260E+03 0.  0.
        -24    2    5    5    0    0 -0.16414153641E+03 -0.46115568788E+02  0.64106720499E+02  0.19928585241E+03  0.80846086472E+02 0.  0.
          5    1    3    3  501    0 -0.29507621147E+02  0.81003974663E+01  0.27804576161E+02  0.41611303757E+02  0.47000000000E+01 0. -1.
        -13    1    4    4    0    0  0.28822686201E+02 -0.41083845718E+01 -0.93376705879E+01  0.30574796085E+02  0.00000000000E+00 0.  1.
         14    1    4    4    0    0  0.15531101910E+03  0.15577835543E+02  0.13693155730E+03  0.20764015266E+03  0.00000000000E+00 0. -1.
         -5    1    5    5    0  502  0.95154522552E+01  0.26545720350E+02  0.54670858133E+02  0.61694504046E+02  0.47000000000E+01 0.  1.
         13    1    6    6    0    0 -0.29108417805E+02  0.22484616885E+02  0.71411565253E+01  0.37468041050E+02  0.00000000000E+00 0. -1.
        -14    1    6    6    0    0 -0.13503311861E+03 -0.68600185672E+02  0.56965563974E+02  0.16181781136E+03  0.00000000000E+00 0.  1.
</event>
<event>
12    1  0.9966151E-001  0.3051305E+03  0.7818608E-02  0.1083072E+00
         21   -1    0    0  501  502  0.00000000000E+00  0.00000000000E+00  0.28495240913E+03  0.28495240913E+03  0.00000000000E+00 0.  1.
         21   -1    0    0  502  503 -0.00000000000E+00 -0.00000000000E+00 -0.33358674646E+03  0.33358674646E+03  0.00000000000E+00 0. -1.
         -6    2    1    2    0  503  0.18137298271E+03 -0.17037157389E+03 -0.77890038055E+02  0.31200936232E+03  0.17134862735E+03 0.  0.
        -24    2    3    3    0    0  0.40994329751E+02 -0.22131162483E+02 -0.50755757063E+02  0.10600027274E+03  0.80557976150E+02 0.  0.
          6    2    1    2  501    0 -0.18137298271E+03  0.17037157389E+03  0.29255700724E+02  0.30652979327E+03  0.17658421811E+03 0.  0.
         24    2    5    5    0    0 -0.39547018344E+02  0.82655599634E+02 -0.23353058937E+02  0.13160561568E+03  0.91535555426E+02 0.  0.
          5    1    5    5  501    0 -0.14182596437E+03  0.87715974260E+02  0.52608759661E+02  0.17492417758E+03  0.47000000000E+01 0. -1.
        -13    1    6    6    0    0 -0.20735737101E+02 -0.17686764454E+02 -0.21682895013E+01  0.27340334843E+02  0.00000000000E+00 0.  1.
         14    1    6    6    0    0 -0.18811281243E+02  0.10034236409E+03 -0.21184769436E+02  0.10426528084E+03  0.00000000000E+00 0. -1.
         -5    1    3    3    0  503  0.14037865296E+03 -0.14824041141E+03 -0.27134280992E+02  0.20600908958E+03  0.47000000000E+01 0.  1.
         13    1    4    4    0    0 -0.13508404897E+02  0.17644248801E+02 -0.25822799685E+02  0.34067778063E+02  0.00000000000E+00 0. -1.
        -14    1    4    4    0    0  0.54502734647E+02 -0.39775411283E+02 -0.24932957378E+02  0.71932494677E+02  0.00000000000E+00 0.  1.
</event>
<event>
12    1  0.9966151E-001  0.1829638E+03  0.7818608E-02  0.1165262E+00
         21   -1    0    0  501  502  0.00000000000E+00  0.00000000000E+00  0.17424968170E+03  0.17424968170E+03  0.00000000000E+00 0. -1.
         21   -1    0    0  502  503 -0.00000000000E+00 -0.00000000000E+00 -0.26133103813E+03  0.26133103813E+03  0.00000000000E+00 0.  1.
         -6    2    1    2    0  503 -0.50243326806E+02 -0.41474494244E+02  0.69490565792E+02  0.19571588786E+03  0.17097147266E+03 0.  0.
        -24    2    3    3    0    0  0.16256763978E+02 -0.62348629976E+02  0.89176265146E+01  0.10325420612E+03  0.80188982935E+02 0.  0.
          6    2    1    2  501    0  0.50243326806E+02  0.41474494244E+02 -0.15657192222E+03  0.23986483197E+03  0.16963444588E+03 0.  0.
         24    2    5    5    0    0  0.67211882971E+02 -0.11991210514E+02 -0.43923080011E+02  0.11393483104E+03  0.79941743946E+02 0.  0.
          5    1    5    5  501    0 -0.16968556165E+02  0.53465704757E+02 -0.11264884220E+03  0.12593000093E+03  0.47000000000E+01 0. -1.
        -11    1    6    6    0    0  0.33448288154E+02 -0.48711476120E+01 -0.65168376279E+02  0.73412759969E+02  0.00000000000E+00 0.  1.
         12    1    6    6    0    0  0.33763594817E+02 -0.71200629019E+01  0.21245296267E+02  0.40522071074E+02  0.00000000000E+00 0. -1.
         -5    1    3    3    0  503 -0.66500090784E+02  0.20874135733E+02  0.60572939277E+02  0.92461681737E+02  0.47000000000E+01 0.  1.
         11    1    4    4    0    0  0.40559331610E+02 -0.84265607264E+01  0.14395617891E+02  0.43855445737E+02  0.00000000000E+00 0. -1.
        -12    1    4    4    0    0 -0.24302567632E+02 -0.53922069250E+02 -0.54779913765E+01  0.59398760384E+02  0.00000000000E+00 0.  1.
</event>
<event>
12    1  0.9966151E-001  0.2758546E+03  0.7818608E-02  0.1098236E+00
         21   -1    0    0  501  502  0.00000000000E+00  0.00000000000E+00  0.47352218246E+02  0.47352218246E+02  0.00000000000E+00 0. -1.
         21   -1    0    0  502  503 -0.00000000000E+00 -0.00000000000E+00 -0.16745849500E+04  0.16745849500E+04  0.00000000000E+00 0. -1.
         -6    2    1    2    0  503  0.93056404070E+02 -0.19422141108E+03 -0.62462479387E+03  0.68207254847E+03  0.16936758074E+03 0.  0.
        -24    2    3    3    0    0  0.31806805976E+02 -0.21808916464E+02 -0.16215686450E+03  0.18470321160E+03  0.79580939474E+02 0.  0.
          6    2    1    2  501    0 -0.93056404070E+02  0.19422141108E+03 -0.10026079379E+04  0.10398646198E+04  0.17237836140E+03 0.  0.
         24    2    5    5    0    0  0.49367456091E+01  0.61689096275E+02 -0.26464776314E+03  0.28370671208E+03  0.81370411626E+02 0.  0.
          5    1    5    5  501    0 -0.97993149679E+02  0.13253231481E+03 -0.73796017473E+03  0.75615790767E+03  0.47000000000E+01 0. -1.
        -13    1    6    6    0    0 -0.24430063802E+02  0.60563898287E+02 -0.22543463323E+03  0.23470319054E+03  0.00000000000E+00 0.  1.
         14    1    6    6    0    0  0.29366809411E+02  0.11251979881E+01 -0.39213129915E+02  0.49003521539E+02  0.00000000000E+00 0. -1.
         -5    1    3    3    0  503  0.61249598095E+02 -0.17241249462E+03 -0.46246792937E+03  0.49736933687E+03  0.47000000000E+01 0.  1.
         13    1    4    4    0    0  0.14616612785E+02 -0.26007217548E+02 -0.99168852399E+01  0.31438278368E+02  0.00000000000E+00 0. -1.
        -14    1    4    4    0    0  0.17190193191E+02  0.41983010840E+01 -0.15223997926E+03  0.15326493323E+03  0.00000000000E+00 0.  1.
</event>
<event>
12    1  0.9966151E-001  0.1828728E+03  0.7818608E-02  0.1165464E+00
         21   -1    0    0  503  502  0.00000000000E+00  0.00000000000E+00  0.61087430312E+03  0.61087430312E+03  0.00000000000E+00 0.  1.
         21   -1    0    0  501  503 -0.00000000000E+00 -0.00000000000E+00 -0.64533139697E+02  0.64533139697E+02  0.00000000000E+00 0.  1.
          6    2    1    2  501    0  0.48386920295E+02 -0.35809004188E+02  0.13712989817E+03  0.22719283862E+03  0.17084612408E+03 0.  0.
         24    2    3    3    0    0  0.22588540771E+02  0.17840466764E+02  0.14401583721E+03  0.16708187227E+03  0.79669732291E+02 0.  0.
         -6    2    1    2    0  502 -0.48386920295E+02  0.35809004188E+02  0.40921126525E+03  0.44821460419E+03  0.17268147835E+03 0.  0.
        -24    2    5    5    0    0  0.97989401585E+01 -0.16919347287E+02  0.31425979392E+03  0.32491113581E+03  0.80160742011E+02 0.  0.
          5    1    3    3  501    0  0.25798379524E+02 -0.53649470951E+02 -0.68859390484E+01  0.60110966354E+02  0.47000000000E+01 0. -1.
        -11    1    4    4    0    0  0.20962758542E+02 -0.30040469170E+02  0.67684081224E+02  0.76961041344E+02  0.00000000000E+00 0.  1.
         12    1    4    4    0    0  0.16257822292E+01  0.47880935933E+02  0.76331755989E+02  0.90120830922E+02  0.00000000000E+00 0. -1.
         -5    1    5    5    0  502 -0.58185860454E+02  0.52728351475E+02  0.94951471338E+02  0.12330346838E+03  0.47000000000E+01 0.  1.
         11    1    6    6    0    0 -0.26942335299E+02 -0.32692321919E+02  0.15144146218E+03  0.15725518692E+03  0.00000000000E+00 0. -1.
        -12    1    6    6    0    0  0.36741275458E+02  0.15772974632E+02  0.16281833173E+03  0.16765594889E+03  0.00000000000E+00 0.  1.
</event>
<event>
12    1  0.9966151E-001  0.2351642E+03  0.7818608E-02  0.1124864E+00
         21   -1    0    0  503  502  0.00000000000E+00  0.00000000000E+00  0.23902413249E+03  0.23902413249E+03  0.00000000000E+00 0. -1.
         21   -1    0    0  501  503 -0.00000000000E+00 -0.00000000000E+00 -0.37009662653E+03  0.37009662653E+03  0.00000000000E+00 0. -1.
          6    2    1    2  501    0  0.11562581611E+02 -0.14454289677E+03  0.12665233045E+03  0.26710111280E+03  0.18513737967E+03 0.  0.
         24    2    3    3    0    0  0.28985836812E+02 -0.25573135652E+00  0.19156818183E+02  0.86270443163E+02  0.78964305521E+02 0.  0.
         -6    2    1    2    0  502 -0.11562581611E+02  0.14454289677E+03 -0.25772482449E+03  0.34201964622E+03  0.17184007374E+03 0.  0.
        -24    2    5    5    0    0 -0.35004014047E+02  0.12650898206E+03 -0.26996145276E+03  0.30966925355E+03  0.76066136195E+02 0.  0.
          5    1    3    3  501    0 -0.17423255201E+02 -0.14428716541E+03  0.10749551227E+03  0.18083066964E+03  0.47000000000E+01 0. -1.
        -11    1    4    4    0    0 -0.15547792386E+02 -0.25925205253E+02 -0.28328149648E+01  0.30362393781E+02  0.00000000000E+00 0.  1.
         12    1    4    4    0    0  0.44533629199E+02  0.25669473896E+02  0.21989633148E+02  0.55908049382E+02  0.00000000000E+00 0. -1.
         -5    1    5    5    0  502  0.23441432436E+02  0.18033914705E+02  0.12236628273E+02  0.32350392667E+02  0.47000000000E+01 0.  1.
         13    1    6    6    0    0 -0.47132884968E+02  0.53859201789E+02 -0.17798354725E+03  0.19183447437E+03  0.00000000000E+00 0. -1.
        -14    1    6    6    0    0  0.12128870921E+02  0.72649780274E+02 -0.91977905508E+02  0.11783477918E+03  0.00000000000E+00 0.  1.
</event>
<event>
12    1  0.9966151E-001  0.1865845E+03  0.7818608E-02  0.1161687E+00
         21   -1    0    0  501  502  0.00000000000E+00  0.00000000000E+00  0.12606915890E+03  0.12606915890E+03  0.00000000000E+00 0. -1.
         21   -1    0    0  502  503 -0.00000000000E+00 -0.00000000000E+00 -0.27562515229E+03  0.27562515229E+03  0.00000000000E+00 0. -1.
         -6    2    1    2    0  503  0.67703506923E+02  0.24791256904E+02 -0.79847581756E+02  0.20295177632E+03  0.17209130114E+03 0.  0.
        -24    2    3    3    0    0 -0.27433057071E+02  0.43872819228E+01 -0.59066596910E+02  0.10334641836E+03  0.80123644783E+02 0.  0.
          6    2    1    2  501    0 -0.67703506923E+02 -0.24791256904E+02 -0.69708411634E+02  0.19874253486E+03  0.17158368583E+03 0.  0.
         24    2    5    5    0    0 -0.96454383843E+02  0.22040118917E+02 -0.66539835725E+02  0.14349834460E+03  0.79843660736E+02 0.  0.
          5    1    5    5  501    0  0.28750876920E+02 -0.46831375821E+02 -0.31685759091E+01  0.55244190267E+02  0.47000000000E+01 0. -1.
        -11    1    6    6    0    0 -0.47102626963E+02 -0.14045214075E+02  0.49859708937E+01  0.49404305591E+02  0.00000000000E+00 0.  1.
         12    1    6    6    0    0 -0.49351756880E+02  0.36085332991E+02 -0.71525806618E+02  0.94094039007E+02  0.00000000000E+00 0. -1.
         -5    1    3    3    0  503  0.95136563994E+02  0.20403974981E+02 -0.20780984846E+02  0.99605357962E+02  0.47000000000E+01 0.  1.
         13    1    4    4    0    0 -0.31305759287E+02  0.38898252506E+02 -0.31851238130E+02  0.59225214081E+02  0.00000000000E+00 0. -1.
        -14    1    4    4    0    0  0.38727022167E+01 -0.34510970583E+02 -0.27215358780E+02  0.44121204274E+02  0.00000000000E+00 0.  1.
</event>
<event>
12    1  0.9966151E-001  0.3223719E+03  0.7818608E-02  0.1074796E+00
         21   -1    0    0  503  502  0.00000000000E+00  0.00000000000E+00  0.28481868327E+03  0.28481868327E+03  0.00000000000E+00 0. -1.
         21   -1    0    0  501  503 -0.00000000000E+00 -0.00000000000E+00 -0.36261157492E+03  0.36261157492E+03  0.00000000000E+00 0.  1.
          6    2    1    2  501    0  0.84405063755E+02 -0.25819904555E+03 -0.35513920565E+02  0.32432213755E+03  0.17358758147E+03 0.  0.
         24    2    3    3    0    0  0.52010242046E+02 -0.26403484537E+03 -0.68629269226E+01  0.28043078909E+03  0.78580295600E+02 0.  0.
         -6    2    1    2    0  502 -0.84405063755E+02  0.25819904555E+03 -0.42278971081E+02  0.32310812064E+03  0.16976567473E+03 0.  0.
        -24    2    5    5    0    0 -0.21936708094E+01  0.51150032655E+02 -0.64249370232E+01  0.97418934743E+02  0.82631900611E+02 0.  0.
          5    1    3    3  501    0  0.32394821709E+02  0.58357998189E+01 -0.28650993642E+02  0.43891348461E+02  0.47000000000E+01 0. -1.
        -13    1    4    4    0    0  0.69145133747E+02 -0.15605023647E+03 -0.10798344272E+02  0.17102435517E+03  0.00000000000E+00 0.  1.
         14    1    4    4    0    0 -0.17134891700E+02 -0.10798460890E+03  0.39354173496E+01  0.10940643392E+03  0.00000000000E+00 0. -1.
         -5    1    5    5    0  502 -0.82211392946E+02  0.20704901289E+03 -0.35854034058E+02  0.22568918589E+03  0.47000000000E+01 0.  1.
         11    1    6    6    0    0 -0.26303881359E+02  0.33082111102E+02  0.28741012713E+02  0.51111310502E+02  0.00000000000E+00 0. -1.
        -12    1    6    6    0    0  0.24110210549E+02  0.18067921553E+02 -0.35165949736E+02  0.46307624241E+02  0.00000000000E+00 0.  1.
</event>
<event>
12    1  0.9966151E-001  0.3375281E+03  0.7818608E-02  0.1068376E+00
         21   -1    0    0  503  502  0.00000000000E+00  0.00000000000E+00  0.29343657773E+04  0.29343657773E+04  0.00000000000E+00 0. -1.
         21   -1    0    0  501  503 -0.00000000000E+00 -0.00000000000E+00 -0.79152675098E+02  0.79152675098E+02  0.00000000000E+00 0. -1.
          6    2    1    2  501    0 -0.96921620576E+02  0.27486219294E+03  0.34972859324E+03  0.48604042025E+03  0.17024152121E+03 0.  0.
         24    2    3    3    0    0 -0.91518859985E+02  0.21430866568E+03  0.34648195367E+03  0.42497856510E+03  0.79076739024E+02 0.  0.
         -6    2    1    2    0  502  0.96921620576E+02 -0.27486219294E+03  0.25054845090E+04  0.25274780322E+04  0.16046667155E+03 0.  0.
        -24    2    5    5    0    0  0.12139466853E+03 -0.25885178418E+03  0.24027318393E+04  0.24205413014E+04  0.64490219109E+02 0.  0.
          5    1    3    3  501    0 -0.54027605915E+01  0.60553527263E+02  0.32466395644E+01  0.61061855151E+02  0.47000000000E+01 0. -1.
        -13    1    4    4    0    0 -0.75298797747E+02  0.13740462862E+03  0.16675089310E+03  0.22881390093E+03  0.00000000000E+00 0.  1.
         14    1    4    4    0    0 -0.16220062237E+02  0.76904037060E+02  0.17973106057E+03  0.19616466417E+03  0.00000000000E+00 0. -1.
         -5    1    5    5    0  502 -0.24473047954E+02 -0.16010408761E+02  0.10275266969E+03  0.10693673079E+03  0.47000000000E+01 0.  1.
         11    1    6    6    0    0  0.87369300361E+01 -0.87285735903E+02  0.68848084735E+03  0.69404683618E+03  0.00000000000E+00 0. -1.
        -12    1    6    6    0    0  0.11265773849E+03 -0.17156604828E+03  0.17142509919E+04  0.17264944652E+04  0.00000000000E+00 0.  1.
</event>
<event>
12    1  0.9966151E-001  0.2103467E+03  0.7818608E-02  0.1141800E+00
         21   -1    0    0  501  502  0.00000000000E+00  0.00000000000E+00  0.80750119967E+03  0.80750119967E+03  0.00000000000E+00 0. -1.
         21   -1    0    0  502  503 -0.00000000000E+00 -0.00000000000E+00 -0.96778854420E+02  0.96778854420E+02  0.00000000000E+00 0. -1.
         -6    2    1    2    0  503 -0.24196732878E+02  0.11591099696E+03  0.65672295644E+03  0.68958739117E+03  0.17385306282E+03 0.  0.
        -24    2    3    3    0    0 -0.41866203501E+02 -0.53221814981E-01  0.34802513894E+03  0.35932031325E+03  0.78973466147E+02 0.  0.
          6    2    1    2  501    0  0.24196732878E+02 -0.11591099696E+03  0.53999388809E+02  0.21469266292E+03  0.17075176257E+03 0.  0.
         24    2    5    5    0    0  0.74097010784E+01 -0.14393135430E+03  0.71484934780E+02  0.17734592035E+03  0.74634718080E+02 0.  0.
          5    1    5    5  501    0  0.16787031800E+02  0.28020357346E+02 -0.17485545972E+02  0.37346742567E+02  0.47000000000E+01 0. -1.
        -13    1    6    6    0    0  0.24863373429E+02 -0.10777865426E+03  0.79746186367E+02  0.13635937772E+03  0.00000000000E+00 0.  1.
         14    1    6    6    0    0 -0.17453672351E+02 -0.36152700045E+02 -0.82612515869E+01  0.40986542631E+02  0.00000000000E+00 0. -1.
         -5    1    3    3    0  503  0.17669470623E+02  0.11596421877E+03  0.30869781750E+03  0.33026707792E+03  0.47000000000E+01 0.  1.
         13    1    4    4    0    0 -0.49794066198E+02  0.26298710524E+02  0.16756740471E+03  0.17677643034E+03  0.00000000000E+00 0. -1.
        -14    1    4    4    0    0  0.79278626965E+01 -0.26351932339E+02  0.18045773423E+03  0.18254388291E+03  0.00000000000E+00 0.  1.
</event>
<event>
12    1  0.9966151E-001  0.2223001E+03  0.7818608E-02  0.1132405E+00
         21   -1    0    0  501  502  0.00000000000E+00  0.00000000000E+00  0.60760671651E+02  0.60760671651E+02  0.00000000000E+00 0. -1.
         21   -1    0    0  502  503 -0.00000000000E+00 -0.00000000000E+00 -0.90122637712E+03  0.90122637712E+03  0.00000000000E+00 0. -1.
         -6    2    1    2    0  503  0.76114427916E+02  0.11694563516E+03 -0.57525529154E+03  0.61671385232E+03  0.17305385718E+03 0.  0.
        -24    2    3    3    0    0 -0.86729275489E+00  0.74463180885E+01 -0.14100271243E+03  0.16227609177E+03  0.79972277680E+02 0.  0.
          6    2    1    2  501    0 -0.76114427916E+02 -0.11694563516E+03 -0.26521041393E+03  0.34527319645E+03  0.17148565191E+03 0.  0.
         24    2    5    5    0    0 -0.89093543101E+02 -0.19488267567E+02 -0.16343149126E+03  0.20368423138E+03  0.80373887447E+02 0.  0.
          5    1    5    5  501    0  0.12979115186E+02 -0.97457367589E+02 -0.10177892267E+03  0.14158896507E+03  0.47000000000E+01 0. -1.
        -13    1    6    6    0    0 -0.99839557182E+02 -0.58527489937E+01 -0.11591950368E+03  0.15309971647E+03  0.00000000000E+00 0.  1.
         14    1    6    6    0    0  0.10746014081E+02 -0.13635518573E+02 -0.47511987578E+02  0.50584514913E+02  0.00000000000E+00 0. -1.
         -5    1    3    3    0  503  0.76981720670E+02  0.10949931707E+03 -0.43425257911E+03  0.45443776055E+03  0.47000000000E+01 0.  1.
         13    1    4    4    0    0  0.15928443491E+02 -0.52000847840E+01 -0.14024037201E+03  0.14123780703E+03  0.00000000000E+00 0. -1.
        -14    1    4    4    0    0 -0.16795736246E+02  0.12646402872E+02 -0.76234041817E+00  0.21038284735E+02  0.00000000000E+00 0.  1.
</event>
<event>
12    1  0.9966151E-001  0.2314216E+03  0.7818608E-02  0.1125766E+00
         21   -1    0    0  503  502  0.00000000000E+00  0.00000000000E+00  0.45588727845E+02  0.45588727845E+02  0.00000000000E+00 0. -1.
         21   -1    0    0  501  503 -0.00000000000E+00 -0.00000000000E+00 -0.21724835793E+04  0.21724835793E+04  0.00000000000E+00 0. -1.
          6    2    1    2  501    0  0.12826634428E+03  0.83993219348E+02 -0.30965594059E+03  0.38615713073E+03  0.17240479140E+03 0.  0.
         24    2    3    3    0    0  0.88925844843E+02  0.84363937418E+02 -0.31440624138E+03  0.34625139574E+03  0.77547821446E+02 0.  0.
         -6    2    1    2    0  502 -0.12826634428E+03 -0.83993219348E+02 -0.18172389108E+04  0.18319151764E+04  0.17334600791E+03 0.  0.
        -24    2    5    5    0    0 -0.46040488786E+02 -0.76570692412E+02 -0.49679105988E+03  0.50888048209E+03  0.64615712749E+02 0.  0.
          5    1    3    3  501    0  0.39340499432E+02 -0.37071807023E+00  0.47503007941E+01  0.39905734990E+02  0.47000000000E+01 0. -1.
        -11    1    4    4    0    0  0.88195400509E+02  0.96338784397E+02 -0.26540629826E+03  0.29580414671E+03  0.00000000000E+00 0.  1.
         12    1    4    4    0    0  0.73044433463E+00 -0.11974846979E+02 -0.48999943118E+02  0.50447249030E+02  0.00000000000E+00 0. -1.
         -5    1    5    5    0  502 -0.82225855490E+02 -0.74225269352E+01 -0.13204478509E+04  0.13230346943E+04  0.47000000000E+01 0.  1.
         11    1    6    6    0    0  0.30243227395E+01 -0.46275160966E+02 -0.30823673064E+03  0.31170566111E+03  0.00000000000E+00 0. -1.
        -12    1    6    6    0    0 -0.49064811525E+02 -0.30295531446E+02 -0.18855432924E+03  0.19717482099E+03  0.00000000000E+00 0.  1.
</event>
<event>
12    1  0.9966151E-001  0.4059858E+03  0.7818608E-02  0.1041773E+00
         21   -1    0    0  501  502  0.00000000000E+00  0.00000000000E+00  0.38154711052E+03  0.38154711052E+03  0.00000000000E+00 0.  1.
         21   -1    0    0  502  503 -0.00000000000E+00 -0.00000000000E+00 -0.43983958074E+03  0.43983958074E+03  0.00000000000E+00 0. -1.
         -6    2    1    2    0  503 -0.34576443413E+03  0.12432652578E+03  0.27696790788E+02  0.40692948536E+03  0.17266836685E+03 0.  0.
        -24    2    3    3    0    0 -0.31502816643E+03  0.15087956794E+03  0.48416138153E+02  0.36109103473E+03  0.77686699409E+02 0.  0.
          6    2    1    2  501    0  0.34576443413E+03 -0.12432652578E+03 -0.85989261011E+02  0.41445720590E+03  0.17137821797E+03 0.  0.
         24    2    5    5    0    0  0.15982585312E+03 -0.88501811441E+01  0.15405769984E+01  0.17867869836E+03  0.79379309884E+02 0.  0.
          5    1    5    5  501    0  0.18593858102E+03 -0.11547634463E+03 -0.87529838010E+02  0.23577850755E+03  0.47000000000E+01 0. -1.
        -11    1    6    6    0    0  0.75453456060E+01 -0.21862394534E+02  0.10877959363E+02  0.25558296794E+02  0.00000000000E+00 0.  1.
         12    1    6    6    0    0  0.15228050751E+03  0.13012213390E+02 -0.93373823650E+01  0.15312040156E+03  0.00000000000E+00 0. -1.
         -5    1    3    3    0  503 -0.30736267700E+02 -0.26553042162E+02 -0.20719347366E+02  0.45838450623E+02  0.47000000000E+01 0.  1.
         11    1    4    4    0    0 -0.96131598668E+02  0.87162134479E+02  0.21359398606E+02  0.13150948961E+03  0.00000000000E+00 0. -1.
        -12    1    4    4    0    0 -0.21889656776E+03  0.63717433460E+02  0.27056739547E+02  0.22958154512E+03  0.00000000000E+00 0.  1.
</event>
<event>
12    1  0.9966151E-001  0.1812174E+03  0.7818608E-02  0.1166876E+00
         21   -1    0    0  503  502  0.00000000000E+00  0.00000000000E+00  0.14164334715E+03  0.14164334715E+03  0.00000000000E+00 0. -1.
         21   -1    0    0  501  503 -0.00000000000E+00 -0.00000000000E+00 -0.34821868317E+03  0.34821868317E+03  0.00000000000E+00 0. -1.
          6    2    1    2  501    0  0.16689765353E+02 -0.53291116364E+02  0.38902520784E+02  0.18534599057E+03  0.17239848824E+03 0.  0.
         24    2    3    3    0    0 -0.87443533620E+01 -0.49877732567E+02 -0.41120188064E+02  0.10117788785E+03  0.77342376499E+02 0.  0.
         -6    2    1    2    0  502 -0.16689765353E+02  0.53291116364E+02 -0.24547785680E+03  0.30451603974E+03  0.17132468861E+03 0.  0.
        -24    2    5    5    0    0 -0.15522859235E+02  0.79093785023E+02 -0.25301445507E+03  0.27720249561E+03  0.79549501003E+02 0.  0.
          5    1    3    3  501    0  0.25434118715E+02 -0.34133837975E+01  0.80022708848E+02  0.84168102718E+02  0.47000000000E+01 0. -1.
        -11    1    4    4    0    0 -0.12057176289E+02  0.11873203120E+02 -0.35199000621E+02  0.39055320983E+02  0.00000000000E+00 0.  1.
         12    1    4    4    0    0  0.33128229267E+01 -0.61750935687E+02 -0.59211874429E+01  0.62122566871E+02  0.00000000000E+00 0. -1.
         -5    1    5    5    0  502 -0.11669061183E+01 -0.25802668659E+02  0.75365982612E+01  0.27313544134E+02  0.47000000000E+01 0.  1.
         11    1    6    6    0    0  0.17528415374E+02 -0.81136831641E+01 -0.32979635951E+02  0.38219544574E+02  0.00000000000E+00 0. -1.
        -12    1    6    6    0    0 -0.33051274609E+02  0.87207468187E+02 -0.22003481912E+03  0.23898295103E+03  0.00000000000E+00 0.  1.
</event>
<event>
12    1  0.9966151E-001  0.2382189E+03  0.7818608E-02  0.1122143E+00
         21   -1    0    0  501  502  0.00000000000E+00  0.00000000000E+00  0.99786790097E+03  0.99786790097E+03  0.00000000000E+00 0. -1.
         21   -1    0    0  502  503 -0.00000000000E+00 -0.00000000000E+00 -0.79944375792E+02  0.79944375792E+02  0.00000000000E+00 0. -1.
         -6    2    1    2    0  503  0.11990698279E+03 -0.11510964132E+03  0.76296118205E+03  0.79928593938E+03  0.17064680930E+03 0.  0.
        -24    2    3    3    0    0  0.13079721537E+02 -0.65873236917E+02  0.50601989962E+03  0.51666039226E+03  0.79821423590E+02 0.  0.
          6    2    1    2  501    0 -0.11990698279E+03  0.11510964132E+03  0.15496234312E+03  0.27852633738E+03  0.16104557983E+03 0.  0.
         24    2    5    5    0    0 -0.69635746063E+01  0.23943185766E+02  0.34943932757E+02  0.90127704432E+02  0.79247442569E+02 0.  0.
          5    1    5    5  501    0 -0.11294340818E+03  0.91166455558E+02  0.12001841037E+03  0.18839863295E+03  0.47000000000E+01 0. -1.
        -11    1    6    6    0    0  0.11052678543E+02  0.40897118017E+02  0.46429473648E+02  0.62852462070E+02  0.00000000000E+00 0.  1.
         12    1    6    6    0    0 -0.18016253149E+02 -0.16953932251E+02 -0.11485540891E+02  0.27275242361E+02  0.00000000000E+00 0. -1.
         -5    1    3    3    0  503  0.10682726125E+03 -0.49236404406E+02  0.25694128243E+03  0.28262554712E+03  0.47000000000E+01 0.  1.
         13    1    4    4    0    0 -0.18934493329E+02 -0.57553623297E+02  0.20323396052E+03  0.21207304709E+03  0.00000000000E+00 0. -1.
        -14    1    4    4    0    0  0.32014214865E+02 -0.83196136201E+01  0.30278593910E+03  0.30458734517E+03  0.00000000000E+00 0.  1.
</event>
<event>
12    1  0.9966151E-001  0.2025681E+03  0.7818608E-02  0.1147913E+00
         21   -1    0    0  501  502  0.00000000000E+00  0.00000000000E+00  0.14581491503E+03  0.14581491503E+03  0.00000000000E+00 0. -1.
         21   -1    0    0  502  503 -0.00000000000E+00 -0.00000000000E+00 -0.28195824451E+03  0.28195824451E+03  0.00000000000E+00 0. -1.
         -6    2    1    2    0  503 -0.10205433258E+03  0.82165351389E+01 -0.46897553702E+02  0.20641676923E+03  0.17299105129E+03 0.  0.
        -24    2    3    3    0    0 -0.69000831248E+02 -0.58379330306E+02 -0.75808298800E+01  0.12218234624E+03  0.81864496765E+02 0.  0.
          6    2    1    2  501    0  0.10205433258E+03 -0.82165351389E+01 -0.89245775781E+02  0.22135639031E+03  0.17478914379E+03 0.  0.
         24    2    5    5    0    0  0.12550807599E+03  0.34680442738E+02 -0.74465575235E+02  0.17006532755E+03  0.80137902971E+02 0.  0.
          5    1    5    5  501    0 -0.23453743405E+02 -0.42896977877E+02 -0.14780200547E+02  0.51291062758E+02  0.47000000000E+01 0. -1.
        -11    1    6    6    0    0  0.72765267965E+02  0.18868985165E+02  0.27571897325E+01  0.75222502739E+02  0.00000000000E+00 0.  1.
         12    1    6    6    0    0  0.52742808025E+02  0.15811457573E+02 -0.77222764967E+02  0.94842824811E+02  0.00000000000E+00 0. -1.
         -5    1    3    3    0  503 -0.33053501337E+02  0.66595865445E+02 -0.39316723822E+02  0.84234422993E+02  0.47000000000E+01 0.  1.
         13    1    4    4    0    0  0.16587973974E+02 -0.60582182504E+01 -0.12677167790E+02  0.21738755073E+02  0.00000000000E+00 0. -1.
        -14    1    4    4    0    0 -0.85588805222E+02 -0.52321112055E+02  0.50963379102E+01  0.10044359116E+03  0.00000000000E+00 0.  1.
</event>
<event>
12    1  0.9966151E-001  0.3137988E+03  0.7818608E-02  0.1078639E+00
         21   -1    0    0  501  502  0.00000000000E+00  0.00000000000E+00  0.27032435348E+03  0.27032435348E+03  0.00000000000E+00 0. -1.
         21   -1    0    0  502  503 -0.00000000000E+00 -0.00000000000E+00 -0.37225463957E+03  0.37225463957E+03  0.00000000000E+00 0. -1.
         -6    2    1    2    0  503  0.59326002920E+02 -0.25442959178E+03 -0.10075837747E+03  0.32877804587E+03  0.17230426873E+03 0.  0.
        -24    2    3    3    0    0  0.42121931308E+02 -0.15440422637E+03  0.96308424591E+01  0.17874830322E+03  0.79014432586E+02 0.  0.
          6    2    1    2  501    0 -0.59326002920E+02  0.25442959178E+03 -0.11719086182E+01  0.31380094717E+03  0.17382654941E+03 0.  0.
         24    2    5    5    0    0  0.25232804144E+02  0.11501852348E+03  0.37411152089E+02  0.14618119777E+03  0.78124216042E+02 0.  0.
          5    1    5    5  501    0 -0.84558807064E+02  0.13941106829E+03 -0.38583060707E+02  0.16761974940E+03  0.47000000000E+01 0. -1.
        -13    1    6    6    0    0  0.42522299120E+02  0.60519775869E+02 -0.62688220222E+01  0.74229962436E+02  0.00000000000E+00 0.  1.
         14    1    6    6    0    0 -0.17289494976E+02  0.54498747613E+02  0.43679974111E+02  0.71951235335E+02  0.00000000000E+00 0. -1.
         -5    1    3    3    0  503  0.17204071612E+02 -0.10002536540E+03 -0.11038921993E+03  0.15002974266E+03  0.47000000000E+01 0.  1.
         13    1    4    4    0    0  0.76775938567E+01  0.56719224081E+01 -0.10013358394E+02  0.13834142458E+02  0.00000000000E+00 0. -1.
        -14    1    4    4    0    0  0.34444337451E+02 -0.16007614878E+03  0.19644200853E+02  0.16491416076E+03  0.00000000000E+00 0.  1.
</event>
<event>
12    1  0.9966151E-001  0.1799898E+03  0.7818608E-02  0.1169008E+00
         21   -1    0    0  501  502  0.00000000000E+00  0.00000000000E+00  0.18440532073E+03  0.18440532073E+03  0.00000000000E+00 0. -1.
         21   -1    0    0  502  503 -0.00000000000E+00 -0.00000000000E+00 -0.27144058915E+03  0.27144058915E+03  0.00000000000E+00 0. -1.
         -6    2    1    2    0  503 -0.26012467397E+02  0.58762404488E+01  0.95520313279E+02  0.19948120254E+03  0.17308218064E+03 0.  0.
        -24    2    3    3    0    0 -0.77902222749E+02 -0.16981942735E+02  0.40710226364E+02  0.12047943752E+03  0.80627722564E+02 0.  0.
          6    2    1    2  501    0  0.26012467397E+02 -0.58762404488E+01 -0.18255558170E+03  0.25636470733E+03  0.17800321372E+03 0.  0.
         24    2    5    5    0    0  0.64050829579E+02  0.44176363541E+02 -0.87357415379E+02  0.14218519501E+03  0.80816160471E+02 0.  0.
          5    1    5    5  501    0 -0.38038362182E+02 -0.50052603989E+02 -0.95198166321E+02  0.11417951232E+03  0.47000000000E+01 0. -1.
        -13    1    6    6    0    0 -0.42190450982E+01 -0.15633256524E+02 -0.32023633760E+02  0.35884706635E+02  0.00000000000E+00 0.  1.
         14    1    6    6    0    0  0.68269874677E+02  0.59809620065E+02 -0.55333781619E+02  0.10630048838E+03  0.00000000000E+00 0. -1.
         -5    1    3    3    0  503  0.51889755352E+02  0.22858183183E+02  0.54810086915E+02  0.79001765022E+02  0.47000000000E+01 0.  1.
         13    1    4    4    0    0 -0.22947503745E+02 -0.17607088976E+02 -0.22553546185E+02  0.36677785591E+02  0.00000000000E+00 0. -1.
        -14    1    4    4    0    0 -0.54954719004E+02  0.62514624086E+00  0.63263772549E+02  0.83801651927E+02  0.00000000000E+00 0.  1.
</event>
<event>
12    1  0.9966151E-001  0.3058029E+03  0.7818608E-02  0.1082445E+00
         21   -1    0    0  501  502  0.00000000000E+00  0.00000000000E+00  0.24901151189E+03  0.24901151189E+03  0.00000000000E+00 0.  1.
         21   -1    0    0  502  503 -0.00000000000E+00 -0.00000000000E+00 -0.41329517237E+03  0.41329517237E+03  0.00000000000E+00 0. -1.
         -6    2    1    2    0  503 -0.25112862045E+03 -0.34115855238E+02  0.18933132624E+02  0.30581850508E+03  0.17010884443E+03 0.  0.
        -24    2    3    3    0    0 -0.23488861901E+03 -0.30151673911E+02 -0.32096569959E+02  0.25191513853E+03  0.79682246689E+02 0.  0.
          6    2    1    2  501    0  0.25112862045E+03  0.34115855238E+02 -0.18321679310E+03  0.35648817918E+03  0.17113139114E+03 0.  0.
         24    2    5    5    0    0  0.21688053511E+03 -0.27953493599E+02 -0.15654818476E+03  0.28060115733E+03  0.80069413809E+02 0.  0.
          5    1    5    5  501    0  0.34248085333E+02  0.62069348837E+02 -0.26668608337E+02  0.75887021846E+02  0.47000000000E+01 0. -1.
        -11    1    6    6    0    0  0.13552327259E+03 -0.74246773194E+01 -0.49239322024E+02  0.14438211136E+03  0.00000000000E+00 0.  1.
         12    1    6    6    0    0  0.81357262519E+02 -0.20528816280E+02 -0.10730886274E+03  0.13621904597E+03  0.00000000000E+00 0. -1.
         -5    1    3    3    0  503 -0.16240001439E+02 -0.39641813265E+01  0.51029702583E+02  0.53903366556E+02  0.47000000000E+01 0.  1.
         13    1    4    4    0    0 -0.68293865360E+02  0.26449678761E+02 -0.17920380103E+02  0.75397463985E+02  0.00000000000E+00 0. -1.
        -14    1    4    4    0    0 -0.16659475365E+03 -0.56601352672E+02 -0.14176189856E+02  0.17651767454E+03  0.00000000000E+00 0.  1.
</event>
<event>
12    1  0.9966151E-001  0.4379547E+03  0.7818608E-02  0.1031390E+00
         21   -1    0    0  501  502  0.00000000000E+00  0.00000000000E+00  0.81329072863E+03  0.81329072863E+03  0.00000000000E+00 0. -1.
         21   -1    0    0  502  503 -0.00000000000E+00 -0.00000000000E+00 -0.25233620211E+03  0.25233620211E+03  0.00000000000E+00 0. -1.
         -6    2    1    2    0  503  0.98447833341E+02 -0.39052217438E+03  0.41706963048E+03  0.60464194328E+03  0.17159620723E+03 0.  0.
        -24    2    3    3    0    0  0.13669858725E+03 -0.31682442001E+03  0.32194152643E+03  0.47828560053E+03  0.77759580501E+02 0.  0.
          6    2    1    2  501    0 -0.98447833341E+02  0.39052217438E+03  0.14388489604E+03  0.46098498746E+03  0.17206031148E+03 0.  0.
         24    2    5    5    0    0 -0.58824716312E+02  0.91044937622E+02  0.29570928278E+02  0.13795808461E+03  0.80052891235E+02 0.  0.
          5    1    5    5  501    0 -0.39623117029E+02  0.29947723676E+03  0.11431396776E+03  0.32302690285E+03  0.47000000000E+01 0. -1.
        -13    1    6    6    0    0 -0.38067124807E+02  0.98936846605E+02  0.40154564042E+02  0.11335781676E+03  0.00000000000E+00 0.  1.
         14    1    6    6    0    0 -0.20757591504E+02 -0.78919089827E+01 -0.10583635764E+02  0.24600267853E+02  0.00000000000E+00 0. -1.
         -5    1    3    3    0  503 -0.38250753912E+02 -0.73697754367E+02  0.95128104057E+02  0.12635634276E+03  0.47000000000E+01 0.  1.
         11    1    4    4    0    0  0.14312830269E+03 -0.26236528302E+03  0.27101574357E+03  0.40344861635E+03  0.00000000000E+00 0. -1.
        -12    1    4    4    0    0 -0.64297154341E+01 -0.54459136988E+02  0.50925782852E+02  0.74836984180E+02  0.00000000000E+00 0.  1.
</event>
<event>
12    1  0.9966151E-001  0.1986476E+03  0.7818608E-02  0.1151141E+00
         21   -1    0    0  503  502  0.00000000000E+00  0.00000000000E+00  0.45599854199E+03  0.45599854199E+03  0.00000000000E+00 0.  1.
         21   -1    0    0  501  503 -0.00000000000E+00 -0.00000000000E+00 -0.38896857745E+03  0.38896857745E+03  0.00000000000E+00 0.  1.
          6    2    1    2  501    0  0.90231791534E+02 -0.41423501136E+02  0.40639202190E+03  0.45234427292E+03  0.17205575587E+03 0.  0.
         24    2    3    3    0    0  0.21260339238E+00  0.15764534417E+02  0.13599334285E+03  0.16163572252E+03  0.85926432186E+02 0.  0.
         -6    2    1    2    0  502 -0.90231791534E+02  0.41423501136E+02 -0.33936205735E+03  0.39262284653E+03  0.17067047487E+03 0.  0.
        -24    2    5    5    0    0 -0.87643907637E+02  0.47194718490E+02 -0.35489596401E+03  0.37520457024E+03  0.70132219869E+02 0.  0.
          5    1    3    3  501    0  0.90019188142E+02 -0.57188035553E+02  0.27039867904E+03  0.29070855040E+03  0.47000000000E+01 0. -1.
        -13    1    4    4    0    0  0.17460522077E+02 -0.25984069237E+02  0.19978841957E+02  0.37137525648E+02  0.00000000000E+00 0.  1.
         14    1    4    4    0    0 -0.17247918684E+02  0.41748603654E+02  0.11601450090E+03  0.12449819687E+03  0.00000000000E+00 0. -1.
         -5    1    5    5    0  502 -0.25878838972E+01 -0.57712173541E+01  0.15533906652E+02  0.17418276283E+02  0.47000000000E+01 0.  1.
         11    1    6    6    0    0 -0.30267892219E+02  0.41993799102E+02 -0.87438075900E+02  0.10161221176E+03  0.00000000000E+00 0. -1.
        -12    1    6    6    0    0 -0.57376015418E+02  0.52009193883E+01 -0.26745788811E+03  0.27359235848E+03  0.00000000000E+00 0.  1.
</event>
<event>
12    1  0.9966151E-001  0.5619523E+03  0.7818608E-02  0.9988107E-01
         21   -1    0    0  501  502  0.00000000000E+00  0.00000000000E+00  0.34385970075E+03  0.34385970075E+03  0.00000000000E+00 0.  1.
         21   -1    0    0  502  503 -0.00000000000E+00 -0.00000000000E+00 -0.13030146444E+04  0.13030146444E+04  0.00000000000E+00 0.  1.
         -6    2    1    2    0  503 -0.14146665166E+03  0.51585085740E+03 -0.31167375821E+02  0.56200048673E+03  0.16958249071E+03 0.  0.
        -24    2    3    3    0    0 -0.16626168852E+03  0.37369383461E+03 -0.20741328269E+02  0.41724481171E+03  0.79831066052E+02 0.  0.
          6    2    1    2  501    0  0.14146665166E+03 -0.51585085740E+03 -0.92798756787E+03  0.10848738585E+04  0.17226561477E+03 0.  0.
         24    2    5    5    0    0  0.16752429205E+03 -0.49495616643E+03 -0.87128831832E+03  0.10189005030E+04  0.77258696718E+02 0.  0.
          5    1    5    5  501    0 -0.26057640391E+02 -0.20894690970E+02 -0.56699249550E+02  0.65973355478E+02  0.47000000000E+01 0. -1.
        -13    1    6    6    0    0  0.23510871397E+02 -0.30615203499E+02 -0.38034763016E+02  0.54191281188E+02  0.00000000000E+00 0.  1.
         14    1    6    6    0    0  0.14401342065E+03 -0.46434096293E+03 -0.83325355530E+03  0.96470922179E+03  0.00000000000E+00 0. -1.
         -5    1    3    3    0  503  0.24795036865E+02  0.14215702279E+03 -0.10426047551E+02  0.14475567502E+03  0.47000000000E+01 0.  1.
         13    1    4    4    0    0 -0.52039093684E+02  0.16908588812E+03  0.24453980553E+02  0.17859479835E+03  0.00000000000E+00 0. -1.
        -14    1    4    4    0    0 -0.11422259484E+03  0.20460794649E+03 -0.45195308823E+02  0.23865001336E+03  0.00000000000E+00 0.  1.
</event>
<event>
12    1  0.9966151E-001  0.2006897E+03  0.7818608E-02  0.1149753E+00
         21   -1    0    0  501  502  0.00000000000E+00  0.00000000000E+00  0.18307518730E+03  0.18307518730E+03  0.00000000000E+00 0.  1.
         21   -1    0    0  502  503 -0.00000000000E+00 -0.00000000000E+00 -0.24387111935E+03  0.24387111935E+03  0.00000000000E+00 0.  1.
         -6    2    1    2    0  503 -0.10957416994E+02  0.10417040725E+03  0.40746683337E+02  0.20203016612E+03  0.16788197368E+03 0.  0.
        -24    2    3    3    0    0  0.48476276429E+02  0.97448316767E+02  0.16928825675E+02  0.13747839807E+03  0.82265430045E+02 0.  0.
          6    2    1    2  501    0  0.10957416994E+02 -0.10417040725E+03 -0.10154261538E+03  0.22491614053E+03  0.17118653218E+03 0.  0.
         24    2    5    5    0    0  0.46709887046E+02 -0.96136783747E+02 -0.12307955220E+03  0.18215274650E+03  0.81283160309E+02 0.  0.
          5    1    5    5  501    0 -0.35752470052E+02 -0.80336235001E+01  0.21536936822E+02  0.42763394031E+02  0.47000000000E+01 0. -1.
        -13    1    6    6    0    0 -0.18701499313E+01 -0.78132232453E+02 -0.95685973242E+02  0.12354735402E+03  0.00000000000E+00 0.  1.
         14    1    6    6    0    0  0.48580036977E+02 -0.18004551294E+02 -0.27393578962E+02  0.58605392485E+02  0.00000000000E+00 0. -1.
         -5    1    3    3    0  503 -0.59433693423E+02  0.67220904804E+01  0.23817857662E+02  0.64551768046E+02  0.47000000000E+01 0.  1.
         13    1    4    4    0    0  0.24907475050E+02  0.66705286363E+02 -0.29446549464E+02  0.77052429017E+02  0.00000000000E+00 0. -1.
        -14    1    4    4    0    0  0.23568801379E+02  0.30743030404E+02  0.46375375139E+02  0.60425969054E+02  0.00000000000E+00 0.  1.
</event>
<event>
12    1  0.9966151E-001  0.2559009E+03  0.7818608E-02  0.1109765E+00
         21   -1    0    0  501  502  0.00000000000E+00  0.00000000000E+00  0.18545472547E+04  0.18545472547E+04  0.00000000000E+00 0. -1.
         21   -1    0    0  502  503 -0.00000000000E+00 -0.00000000000E+00 -0.39839594631E+02  0.39839594631E+02  0.00000000000E+00 0. -1.
         -6    2    1    2    0  503  0.67777036807E+02 -0.17520344084E+03  0.58244181127E+03  0.63583038764E+03  0.17248723411E+03 0.  0.
        -24    2    3    3    0    0  0.77050757821E+01 -0.99599081520E+01  0.11035787603E+03  0.13204531689E+03  0.71404040138E+02 0.  0.
          6    2    1    2  501    0 -0.67777036807E+02  0.17520344084E+03  0.12322658488E+04  0.12585564617E+04  0.17376787030E+03 0.  0.
         24    2    5    5    0    0 -0.84373990684E+01  0.63470883041E+02  0.84235263201E+03  0.84860553328E+03  0.80459006725E+02 0.  0.
          5    1    5    5  501    0 -0.59339637738E+02  0.11173255780E+03  0.38991321681E+03  0.40995092843E+03  0.47000000000E+01 0. -1.
        -11    1    6    6    0    0 -0.13500756096E+02  0.79421504869E+02  0.56090461205E+03  0.56666041830E+03  0.00000000000E+00 0.  1.
         12    1    6    6    0    0  0.50633570274E+01 -0.15950621828E+02  0.28144801995E+03  0.28194511497E+03  0.00000000000E+00 0. -1.
         -5    1    3    3    0  503  0.60071961025E+02 -0.16524353269E+03  0.47208393524E+03  0.50378507075E+03  0.47000000000E+01 0.  1.
         13    1    4    4    0    0  0.33900605823E+02 -0.11564347375E+02  0.95251455344E+02  0.10176357379E+03  0.00000000000E+00 0. -1.
        -14    1    4    4    0    0 -0.26195530041E+02  0.16044392226E+01  0.15106420684E+02  0.30281743101E+02  0.00000000000E+00 0.  1.
</event>
<event>
12    1  0.9966151E-001  0.3473235E+03  0.7818608E-02  0.1064075E+00
         21   -1    0    0  501  502  0.00000000000E+00  0.00000000000E+00  0.36559225970E+03  0.36559225970E+03  0.00000000000E+00 0. -1.
         21   -1    0    0  502  503 -0.00000000000E+00 -0.00000000000E+00 -0.45525525565E+03  0.45525525565E+03  0.00000000000E+00 0. -1.
         -6    2    1    2    0  503 -0.29977144161E+03 -0.34112635739E+02 -0.26274200378E+03  0.43278833949E+03  0.16506300957E+03 0.  0.
        -24    2    3    3    0    0 -0.28962045745E+03 -0.15204777717E+02 -0.18492296901E+03  0.35192770786E+03  0.74467526177E+02 0.  0.
          6    2    1    2  501    0  0.29977144161E+03  0.34112635739E+02  0.17307900783E+03  0.38805917586E+03  0.17206682392E+03 0.  0.
         24    2    5    5    0    0  0.51012192500E+02  0.25689230507E+02  0.32067868604E+02  0.10195019459E+03  0.78123707243E+02 0.  0.
          5    1    5    5  501    0  0.24875924911E+03  0.84234052313E+01  0.14101113923E+03  0.28610898126E+03  0.47000000000E+01 0. -1.
        -13    1    6    6    0    0  0.29439367428E+02 -0.25324959950E+02  0.24825887384E+02  0.46090721794E+02  0.00000000000E+00 0.  1.
         14    1    6    6    0    0  0.21572825072E+02  0.51014190457E+02  0.72419812202E+01  0.55859472801E+02  0.00000000000E+00 0. -1.
         -5    1    3    3    0  503 -0.10150984159E+02 -0.18907858022E+02 -0.77819034773E+02  0.80860631629E+02  0.47000000000E+01 0.  1.
         11    1    4    4    0    0 -0.14819552502E+03 -0.24025988322E+02 -0.13436884043E+03  0.20147989237E+03  0.00000000000E+00 0. -1.
        -12    1    4    4    0    0 -0.14142493243E+03  0.88212106050E+01 -0.50554128572E+02  0.15044781549E+03  0.00000000000E+00 0.  1.
</event>
<event>
12    1  0.9966151E-001  0.1731589E+03  0.7818608E-02  0.1174944E+00
         21   -1    0    0  503  502  0.00000000000E+00  0.00000000000E+00  0.23591806548E+04  0.23591806548E+04  0.00000000000E+00 0.  1.
         21   -1    0    0  501  503 -0.00000000000E+00 -0.00000000000E+00 -0.13021997226E+02  0.13021997226E+02  0.00000000000E+00 0.  1.
          6    2    1    2  501    0  0.10350331065E+01 -0.10877079477E+01  0.13797744967E+04  0.13904275525E+04  0.17178143819E+03 0.  0.
         24    2    3    3    0    0  0.63559477790E+02  0.26675851583E+02  0.92678976112E+03  0.93228196197E+03  0.73884958042E+02 0.  0.
         -6    2    1    2    0  502 -0.10350331065E+01  0.10877079477E+01  0.96638416088E+03  0.98177509957E+03  0.17315237604E+03 0.  0.
        -24    2    5    5    0    0 -0.15406824118E+01  0.67727840134E+02  0.65698256516E+03  0.66524295217E+03  0.79578014948E+02 0.  0.
          5    1    3    3  501    0 -0.62524444683E+02 -0.27763559531E+02  0.45298473559E+03  0.45814559051E+03  0.47000000000E+01 0. -1.
        -13    1    4    4    0    0 -0.30019318937E+01  0.21102928590E+02  0.48531476860E+03  0.48578263638E+03  0.00000000000E+00 0.  1.
         14    1    4    4    0    0  0.66561409683E+02  0.55729229934E+01  0.44147499252E+03  0.44649932559E+03  0.00000000000E+00 0. -1.
         -5    1    5    5    0  502  0.50564930538E+00 -0.66640132186E+02  0.30940159573E+03  0.31653214740E+03  0.47000000000E+01 0.  1.
         11    1    6    6    0    0  0.39192524828E+01 -0.18047144855E+02  0.12725380618E+03  0.12858690122E+03  0.00000000000E+00 0. -1.
        -12    1    6    6    0    0 -0.54599348947E+01  0.85774984989E+02  0.52972875898E+03  0.53665605095E+03  0.00000000000E+00 0.  1.
</event>
<event>
12    1  0.9966151E-001  0.3393833E+03  0.7818608E-02  0.1067071E+00
         21   -1    0    0  503  502  0.00000000000E+00  0.00000000000E+00  0.55578651479E+03  0.55578651479E+03  0.00000000000E+00 0.  1.
         21   -1    0    0  501  503 -0.00000000000E+00 -0.00000000000E+00 -0.36029901095E+03  0.36029901095E+03  0.00000000000E+00 0.  1.
          6    2    1    2  501    0  0.50328320204E+02 -0.28820507043E+03 -0.20087496383E+03  0.39427693593E+03  0.17178023366E+03 0.  0.
         24    2    3    3    0    0 -0.22319973839E+02 -0.23165392620E+03 -0.16486345809E+03  0.29530863249E+03  0.76586590532E+02 0.  0.
         -6    2    1    2    0  502 -0.50328320204E+02  0.28820507043E+03  0.39636246767E+03  0.52180858980E+03  0.17200551205E+03 0.  0.
        -24    2    5    5    0    0  0.83597558151E+01  0.23472593434E+03  0.23902946466E+03  0.34551317835E+03  0.84131573536E+02 0.  0.
          5    1    3    3  501    0  0.72648294044E+02 -0.56551144228E+02 -0.36011505743E+02  0.98968303446E+02  0.47000000000E+01 0. -1.
        -13    1    4    4    0    0 -0.13280021636E+02 -0.13495364678E+03 -0.14031219574E+03  0.19513164282E+03  0.00000000000E+00 0.  1.
         14    1    4    4    0    0 -0.90399522034E+01 -0.96700279422E+02 -0.24551262347E+02  0.10017698967E+03  0.00000000000E+00 0. -1.
         -5    1    5    5    0  502 -0.58688076020E+02  0.53479136094E+02  0.15733300301E+03  0.17629541146E+03  0.47000000000E+01 0.  1.
         11    1    6    6    0    0 -0.16080588476E+02  0.11399063262E+03  0.16694374207E+03  0.20278723497E+03  0.00000000000E+00 0. -1.
        -12    1    6    6    0    0  0.24440344291E+02  0.12073530172E+03  0.72085722588E+02  0.14272594337E+03  0.00000000000E+00 0.  1.
</event>
<event>
12    1  0.9966151E-001  0.1830779E+03  0.7818608E-02  0.1165455E+00
         21   -1    0    0  501  502  0.00000000000E+00  0.00000000000E+00  0.55938584591E+02  0.55938584591E+02  0.00000000000E+00 0. -1.
         21   -1    0    0  502  503 -0.00000000000E+00 -0.00000000000E+00 -0.74986554011E+03  0.74986554011E+03  0.00000000000E+00 0. -1.
         -6    2    1    2    0  503 -0.41472252343E+02  0.35946962003E+02 -0.53052067730E+03  0.56040827391E+03  0.17202648819E+03 0.  0.
        -24    2    3    3    0    0 -0.90133756656E+02  0.48179649743E+02 -0.39715978624E+03  0.41784320837E+03  0.80072955679E+02 0.  0.
          6    2    1    2  501    0  0.41472252343E+02 -0.35946962003E+02 -0.16340627822E+03  0.24539585079E+03  0.17465789427E+03 0.  0.
         24    2    5    5    0    0  0.23261247573E+01  0.45981010882E+02 -0.81751128563E+02  0.12319001823E+03  0.79830253360E+02 0.  0.
          5    1    5    5  501    0  0.39146127586E+02 -0.81927972886E+02 -0.81655149658E+02  0.12220583256E+03  0.47000000000E+01 0. -1.
        -13    1    6    6    0    0  0.20773967849E+02  0.20343640313E+02 -0.86494676895E+02  0.91251030529E+02  0.00000000000E+00 0.  1.
         14    1    6    6    0    0 -0.18447843091E+02  0.25637370570E+02  0.47435483327E+01  0.31938987699E+02  0.00000000000E+00 0. -1.
         -5    1    3    3    0  503  0.48661504313E+02 -0.12232687739E+02 -0.13336089105E+03  0.14256506555E+03  0.47000000000E+01 0.  1.
         13    1    4    4    0    0 -0.11982293787E+01  0.37758952436E+02 -0.15844961376E+03  0.16289092775E+03  0.00000000000E+00 0. -1.
        -14    1    4    4    0    0 -0.88935527278E+02  0.10420697307E+02 -0.23871017248E+03  0.25495228061E+03  0.00000000000E+00 0.  1.
</event>
<event>
12    1  0.9966151E-001  0.2946226E+03  0.7818608E-02  0.1088290E+00
         21   -1    0    0  501  502  0.00000000000E+00  0.00000000000E+00  0.37273659849E+03  0.37273659849E+03  0.00000000000E+00 0.  1.
         21   -1    0    0  502  503 -0.00000000000E+00 -0.00000000000E+00 -0.32537334136E+03  0.32537334136E+03  0.00000000000E+00 0.  1.
         -6    2    1    2    0  503  0.20353174555E+03  0.12628980176E+03 -0.16437648928E+03  0.33737531077E+03  0.17154645032E+03 0.  0.
        -24    2    3    3    0    0  0.11114480852E+03  0.82173169364E+02 -0.20500001657E+02  0.16072832643E+03  0.79421323489E+02 0.  0.
          6    2    1    2  501    0 -0.20353174555E+03 -0.12628980176E+03  0.21173974640E+03  0.36073462908E+03  0.16709717811E+03 0.  0.
         24    2    5    5    0    0 -0.18692574749E+03 -0.86704642491E+02  0.10416428887E+03  0.24481520418E+03  0.81396283797E+02 0.  0.
          5    1    5    5  501    0 -0.16605998060E+02 -0.39585159267E+02  0.10757545753E+03  0.11591942490E+03  0.47000000000E+01 0. -1.
        -13    1    6    6    0    0 -0.12770478872E+03 -0.17719683460E+02  0.46022582507E+02  0.13689623203E+03  0.00000000000E+00 0.  1.
         14    1    6    6    0    0 -0.59220958774E+02 -0.68984959031E+02  0.58141706364E+02  0.10791897215E+03  0.00000000000E+00 0. -1.
         -5    1    3    3    0  503  0.92386937036E+02  0.44116632394E+02 -0.14387648762E+03  0.17664698434E+03  0.47000000000E+01 0.  1.
         11    1    4    4    0    0  0.35059798253E+02  0.40291857095E+02 -0.45703129780E+02  0.70295087121E+02  0.00000000000E+00 0. -1.
        -12    1    4    4    0    0  0.76085010263E+02  0.41881312269E+02  0.25203128124E+02  0.90433239306E+02  0.00000000000E+00 0.  1.
</event>
<event>
12    1  0.9966151E-001  0.3096081E+03  0.7818608E-02  0.1080621E+00
         21   -1    0    0  503  502  0.00000000000E+00  0.00000000000E+00  0.13746463274E+03  0.13746463274E+03  0.00000000000E+00 0. -1.
         21   -1    0    0  501  503 -0.00000000000E+00 -0.00000000000E+00 -0.11914840965E+04  0.11914840965E+04  0.00000000000E+00 0.  1.
          6    2    1    2  501    0  0.24800397450E+03  0.67323485130E+02 -0.98011289172E+02  0.32405630292E+03  0.17137050983E+03 0.  0.
         24    2    3    3    0    0  0.11712517121E+03  0.98374861130E+02 -0.35572994479E+02  0.17568487796E+03  0.78764328051E+02 0.  0.
         -6    2    1    2    0  502 -0.24800397450E+03 -0.67323485130E+02 -0.95600817455E+03  0.10048924263E+04  0.17268102270E+03 0.  0.
        -24    2    5    5    0    0 -0.16720106034E+03 -0.97048234288E+02 -0.79710473912E+03  0.82410231749E+03  0.79963180363E+02 0.  0.
          5    1    3    3  501    0  0.13087880328E+03 -0.31051376000E+02 -0.62438294693E+02  0.14837142496E+03  0.47000000000E+01 0. -1.
        -11    1    4    4    0    0  0.22044127113E+02 -0.79918132964E+01  0.10597365954E+02  0.25731630051E+02  0.00000000000E+00 0.  1.
         12    1    4    4    0    0  0.95081044101E+02  0.10636667443E+03 -0.46170360433E+02  0.14995324791E+03  0.00000000000E+00 0. -1.
         -5    1    5    5    0  502 -0.80802914155E+02  0.29724749158E+02 -0.15890343543E+03  0.18079010880E+03  0.47000000000E+01 0.  1.
         13    1    6    6    0    0 -0.80192496192E+02 -0.17078081227E+02 -0.21457209030E+03  0.22970345935E+03  0.00000000000E+00 0. -1.
        -14    1    6    6    0    0 -0.87008564150E+02 -0.79970153061E+02 -0.58253264882E+03  0.59439885814E+03  0.00000000000E+00 0.  1.
</event>
<event>
12    1  0.9966151E-001  0.2371814E+03  0.7818608E-02  0.1122781E+00
         21   -1    0    0  503  502  0.00000000000E+00  0.00000000000E+00  0.91429184793E+03  0.91429184793E+03  0.00000000000E+00 0.  1.
         21   -1    0    0  501  503 -0.00000000000E+00 -0.00000000000E+00 -0.69035881768E+02  0.69035881768E+02  0.00000000000E+00 0.  1.
          6    2    1    2  501    0 -0.75540460621E+02  0.13417624713E+03  0.59663561651E+03  0.63971880094E+03  0.17191992002E+03 0.  0.
         24    2    3    3    0    0 -0.10407278246E+03  0.14141307226E+03  0.56051480285E+03  0.59288645948E+03  0.80676567589E+02 0.  0.
         -6    2    1    2    0  502  0.75540460621E+02 -0.13417624713E+03  0.24862034966E+03  0.34360892876E+03  0.18040341232E+03 0.  0.
        -24    2    5    5    0    0  0.10836059693E+03 -0.47004646980E+02  0.17490224355E+03  0.22472874375E+03  0.77205943194E+02 0.  0.
          5    1    3    3  501    0  0.28532321842E+02 -0.72368251251E+01  0.36120813654E+02  0.46832341460E+02  0.47000000000E+01 0. -1.
        -13    1    4    4    0    0 -0.52573038594E+02  0.36424571591E+02  0.30852910570E+03  0.31508869048E+03  0.00000000000E+00 0.  1.
         14    1    4    4    0    0 -0.51499743870E+02  0.10498850067E+03  0.25198569715E+03  0.27779776899E+03  0.00000000000E+00 0. -1.
         -5    1    5    5    0  502 -0.32820136308E+02 -0.87171600155E+02  0.73718106110E+02  0.11888018502E+03  0.47000000000E+01 0.  1.
         13    1    6    6    0    0  0.23690907205E+02  0.85898994150E+01  0.87126866897E+02  0.90698050648E+02  0.00000000000E+00 0. -1.
        -14    1    6    6    0    0  0.84669689724E+02 -0.55594546395E+02  0.87775376651E+02  0.13403069310E+03  0.00000000000E+00 0.  1.
</event>
<event>
12    1  0.9966151E-001  0.1971592E+03  0.7818608E-02  0.1152543E+00
         21   -1    0    0  501  502  0.00000000000E+00  0.00000000000E+00  0.35899651914E+03  0.35899651914E+03  0.00000000000E+00 0. -1.
         21   -1    0    0  502  503 -0.00000000000E+00 -0.00000000000E+00 -0.42572452609E+03  0.42572452609E+03  0.00000000000E+00 0. -1.
         -6    2    1    2    0  503  0.61697059687E+02 -0.73623312544E+02  0.30592738848E+03  0.36395508615E+03  0.17217670686E+03 0.  0.
        -24    2    3    3    0    0  0.60604516730E+02  0.12086632275E+02  0.10972395365E+03  0.14979331055E+03  0.81115323771E+02 0.  0.
          6    2    1    2  501    0 -0.61697059687E+02  0.73623312544E+02 -0.37265539543E+03  0.42076595909E+03  0.17013238745E+03 0.  0.
         24    2    5    5    0    0  0.16391670378E+02  0.80352655866E+02 -0.18646044344E+03  0.21869224984E+03  0.79583710695E+02 0.  0.
          5    1    5    5  501    0 -0.78088730065E+02 -0.67293433218E+01 -0.18619495199E+03  0.20207370925E+03  0.47000000000E+01 0. -1.
        -13    1    6    6    0    0  0.53189297831E+01  0.32927477196E+02 -0.88252625776E+01  0.34502101792E+02  0.00000000000E+00 0.  1.
         14    1    6    6    0    0  0.11072740595E+02  0.47425178670E+02 -0.17763518087E+03  0.18419014805E+03  0.00000000000E+00 0. -1.
         -5    1    3    3    0  503  0.10925429562E+01 -0.85709944820E+02  0.19620343483E+03  0.21416177560E+03  0.47000000000E+01 0.  1.
         13    1    4    4    0    0  0.22634277325E+02  0.38277385254E+02  0.88444829985E+02  0.98994730582E+02  0.00000000000E+00 0. -1.
        -14    1    4    4    0    0  0.37970239405E+02 -0.26190752979E+02  0.21279123669E+02  0.50798579963E+02  0.00000000000E+00 0.  1.
</event>
<event>
12    1  0.9966151E-001  0.4154739E+03  0.7818608E-02  0.1038608E+00
         21   -1    0    0  503  502  0.00000000000E+00  0.00000000000E+00  0.96522686259E+02  0.96522686259E+02  0.00000000000E+00 0. -1.
         21   -1    0    0  501  503 -0.00000000000E+00 -0.00000000000E+00 -0.19060330042E+04  0.19060330042E+04  0.00000000000E+00 0. -1.
          6    2    1    2  501    0  0.22181401467E+01 -0.37801446091E+03 -0.65352291004E+03  0.77440995688E+03  0.17239122534E+03 0.  0.
         24    2    3    3    0    0  0.35739023673E+02 -0.21510618358E+03 -0.47690400790E+03  0.53175983213E+03  0.88222096325E+02 0.  0.
         -6    2    1    2    0  502 -0.22181401467E+01  0.37801446091E+03 -0.11559874080E+04  0.12281457336E+04  0.17069037137E+03 0.  0.
        -24    2    5    5    0    0  0.63118593666E+02  0.19404534083E+03 -0.60393621960E+03  0.64257239877E+03  0.80763724268E+02 0.  0.
          5    1    3    3  501    0 -0.33520883526E+02 -0.16290827732E+03 -0.17661890214E+03  0.24265012476E+03  0.47000000000E+01 0. -1.
        -13    1    4    4    0    0  0.47529658301E+02 -0.11904116723E+03 -0.19191160107E+03  0.23078113124E+03  0.00000000000E+00 0.  1.
         14    1    4    4    0    0 -0.11790634628E+02 -0.96065016358E+02 -0.28499240683E+03  0.30097870088E+03  0.00000000000E+00 0. -1.
         -5    1    5    5    0  502 -0.65336733813E+02  0.18396912008E+03 -0.55205118835E+03  0.58557333485E+03  0.47000000000E+01 0.  1.
         13    1    6    6    0    0 -0.94621107671E+01  0.16813712853E+02 -0.18988121254E+02  0.27069932191E+02  0.00000000000E+00 0. -1.
        -14    1    6    6    0    0  0.72580704434E+02  0.17723162798E+03 -0.58494809834E+03  0.61550246658E+03  0.00000000000E+00 0.  1.
</event>
<event>
12    1  0.9966151E-001  0.2544647E+03  0.7818608E-02  0.1110788E+00
         21   -1    0    0  501  502  0.00000000000E+00  0.00000000000E+00  0.15987956273E+03  0.15987956273E+03  0.00000000000E+00 0.  1.
         21   -1    0    0  502  503 -0.00000000000E+00 -0.00000000000E+00 -0.44160622233E+03  0.44160622233E+03  0.00000000000E+00 0.  1.
         -6    2    1    2    0  503 -0.60861364227E+02 -0.17494896083E+03 -0.50600276299E+02  0.25772470788E+03  0.17190227612E+03 0.  0.
        -24    2    3    3    0    0 -0.10185399605E+03 -0.96466584186E+02 -0.16370313272E+02  0.16267914156E+03  0.80724702319E+02 0.  0.
          6    2    1    2  501    0  0.60861364227E+02  0.17494896083E+03 -0.23112638330E+03  0.34376107719E+03  0.17447357559E+03 0.  0.
         24    2    5    5    0    0 -0.28073391014E+02  0.43250118976E+02 -0.75687884560E+02  0.12141631668E+03  0.79715607076E+02 0.  0.
          5    1    5    5  501    0  0.88934755241E+02  0.13169884186E+03 -0.15543849874E+03  0.22234476051E+03  0.47000000000E+01 0. -1.
        -13    1    6    6    0    0  0.12726437698E+02 -0.10353369385E+02 -0.44023623441E+02  0.46981207892E+02  0.00000000000E+00 0.  1.
         14    1    6    6    0    0 -0.40799828712E+02  0.53603488362E+02 -0.31664261119E+02  0.74435108784E+02  0.00000000000E+00 0. -1.
         -5    1    3    3    0  503  0.40992631825E+02 -0.78482376648E+02 -0.34229963027E+02  0.95045566320E+02  0.47000000000E+01 0.  1.
         11    1    4    4    0    0 -0.29140601276E+02 -0.82738663686E+02 -0.55679010524E+01  0.87896886369E+02  0.00000000000E+00 0. -1.
        -12    1    4    4    0    0 -0.72713394776E+02 -0.13727920501E+02 -0.10802412220E+02  0.74782255187E+02  0.00000000000E+00 0.  1.
</event>
<event>
12    1  0.9966151E-001  0.4484105E+03  0.7818608E-02  0.1028231E+00
         21   -1    0    0  501  502  0.00000000000E+00  0.00000000000E+00  0.72650845634E+03  0.72650845634E+03  0.00000000000E+00 0. -1.
         21   -1    0    0  502  503 -0.00000000000E+00 -0.00000000000E+00 -0.46016853473E+03  0.46016853473E+03  0.00000000000E+00 0. -1.
         -6    2    1    2    0  503 -0.39435398274E+03 -0.12571857462E+03  0.50799758390E+03  0.67729460077E+03  0.17130734742E+03 0.  0.
        -24    2    3    3    0    0 -0.34415293075E+03 -0.49735939059E+02  0.40918351541E+03  0.54283339202E+03  0.79511249713E+02 0.  0.
          6    2    1    2  501    0  0.39435398274E+03  0.12571857462E+03 -0.24165766229E+03  0.50938239030E+03  0.17248701430E+03 0.  0.
         24    2    5    5    0    0  0.13416787441E+03  0.10137343919E+03 -0.12529805119E+03  0.22328599801E+03  0.76677523307E+02 0.  0.
          5    1    5    5  501    0  0.26018610833E+03  0.24345135433E+02 -0.11635961109E+03  0.28609639228E+03  0.47000000000E+01 0. -1.
        -13    1    6    6    0    0  0.10168953255E+03  0.43409963558E+02 -0.45799147575E+02  0.11967768332E+03  0.00000000000E+00 0.  1.
         14    1    6    6    0    0  0.32478341856E+02  0.57963475628E+02 -0.79498903617E+02  0.10360831469E+03  0.00000000000E+00 0. -1.
         -5    1    3    3    0  503 -0.50201051989E+02 -0.75982635560E+02  0.98814068487E+02  0.13446120875E+03  0.47000000000E+01 0.  1.
         11    1    4    4    0    0 -0.85148180480E+01  0.12667124322E+02  0.19403844218E+02  0.24687392236E+02  0.00000000000E+00 0. -1.
        -12    1    4    4    0    0 -0.33563811270E+03 -0.62403063382E+02  0.38977967119E+03  0.51814599978E+03  0.00000000000E+00 0.  1.
</event>
<event>
12    1  0.9966151E-001  0.1884535E+03  0.7818608E-02  0.1160647E+00
         21   -1    0    0  503  502  0.00000000000E+00  0.00000000000E+00  0.87667545199E+03  0.87667545199E+03  0.00000000000E+00 0. -1.
         21   -1    0    0  501  503 -0.00000000000E+00 -0.00000000000E+00 -0.41248668564E+02  0.41248668564E+02  0.00000000000E+00 0. -1.
          6    2    1    2  501    0  0.59975304782E+02  0.40030312543E+02  0.50790625234E+03  0.54174114257E+03  0.17411272580E+03 0.  0.
         24    2    3    3    0    0 -0.12731837164E+02 -0.24940642743E+01  0.11944630812E+03  0.14422652727E+03  0.79784400803E+02 0.  0.
         -6    2    1    2    0  502 -0.59975304782E+02 -0.40030312543E+02  0.32752053109E+03  0.37618297798E+03  0.17042438656E+03 0.  0.
        -24    2    5    5    0    0  0.18065213856E+02  0.19203346706E+02  0.18540790753E+03  0.20350687451E+03  0.79648197218E+02 0.  0.
          5    1    3    3  501    0  0.72707141945E+02  0.42524376817E+02  0.38845994422E+03  0.39751461530E+03  0.47000000000E+01 0. -1.
        -11    1    4    4    0    0 -0.91420533387E+01 -0.23772549462E+02  0.11996716999E+03  0.12264107437E+03  0.00000000000E+00 0.  1.
         12    1    4    4    0    0 -0.35897838249E+01  0.21278485188E+02 -0.52086187405E+00  0.21585452900E+02  0.00000000000E+00 0. -1.
         -5    1    5    5    0  502 -0.78040518638E+02 -0.59233659249E+02  0.14211262356E+03  0.17267610347E+03  0.47000000000E+01 0.  1.
         13    1    6    6    0    0 -0.21867107245E+01  0.19501586327E+02  0.28509796667E+01  0.19829817400E+02  0.00000000000E+00 0. -1.
        -14    1    6    6    0    0  0.20251924581E+02 -0.29823962050E+00  0.18255692787E+03  0.18367705711E+03  0.00000000000E+00 0.  1.
</event>
<event>
12    1  0.9966151E-001  0.2052339E+03  0.7818608E-02  0.1147244E+00
         21   -1    0    0  503  502  0.00000000000E+00  0.00000000000E+00  0.29598120860E+03  0.29598120860E+03  0.00000000000E+00 0. -1.
         21   -1    0    0  501  503 -0.00000000000E+00 -0.00000000000E+00 -0.24336318990E+03  0.24336318990E+03  0.00000000000E+00 0. -1.
          6    2    1    2  501    0 -0.77551920621E+02  0.56436725318E+02 -0.15225598150E+03  0.25554420820E+03  0.18144297750E+03 0.  0.
         24    2    3    3    0    0 -0.12082857509E+03  0.27457062681E+02 -0.13494806297E+03  0.20045933085E+03  0.81360486584E+02 0.  0.
         -6    2    1    2    0  502  0.77551920621E+02 -0.56436725318E+02  0.20487400021E+03  0.28380019030E+03  0.17137615848E+03 0.  0.
        -24    2    5    5    0    0  0.87938962165E+02 -0.21598168643E+02  0.60017632831E+02  0.13437772601E+03  0.79091814000E+02 0.  0.
          5    1    3    3  501    0  0.43276654470E+02  0.28979662637E+02 -0.17307918537E+02  0.55084877351E+02  0.47000000000E+01 0. -1.
        -13    1    4    4    0    0 -0.46429436631E+02  0.46352864435E+02 -0.34762977286E+02  0.74247863383E+02  0.00000000000E+00 0.  1.
         14    1    4    4    0    0 -0.74399138461E+02 -0.18895801754E+02 -0.10018508568E+03  0.12621146747E+03  0.00000000000E+00 0. -1.
         -5    1    5    5    0  502 -0.10387041543E+02 -0.34838556675E+02  0.14485636738E+03  0.14942246429E+03  0.47000000000E+01 0.  1.
         11    1    6    6    0    0 -0.11536981479E+02 -0.16106197030E+02  0.15971496868E+02  0.25447990817E+02  0.00000000000E+00 0. -1.
        -12    1    6    6    0    0  0.99475943644E+02 -0.54919716130E+01  0.44046135962E+02  0.10892973519E+03  0.00000000000E+00 0.  1.
</event>
<event>
12    1  0.9966151E-001  0.1744396E+03  0.7818608E-02  0.1173589E+00
         21   -1    0    0  501  502  0.00000000000E+00  0.00000000000E+00  0.12260868697E+03  0.12260868697E+03  0.00000000000E+00 0.  1.
         21   -1    0    0  502  503 -0.00000000000E+00 -0.00000000000E+00 -0.36454098207E+03  0.36454098207E+03  0.00000000000E+00 0.  1.
         -6    2    1    2    0  503 -0.51243521761E+01  0.24571446829E+02  0.17345143659E+02  0.17529982337E+03  0.17262432934E+03 0.  0.
        -24    2    3    3    0    0  0.56721953909E+02  0.47346293365E+02  0.11902610215E+02  0.10900223381E+03  0.79251266839E+02 0.  0.
          6    2    1    2  501    0  0.51243521761E+01 -0.24571446829E+02 -0.25927743876E+03  0.31184984566E+03  0.17145122048E+03 0.  0.
         24    2    5    5    0    0 -0.34935817634E+02 -0.12030687145E+02 -0.57191178140E+02  0.10539637732E+03  0.80450709808E+02 0.  0.
          5    1    5    5  501    0  0.40060169810E+02 -0.12540759684E+02 -0.20208626062E+03  0.20645346834E+03  0.47000000000E+01 0. -1.
        -11    1    6    6    0    0 -0.52666028886E+02 -0.31712093291E+02 -0.45277620591E+02  0.76350706519E+02  0.00000000000E+00 0.  1.
         12    1    6    6    0    0  0.17730211252E+02  0.19681406146E+02 -0.11913557549E+02  0.29045670803E+02  0.00000000000E+00 0. -1.
         -5    1    3    3    0  503 -0.61846306085E+02 -0.22774846536E+02  0.54425334431E+01  0.66297589560E+02  0.47000000000E+01 0.  1.
         11    1    4    4    0    0  0.35847823500E+02  0.63132535921E+02  0.28519945442E+02  0.78001095053E+02  0.00000000000E+00 0. -1.
        -12    1    4    4    0    0  0.20874130409E+02 -0.15786242556E+02 -0.16617335227E+02  0.31001138760E+02  0.00000000000E+00 0.  1.
</event>
<event>
12    1  0.9966151E-001  0.7274961E+03  0.7818608E-02  0.9671802E-01
         21   -1    0    0  503  502  0.00000000000E+00  0.00000000000E+00  0.80788742532E+03  0.80788742532E+03  0.00000000000E+00 0. -1.
         21   -1    0    0  501  503 -0.00000000000E+00 -0.00000000000E+00 -0.69171672391E+03  0.69171672391E+03  0.00000000000E+00 0. -1.
          6    2    1    2  501    0 -0.59358779780E+03 -0.38369382122E+03  0.23296851689E+03  0.76279186793E+03  0.16736093264E+03 0.  0.
         24    2    3    3    0    0 -0.41002829955E+03 -0.25266189669E+03  0.85858727144E+02  0.49348380106E+03  0.64755697841E+02 0.  0.
         -6    2    1    2    0  502  0.59358779780E+03  0.38369382122E+03 -0.11679781548E+03  0.73681228130E+03  0.17228809021E+03 0.  0.
        -24    2    5    5    0    0  0.51997689737E+03  0.35656661205E+03 -0.14689353932E+03  0.65265592246E+03  0.82863252418E+02 0.  0.
          5    1    3    3  501    0 -0.18355949825E+03 -0.13103192453E+03  0.14710978975E+03  0.26930806687E+03  0.47000000000E+01 0. -1.
        -11    1    4    4    0    0 -0.23595863016E+03 -0.10766681338E+03  0.49279999639E+02  0.26400215191E+03  0.00000000000E+00 0.  1.
         12    1    4    4    0    0 -0.17406966940E+03 -0.14499508331E+03  0.36578727504E+02  0.22948164915E+03  0.00000000000E+00 0. -1.
         -5    1    5    5    0  502  0.73610900428E+02  0.27127209171E+02  0.30095723838E+02  0.84156358836E+02  0.47000000000E+01 0.  1.
         13    1    6    6    0    0  0.10354635626E+03  0.98983508056E+02 -0.60209205605E+02  0.15538574967E+03  0.00000000000E+00 0. -1.
        -14    1    6    6    0    0  0.41643054111E+03  0.25758310400E+03 -0.86684333714E+02  0.49727017279E+03  0.00000000000E+00 0.  1.
</event>
<event>
12    1  0.9966151E-001  0.2016550E+03  0.7818608E-02  0.1149515E+00
         21   -1    0    0  503  502  0.00000000000E+00  0.00000000000E+00  0.23413116883E+03  0.23413116883E+03  0.00000000000E+00 0.  1.
         21   -1    0    0  501  503 -0.00000000000E+00 -0.00000000000E+00 -0.17741123196E+03  0.17741123196E+03  0.00000000000E+00 0.  1.
          6    2    1    2  501    0 -0.61042840403E+02  0.71794222296E+02 -0.16867836937E+02  0.19688008328E+03  0.17203663723E+03 0.  0.
         24    2    3    3    0    0  0.21886934051E+02  0.67260364705E+02 -0.33598977160E+02  0.11202771496E+03  0.80114437591E+02 0.  0.
         -6    2    1    2    0  502  0.61042840403E+02 -0.71794222296E+02  0.73587773803E+02  0.21466231751E+03  0.17828098998E+03 0.  0.
        -24    2    5    5    0    0  0.89778189753E+02 -0.22324299517E+02  0.86818594372E+00  0.12201663753E+03  0.79553808092E+02 0.  0.
          5    1    3    3  501    0 -0.82929774454E+02  0.45338575916E+01  0.16731140223E+02  0.84852368316E+02  0.47000000000E+01 0. -1.
        -11    1    4    4    0    0  0.33150370179E+02 -0.40539682194E+01 -0.27353330111E+01  0.33509159166E+02  0.00000000000E+00 0.  1.
         12    1    4    4    0    0 -0.11263436128E+02  0.71314332924E+02 -0.30863644149E+02  0.78518555794E+02  0.00000000000E+00 0. -1.
         -5    1    5    5    0  502 -0.28735349350E+02 -0.49469922780E+02  0.72719587859E+02  0.92645679989E+02  0.47000000000E+01 0.  1.
         11    1    6    6    0    0  0.93516940908E+02 -0.34990824484E+02  0.16875134865E+02  0.10126473331E+03  0.00000000000E+00 0. -1.
        -12    1    6    6    0    0 -0.37387511550E+01  0.12666524967E+02 -0.16006948921E+02  0.20751904219E+02  0.00000000000E+00 0.  1.
</event>
<event>
12    1  0.9966151E-001  0.1871421E+03  0.7818608E-02  0.1161253E+00
         21   -1    0    0  501  502  0.00000000000E+00  0.00000000000E+00  0.80577539156E+02  0.80577539156E+02  0.00000000000E+00 0. -1.
         21   -1    0    0  502  503 -0.00000000000E+00 -0.00000000000E+00 -0.43401105844E+03  0.43401105844E+03  0.00000000000E+00 0. -1.
         -6    2    1    2    0  503  0.17684794548E+02 -0.71333043034E+02 -0.16319554374E+03  0.24830417643E+03  0.17210759295E+03 0.  0.
        -24    2    3    3    0    0  0.46848797790E+01 -0.92696956707E+02 -0.18039370806E+03  0.21759128911E+03  0.78672773603E+02 0.  0.
          6    2    1    2  501    0 -0.17684794548E+02  0.71333043034E+02 -0.19023797555E+03  0.26628442117E+03  0.17121842959E+03 0.  0.
         24    2    5    5    0    0 -0.70912080087E+02  0.52314932344E+02 -0.84041180449E+02  0.14589056024E+03  0.80347746127E+02 0.  0.
          5    1    5    5  501    0  0.53227285539E+02  0.19018110690E+02 -0.10619679510E+03  0.12039386093E+03  0.47000000000E+01 0. -1.
        -11    1    6    6    0    0 -0.42749764283E+02 -0.11380429382E+00  0.19664237601E+00  0.42750368021E+02  0.00000000000E+00 0.  1.
         12    1    6    6    0    0 -0.28162315803E+02  0.52428736638E+02 -0.84237822825E+02  0.10314019222E+03  0.00000000000E+00 0. -1.
         -5    1    3    3    0  503  0.12999914769E+02  0.21363913674E+02  0.17198164324E+02  0.30712887321E+02  0.47000000000E+01 0.  1.
         11    1    4    4    0    0 -0.14337162645E+02 -0.72991621807E+01  0.10839814442E+01  0.16124733084E+02  0.00000000000E+00 0. -1.
        -12    1    4    4    0    0  0.19022042424E+02 -0.85397794527E+02 -0.18147768951E+03  0.20146655603E+03  0.00000000000E+00 0.  1.
</event>
<event>
12    1  0.9966151E-001  0.1870999E+03  0.7818608E-02  0.1161225E+00
         21   -1    0    0  501  502  0.00000000000E+00  0.00000000000E+00  0.47536915971E+03  0.47536915971E+03  0.00000000000E+00 0. -1.
         21   -1    0    0  502  503 -0.00000000000E+00 -0.00000000000E+00 -0.85668526859E+02  0.85668526859E+02  0.00000000000E+00 0. -1.
         -6    2    1    2    0  503  0.15760764084E+02  0.70725396074E+02  0.89070326326E+02  0.20721940763E+03  0.17249891748E+03 0.  0.
        -24    2    3    3    0    0  0.54859931184E+02  0.50819640664E+02  0.11278681878E+03  0.15712403878E+03  0.79842652413E+02 0.  0.
          6    2    1    2  501    0 -0.15760764084E+02 -0.70725396074E+02  0.30063030653E+03  0.35381827894E+03  0.17192530348E+03 0.  0.
         24    2    5    5    0    0  0.22703361329E+02  0.18704428134E+02  0.17639841231E+03  0.19591693018E+03  0.80010908110E+02 0.  0.
          5    1    5    5  501    0 -0.38464125412E+02 -0.89429824208E+02  0.12423189422E+03  0.15790134877E+03  0.47000000000E+01 0. -1.
        -13    1    6    6    0    0 -0.27404810908E+02  0.14860036944E+02  0.41092133317E+02  0.51579140933E+02  0.00000000000E+00 0.  1.
         14    1    6    6    0    0  0.50108172236E+02  0.38443911896E+01  0.13530627899E+03  0.14433778924E+03  0.00000000000E+00 0. -1.
         -5    1    3    3    0  503 -0.39099167100E+02  0.19905755410E+02 -0.23716492452E+02  0.50095368854E+02  0.47000000000E+01 0.  1.
         11    1    4    4    0    0  0.71339630526E+02  0.25254628021E+02  0.61587218295E+02  0.97571125736E+02  0.00000000000E+00 0. -1.
        -12    1    4    4    0    0 -0.16479699343E+02  0.25565012642E+02  0.51199600483E+02  0.59552913040E+02  0.00000000000E+00 0.  1.
</event>
<event>
12    1  0.9966151E-001  0.2634965E+03  0.7818608E-02  0.1105160E+00
         21   -1    0    0  501  502  0.00000000000E+00  0.00000000000E+00  0.11559970422E+03  0.11559970422E+03  0.00000000000E+00 0.  1.
         21   -1    0    0  502  503 -0.00000000000E+00 -0.00000000000E+00 -0.67890847205E+03  0.67890847205E+03  0.00000000000E+00 0.  1.
         -6    2    1    2    0  503  0.15700702734E+03 -0.12284875893E+03 -0.41819867094E+03  0.49428789425E+03  0.17230023164E+03 0.  0.
        -24    2    3    3    0    0  0.37895107589E+02 -0.41467920824E+02 -0.26381874913E+03  0.28294518561E+03  0.85451846276E+02 0.  0.
          6    2    1    2  501    0 -0.15700702734E+03  0.12284875893E+03 -0.14511009689E+03  0.30022028201E+03  0.17126661468E+03 0.  0.
         24    2    5    5    0    0 -0.48285097459E+02  0.28400276965E+01 -0.63169857178E+02  0.11867456740E+03  0.88055128739E+02 0.  0.
          5    1    5    5  501    0 -0.10872192989E+03  0.12000873123E+03 -0.81940239710E+02  0.18154571461E+03  0.47000000000E+01 0. -1.
        -13    1    6    6    0    0 -0.43382127333E+02  0.21277620634E+02  0.43466316218E+01  0.48514320754E+02  0.00000000000E+00 0.  1.
         14    1    6    6    0    0 -0.49029701259E+01 -0.18437592937E+02 -0.67516488799E+02  0.70160246644E+02  0.00000000000E+00 0. -1.
         -5    1    3    3    0  503  0.11911191976E+03 -0.81380838103E+02 -0.15437992181E+03  0.21134270864E+03  0.47000000000E+01 0.  1.
         11    1    4    4    0    0  0.15234140513E+02 -0.25829067527E+02 -0.16751902233E+02  0.34348886371E+02  0.00000000000E+00 0. -1.
        -12    1    4    4    0    0  0.22660967076E+02 -0.15638853298E+02 -0.24706684690E+03  0.24859629924E+03  0.00000000000E+00 0.  1.
</event>
<event>
12    1  0.9966151E-001  0.2346140E+03  0.7818608E-02  0.1124854E+00
         21   -1    0    0  503  502  0.00000000000E+00  0.00000000000E+00  0.67489209500E+03  0.67489209500E+03  0.00000000000E+00 0.  1.
         21   -1    0    0  501  503 -0.00000000000E+00 -0.00000000000E+00 -0.88914668904E+02  0.88914668904E+02  0.00000000000E+00 0.  1.
          6    2    1    2  501    0  0.99240109484E+02  0.11435291726E+03  0.42661335558E+03  0.48687030577E+03  0.17921649051E+03 0.  0.
         24    2    3    3    0    0  0.91791593458E+02  0.14407883605E+03  0.41099194128E+03  0.45215389433E+03  0.79651495502E+02 0.  0.
         -6    2    1    2    0  502 -0.99240109484E+02 -0.11435291726E+03  0.15936407052E+03  0.27693645813E+03  0.16843902711E+03 0.  0.
        -24    2    5    5    0    0 -0.86030252177E+02 -0.99186509464E+02  0.43435533530E+02  0.15918232468E+03  0.78823847722E+02 0.  0.
          5    1    3    3  501    0  0.74485160261E+01 -0.29725918788E+02  0.15621414298E+02  0.34716411443E+02  0.47000000000E+01 0. -1.
        -13    1    4    4    0    0  0.11358611572E+02  0.47383281891E+01  0.11154555127E+03  0.11222245684E+03  0.00000000000E+00 0.  1.
         14    1    4    4    0    0  0.80432981886E+02  0.13934050786E+03  0.29944639000E+03  0.33993143749E+03  0.00000000000E+00 0. -1.
         -5    1    5    5    0  502 -0.13209857307E+02 -0.15166407796E+02  0.11592853699E+03  0.11775413345E+03  0.47000000000E+01 0.  1.
         11    1    6    6    0    0 -0.36326306654E+02 -0.20542489661E+02  0.50932970809E+02  0.65846502960E+02  0.00000000000E+00 0. -1.
        -12    1    6    6    0    0 -0.49703945523E+02 -0.78644019803E+02 -0.74974372788E+01  0.93335821725E+02  0.00000000000E+00 0.  1.
</event>
<event>
12    1  0.9966151E-001  0.2142587E+03  0.7818608E-02  0.1138313E+00
         21   -1    0    0  503  502  0.00000000000E+00  0.00000000000E+00  0.82500043385E+02  0.82500043385E+02  0.00000000000E+00 0.  1.
         21   -1    0    0  501  503 -0.00000000000E+00 -0.00000000000E+00 -0.68845225272E+03  0.68845225272E+03  0.00000000000E+00 0.  1.
          6    2    1    2  501    0 -0.96262598973E+02 -0.83151008492E+02 -0.13331274876E+03  0.25201601968E+03  0.17192791228E+03 0.  0.
         24    2    3    3    0    0 -0.43529054478E+02  0.12580052296E+02 -0.10186175839E+03  0.13818932022E+03  0.81654357526E+02 0.  0.
         -6    2    1    2    0  502  0.96262598973E+02  0.83151008492E+02 -0.47263946057E+03  0.51893627642E+03  0.17241293779E+03 0.  0.
        -24    2    5    5    0    0  0.46097835707E+02  0.93335049247E+02 -0.18367915987E+03  0.22543949017E+03  0.79047378707E+02 0.  0.
          5    1    3    3  501    0 -0.52733544494E+02 -0.95731060788E+02 -0.31450990374E+02  0.11382669946E+03  0.47000000000E+01 0. -1.
        -13    1    4    4    0    0 -0.14216430860E+02  0.13515116534E+02 -0.10668022136E+03  0.10846858951E+03  0.00000000000E+00 0.  1.
         14    1    4    4    0    0 -0.29312623618E+02 -0.93506423753E+00  0.48184629753E+01  0.29720730710E+02  0.00000000000E+00 0. -1.
         -5    1    5    5    0  502  0.50164763265E+02 -0.10184040755E+02 -0.28896030070E+03  0.29349678625E+03  0.47000000000E+01 0.  1.
         11    1    6    6    0    0  0.11664512744E+02  0.61415366944E+02 -0.16215690910E+03  0.17378944538E+03  0.00000000000E+00 0. -1.
        -12    1    6    6    0    0  0.34433322963E+02  0.31919682303E+02 -0.21522250768E+02  0.51650044789E+02  0.00000000000E+00 0.  1.
</event>
<event>
12    1  0.9966151E-001  0.2234887E+03  0.7818608E-02  0.1131512E+00
         21   -1    0    0  503  502  0.00000000000E+00  0.00000000000E+00  0.64400430424E+03  0.64400430424E+03  0.00000000000E+00 0. -1.
         21   -1    0    0  501  503 -0.00000000000E+00 -0.00000000000E+00 -0.11103790794E+03  0.11103790794E+03  0.00000000000E+00 0. -1.
          6    2    1    2  501    0 -0.64842719094E+02  0.12566846184E+03  0.47451166358E+03  0.52403542503E+03  0.17162362103E+03 0.  0.
         24    2    3    3    0    0 -0.79161942178E+02  0.15022300986E+03  0.35799690284E+03  0.40401148805E+03  0.78929932558E+02 0.  0.
         -6    2    1    2    0  502  0.64842719094E+02 -0.12566846184E+03  0.58454732721E+02  0.23100678715E+03  0.17306079686E+03 0.  0.
        -24    2    5    5    0    0  0.86992084926E+01 -0.10653186613E+01  0.51090749949E+02  0.94060245335E+02  0.78487284893E+02 0.  0.
          5    1    3    3  501    0  0.14319223084E+02 -0.24554548019E+02  0.11651476074E+03  0.12002393698E+03  0.47000000000E+01 0. -1.
        -13    1    4    4    0    0 -0.71514245780E+02  0.60285581103E+02  0.22069589811E+03  0.23969838981E+03  0.00000000000E+00 0.  1.
         14    1    4    4    0    0 -0.76476963982E+01  0.89937428757E+02  0.13730100474E+03  0.16431309824E+03  0.00000000000E+00 0. -1.
         -5    1    5    5    0  502  0.56143510601E+02 -0.12460314318E+03  0.73639827718E+01  0.13694654182E+03  0.47000000000E+01 0.  1.
         13    1    6    6    0    0  0.14309417806E+02  0.10769124856E+02  0.69330074338E+02  0.71605814679E+02  0.00000000000E+00 0. -1.
        -14    1    6    6    0    0 -0.56102093135E+01 -0.11834443517E+02 -0.18239324389E+02  0.22454430656E+02  0.00000000000E+00 0.  1.
</event>
<event>
12    1  0.9966151E-001  0.2798718E+03  0.7818608E-02  0.1096082E+00
         21   -1    0    0  503  502  0.00000000000E+00  0.00000000000E+00  0.21626034129E+03  0.21626034129E+03  0.00000000000E+00 0.  1.
         21   -1    0    0  501  503 -0.00000000000E+00 -0.00000000000E+00 -0.72034597114E+03  0.72034597114E+03  0.00000000000E+00 0. -1.
          6    2    1    2  501    0 -0.14319927346E+03 -0.16727229655E+03  0.79034547216E+02  0.29081730098E+03  0.17274892122E+03 0.  0.
         24    2    3    3    0    0 -0.15464278537E+03 -0.12789732009E+03  0.10495075604E+03  0.24208248165E+03  0.85540348228E+02 0.  0.
         -6    2    1    2    0  502  0.14319927346E+03  0.16727229655E+03 -0.58312017707E+03  0.64578901144E+03  0.16890308843E+03 0.  0.
        -24    2    5    5    0    0  0.37802258964E+02  0.81988210741E+02 -0.38812498010E+03  0.40824507277E+03  0.88724076676E+02 0.  0.
          5    1    3    3  501    0  0.11443511907E+02 -0.39374976456E+02 -0.25916208821E+02  0.48734819332E+02  0.47000000000E+01 0. -1.
        -11    1    4    4    0    0 -0.40373296367E+02 -0.88205594442E+02  0.51556068169E+02  0.10985562396E+03  0.00000000000E+00 0.  1.
         12    1    4    4    0    0 -0.11426948900E+03 -0.39691725651E+02  0.53394687868E+02  0.13222685769E+03  0.00000000000E+00 0. -1.
         -5    1    5    5    0  502  0.10539701450E+03  0.85284085807E+02 -0.19499519698E+03  0.23754393867E+03  0.47000000000E+01 0.  1.
         13    1    6    6    0    0  0.47074472617E+02  0.81089120691E+02 -0.38774611132E+03  0.39892166939E+03  0.00000000000E+00 0. -1.
        -14    1    6    6    0    0 -0.92722136535E+01  0.89909004989E+00 -0.37886877476E+00  0.93234033755E+01  0.00000000000E+00 0.  1.
</event>
<event>
12    1  0.9966151E-001  0.2462686E+03  0.7818608E-02  0.1115764E+00
         21   -1    0    0  503  502  0.00000000000E+00  0.00000000000E+00  0.37223873364E+03  0.37223873364E+03  0.00000000000E+00 0.  1.
         21   -1    0    0  501  503 -0.00000000000E+00 -0.00000000000E+00 -0.16452595662E+03  0.16452595662E+03  0.00000000000E+00 0.  1.
          6    2    1    2  501    0 -0.16783723952E+03 -0.50122984468E+02  0.74763705556E+02  0.25690097173E+03  0.17241474724E+03 0.  0.
         24    2    3    3    0    0 -0.18620988090E+03 -0.73066820328E+02  0.67795626928E+02  0.22632945434E+03  0.81338151543E+02 0.  0.
         -6    2    1    2    0  502  0.16783723952E+03  0.50122984468E+02  0.13294907146E+03  0.27986371853E+03  0.17310861564E+03 0.  0.
        -24    2    5    5    0    0  0.17279414500E+02  0.42872112097E+02  0.77832371265E+02  0.11930166055E+03  0.77707219949E+02 0.  0.
          5    1    3    3  501    0  0.18372641381E+02  0.22943835860E+02  0.69680786278E+01  0.30571517383E+02  0.47000000000E+01 0. -1.
        -13    1    4    4    0    0 -0.56805298715E+02 -0.61542322514E+02  0.42709948354E+02  0.94012973098E+02  0.00000000000E+00 0.  1.
         14    1    4    4    0    0 -0.12940458218E+03 -0.11524497815E+02  0.25085678575E+02  0.13231648125E+03  0.00000000000E+00 0. -1.
         -5    1    5    5    0  502  0.15055782502E+03  0.72508723715E+01  0.55116700190E+02  0.16056205798E+03  0.47000000000E+01 0.  1.
         13    1    6    6    0    0  0.33086571904E+02 -0.10525824231E+02  0.29182177682E+02  0.45355415447E+02  0.00000000000E+00 0. -1.
        -14    1    6    6    0    0 -0.15807157404E+02  0.53397936328E+02  0.48650193583E+02  0.73946245103E+02  0.00000000000E+00 0.  1.
</event>
<event>
12    1  0.9966151E-001  0.2664934E+03  0.7818608E-02  0.1103370E+00
         21   -1    0    0  503  502  0.00000000000E+00  0.00000000000E+00  0.39337950738E+02  0.39337950738E+02  0.00000000000E+00 0.  1.
         21   -1    0    0  501  503 -0.00000000000E+00 -0.00000000000E+00 -0.19097527189E+04  0.19097527189E+04  0.00000000000E+00 0.  1.
          6    2    1    2  501    0  0.11834964918E+03 -0.16544839811E+03 -0.11656775355E+04  0.11956496812E+04  0.17144746031E+03 0.  0.
         24    2    3    3    0    0  0.46060040680E+02 -0.26565550688E+02 -0.27380746998E+03  0.29012854039E+03  0.79854765052E+02 0.  0.
         -6    2    1    2    0  502 -0.11834964918E+03  0.16544839811E+03 -0.70473723267E+03  0.75344098838E+03  0.17215964672E+03 0.  0.
        -24    2    5    5    0    0 -0.12148778701E+03  0.11220376683E+03 -0.35847453545E+03  0.40306292948E+03  0.81282008299E+02 0.  0.
          5    1    3    3  501    0  0.72289608495E+02 -0.13888284742E+03 -0.89187006550E+03  0.90552114086E+03  0.47000000000E+01 0. -1.
        -13    1    4    4    0    0  0.43325775120E+02 -0.41230255211E+02 -0.26720257068E+03  0.27381429932E+03  0.00000000000E+00 0.  1.
         14    1    4    4    0    0  0.27342655603E+01  0.14664704522E+02 -0.66048992976E+01  0.16314241068E+02  0.00000000000E+00 0. -1.
         -5    1    5    5    0  502  0.31381378338E+01  0.53244631276E+02 -0.34626269722E+03  0.35037805890E+03  0.47000000000E+01 0.  1.
         13    1    6    6    0    0 -0.64989571682E+02  0.77427533531E+02 -0.29260191783E+03  0.30957155827E+03  0.00000000000E+00 0. -1.
        -14    1    6    6    0    0 -0.56498215327E+02  0.34776233301E+02 -0.65872617618E+02  0.93491371204E+02  0.00000000000E+00 0.  1.
</event>
<event>
12    1  0.9966151E-001  0.1811651E+03  0.7818608E-02  0.1166709E+00
         21   -1    0    0  501  502  0.00000000000E+00  0.00000000000E+00  0.75004901820E+03  0.75004901820E+03  0.00000000000E+00 0.  1.
         21   -1    0    0  502  503 -0.00000000000E+00 -0.00000000000E+00 -0.69553377877E+02  0.69553377877E+02  0.00000000000E+00 0.  1.
         -6    2    1    2    0  503  0.56903157870E+02  0.58698514058E+01  0.90613493530E+02  0.20256259267E+03  0.17189640546E+03 0.  0.
        -24    2    3    3    0    0  0.84623101660E+02 -0.43394931342E+02  0.64962305266E+02  0.14030917861E+03  0.80139722336E+02 0.  0.
          6    2    1    2  501    0 -0.56903157870E+02 -0.58698514058E+01  0.58988214679E+03  0.61703980340E+03  0.17176945989E+03 0.  0.
         24    2    5    5    0    0 -0.66177110044E+02  0.49575236074E+02  0.47850228226E+03  0.49218897987E+03  0.80302203263E+02 0.  0.
          5    1    5    5  501    0  0.92739521736E+01 -0.55445087480E+02  0.11137986453E+03  0.12485082353E+03  0.47000000000E+01 0. -1.
        -13    1    6    6    0    0 -0.25325941682E+02  0.26354187138E+01  0.29819102528E+02  0.39211320169E+02  0.00000000000E+00 0.  1.
         14    1    6    6    0    0 -0.40851168362E+02  0.46939817361E+02  0.44868317974E+03  0.45297765970E+03  0.00000000000E+00 0. -1.
         -5    1    3    3    0  503 -0.27719943790E+02  0.49264782748E+02  0.25651188264E+02  0.62253414061E+02  0.47000000000E+01 0.  1.
         13    1    4    4    0    0  0.17228534185E+02 -0.12233979101E+02 -0.18865344194E+02  0.28326557263E+02  0.00000000000E+00 0. -1.
        -14    1    4    4    0    0  0.67394567476E+02 -0.31160952241E+02  0.83827649460E+02  0.11198262135E+03  0.00000000000E+00 0.  1.
</event>
<event>
12    1  0.9966151E-001  0.2749245E+03  0.7818608E-02  0.1099257E+00
         21   -1    0    0  501  502  0.00000000000E+00  0.00000000000E+00  0.12341377185E+03  0.12341377185E+03  0.00000000000E+00 0. -1.
         21   -1    0    0  502  503 -0.00000000000E+00 -0.00000000000E+00 -0.69715652078E+03  0.69715652078E+03  0.00000000000E+00 0. -1.
         -6    2    1    2    0  503 -0.12520892254E+03  0.17475791989E+03 -0.13163492151E+03  0.29995259435E+03  0.16256137748E+03 0.  0.
        -24    2    3    3    0    0 -0.49663511172E+02  0.16964048096E+03 -0.98780202137E+02  0.21727962449E+03  0.78794351075E+02 0.  0.
          6    2    1    2  501    0  0.12520892254E+03 -0.17475791989E+03 -0.44210782741E+03  0.52061769828E+03  0.17136467505E+03 0.  0.
         24    2    5    5    0    0  0.11265608315E+03 -0.14661041384E+03 -0.22806849936E+03  0.30431980225E+03  0.80058073461E+02 0.  0.
          5    1    5    5  501    0  0.12552839398E+02 -0.28147506049E+02 -0.21403932805E+03  0.21629789603E+03  0.47000000000E+01 0. -1.
        -13    1    6    6    0    0  0.10392275386E+03 -0.74067195106E+02 -0.15782168721E+03  0.20296199919E+03  0.00000000000E+00 0.  1.
         14    1    6    6    0    0  0.87333292854E+01 -0.72543218732E+02 -0.70246812146E+02  0.10135780306E+03  0.00000000000E+00 0. -1.
         -5    1    3    3    0  503 -0.75545411371E+02  0.51174389272E+01 -0.32854719377E+02  0.82672969862E+02  0.47000000000E+01 0.  1.
         11    1    4    4    0    0 -0.38187498552E+02  0.14242044628E+03 -0.42067649958E+02  0.15333478319E+03  0.00000000000E+00 0. -1.
        -12    1    4    4    0    0 -0.11476012620E+02  0.27220034681E+02 -0.56712552178E+02  0.63944841295E+02  0.00000000000E+00 0.  1.
</event>
<event>
12    1  0.9966151E-001  0.1973625E+03  0.7818608E-02  0.1152013E+00
         21   -1    0    0  501  502  0.00000000000E+00  0.00000000000E+00  0.13951834576E+03  0.13951834576E+03  0.00000000000E+00 0. -1.
         21   -1    0    0  502  503 -0.00000000000E+00 -0.00000000000E+00 -0.86502450132E+03  0.86502450132E+03  0.00000000000E+00 0. -1.
         -6    2    1    2    0  503  0.96374683147E+02 -0.14254450445E+02  0.50700573635E+02  0.20363784226E+03  0.17148339198E+03 0.  0.
        -24    2    3    3    0    0  0.32217752364E+02  0.40431909352E+02  0.27315025106E+02  0.11602686352E+03  0.10021676308E+03 0.  0.
          6    2    1    2  501    0 -0.96374683147E+02  0.14254450445E+02 -0.77620672920E+03  0.80090500482E+03  0.17164111218E+03 0.  0.
         24    2    5    5    0    0 -0.12917946761E+03  0.13251652153E+02 -0.70448279701E+03  0.72188872842E+03  0.89243396386E+02 0.  0.
          5    1    5    5  501    0  0.32804784466E+02  0.10027982915E+01 -0.71723932188E+02  0.79016276404E+02  0.47000000000E+01 0. -1.
        -11    1    6    6    0    0 -0.87448321066E+02  0.51046643724E+02 -0.44932667402E+03  0.46059464682E+03  0.00000000000E+00 0.  1.
         12    1    6    6    0    0 -0.41731146548E+02 -0.37794991571E+02 -0.25515612299E+03  0.26129408160E+03  0.00000000000E+00 0. -1.
         -5    1    3    3    0  503  0.64156930783E+02 -0.54686359796E+02  0.23385548530E+02  0.87610978737E+02  0.47000000000E+01 0.  1.
         11    1    4    4    0    0  0.29606558205E+02  0.22253499968E+02  0.64600050851E+02  0.74464307689E+02  0.00000000000E+00 0. -1.
        -12    1    4    4    0    0  0.26111941589E+01  0.18178409384E+02 -0.37285025745E+02  0.41562555835E+02  0.00000000000E+00 0.  1.
</event>
<event>
12    1  0.9966151E-001  0.3313465E+03  0.7818608E-02  0.1070695E+00
         21   -1    0    0  503  502  0.00000000000E+00  0.00000000000E+00  0.11819798942E+04  0.11819798942E+04  0.00000000000E+00 0.  1.
         21   -1    0    0  501  503 -0.00000000000E+00 -0.00000000000E+00 -0.92770100016E+02  0.92770100016E+02  0.00000000000E+00 0.  1.
          6    2    1    2  501    0 -0.70296018707E+02  0.27285870968E+03  0.51139197966E+03  0.60935399390E+03  0.17434771962E+03 0.  0.
         24    2    3    3    0    0 -0.10561900387E+03  0.24052998174E+03  0.47565808199E+03  0.54942185417E+03  0.81263256027E+02 0.  0.
         -6    2    1    2    0  502  0.70296018707E+02 -0.27285870968E+03  0.57781781450E+03  0.66539600029E+03  0.17171198197E+03 0.  0.
        -24    2    5    5    0    0  0.34789869881E+01 -0.19087568618E+03  0.47403277059E+03  0.51714230823E+03  0.79268331898E+02 0.  0.
          5    1    3    3  501    0  0.35322985161E+02  0.32328727939E+02  0.35733897665E+02  0.59932139735E+02  0.47000000000E+01 0. -1.
        -13    1    4    4    0    0 -0.86882615502E+01  0.33925720995E+02  0.13440270036E+03  0.13889033911E+03  0.00000000000E+00 0.  1.
         14    1    4    4    0    0 -0.96930742318E+02  0.20660426074E+03  0.34125538163E+03  0.41053151506E+03  0.00000000000E+00 0. -1.
         -5    1    5    5    0  502  0.66817031718E+02 -0.81983023498E+02  0.10378504391E+03  0.14825369206E+03  0.47000000000E+01 0.  1.
         11    1    6    6    0    0 -0.62706496761E+01 -0.98002678836E+02  0.14508003330E+03  0.17519150141E+03  0.00000000000E+00 0. -1.
        -12    1    6    6    0    0  0.97496366642E+01 -0.92873007343E+02  0.32895273730E+03  0.34195080682E+03  0.00000000000E+00 0.  1.
</event>
<event>
12    1  0.2216401E+000  0.3496665E+03  0.7818608E-02  0.1063190E+00
         21   -1    0    0  503  502  0.00000000000E+00  0.00000000000E+00  0.69320866889E+03  0.69320866889E+03  0.00000000000E+00 0. -1.
         21   -1    0    0  501  503 -0.00000000000E+00 -0.00000000000E+00 -0.89238411918E+03  0.89238411918E+03  0.00000000000E+00 0. -1.
          6    2    1    2  501    0  0.14991012405E+03 -0.26009017403E+03  0.61148747985E+03  0.70440302558E+03  0.17929512128E+03 0.  0.
         24    2    3    3    0    0  0.18049852033E+03 -0.19554842760E+03  0.50102731572E+03  0.57277922501E+03  0.78922532394E+02 0.  0.
         -6    2    1    2    0  502 -0.14991012405E+03  0.26009017403E+03 -0.81066293014E+03  0.88118976250E+03  0.17088319786E+03 0.  0.
        -24    2    5    5    0    0 -0.79018501617E+02  0.12362712894E+03 -0.25886394094E+03  0.30834423420E+03  0.80858124145E+02 0.  0.
          5    1    3    3  501    0 -0.30588396277E+02 -0.64541746428E+02  0.11046016412E+03  0.13162380057E+03  0.47000000000E+01 0. -1.
        -11    1    4    4    0    0  0.16434998816E+02 -0.67452951067E+02  0.12463509532E+03  0.14266715382E+03  0.00000000000E+00 0.  1.
         12    1    4    4    0    0  0.16406352151E+03 -0.12809547653E+03  0.37639222040E+03  0.43011207118E+03  0.00000000000E+00 0. -1.
         -5    1    5    5    0  502 -0.70891622435E+02  0.13646304509E+03 -0.55179898920E+03  0.57284552829E+03  0.47000000000E+01 0.  1.
         13    1    6    6    0    0 -0.37927722822E+02  0.12569125022E+02 -0.11654322197E+03  0.12320234434E+03  0.00000000000E+00 0. -1.
        -14    1    6    6    0    0 -0.41090778794E+02  0.11105800392E+03 -0.14232071897E+03  0.18514188987E+03  0.00000000000E+00 0.  1.
</event>
<event>
12    1  0.9966151E-001  0.4259379E+03  0.7818608E-02  0.1035173E+00
         21   -1    0    0  501  502  0.00000000000E+00  0.00000000000E+00  0.51568913689E+03  0.51568913689E+03  0.00000000000E+00 0. -1.
         21   -1    0    0  502  503 -0.00000000000E+00 -0.00000000000E+00 -0.35595679106E+03  0.35595679106E+03  0.00000000000E+00 0. -1.
         -6    2    1    2    0  503  0.20787470650E+03  0.32904074312E+03  0.31525194938E+02  0.42683119944E+03  0.17236974985E+03 0.  0.
        -24    2    3    3    0    0  0.23578587448E+02  0.98961820465E+02 -0.90818672901E+01  0.12922005440E+03  0.79157756728E+02 0.  0.
          6    2    1    2  501    0 -0.20787470650E+03 -0.32904074312E+03  0.12820715090E+03  0.44481472852E+03  0.17304151216E+03 0.  0.
         24    2    5    5    0    0 -0.45919537806E+02 -0.81600522400E+02  0.41959991117E+01  0.12410146832E+03  0.81340757455E+02 0.  0.
          5    1    5    5  501    0 -0.16195516869E+03 -0.24744022072E+03  0.12401115178E+03  0.32071326019E+03  0.47000000000E+01 0. -1.
        -11    1    6    6    0    0 -0.46249380646E+02 -0.97608089187E+02  0.31613198973E+01  0.10805710633E+03  0.00000000000E+00 0.  1.
         12    1    6    6    0    0  0.32984284003E+00  0.16007566787E+02  0.10346792144E+01  0.16044361995E+02  0.00000000000E+00 0. -1.
         -5    1    3    3    0  503  0.18429611905E+03  0.23007892265E+03  0.40607062229E+02  0.29761114504E+03  0.47000000000E+01 0.  1.
         11    1    4    4    0    0 -0.53752323708E+01 -0.12063697022E+02  0.38450276156E+01  0.13755367907E+02  0.00000000000E+00 0. -1.
        -12    1    4    4    0    0  0.28953819819E+02  0.11102551749E+03 -0.12926894906E+02  0.11546468650E+03  0.00000000000E+00 0.  1.
</event>
<event>
12    1  0.1096365E+000  0.2664883E+03  0.7818608E-02  0.1103812E+00
         21   -1    0    0  503  502  0.00000000000E+00  0.00000000000E+00  0.51986260447E+03  0.51986260447E+03  0.00000000000E+00 0.  1.
         21   -1    0    0  501  503 -0.00000000000E+00 -0.00000000000E+00 -0.27305705776E+03  0.27305705776E+03  0.00000000000E+00 0.  1.
          6    2    1    2  501    0  0.50573922700E+02 -0.19495331966E+03  0.40506846785E+03  0.48297903968E+03  0.16918560998E+03 0.  0.
         24    2    3    3    0    0 -0.55400374075E+01 -0.24587783287E+02  0.10061189275E+03  0.12958253627E+03  0.77676442004E+02 0.  0.
         -6    2    1    2    0  502 -0.50573922700E+02  0.19495331966E+03 -0.15826292114E+03  0.30994062254E+03  0.17450363547E+03 0.  0.
        -24    2    5    5    0    0 -0.46852640623E+02  0.69440751895E+02 -0.89716603214E+01  0.11480676294E+03  0.77993039243E+02 0.  0.
          5    1    3    3  501    0  0.56113960107E+02 -0.17036553637E+03  0.30445657510E+03  0.35339650341E+03  0.47000000000E+01 0. -1.
        -11    1    4    4    0    0 -0.39447209315E+02 -0.26786028888E+02  0.59281421672E+02  0.76077990390E+02  0.00000000000E+00 0.  1.
         12    1    4    4    0    0  0.33907171907E+02  0.21982456006E+01  0.41330471081E+02  0.53504545884E+02  0.00000000000E+00 0. -1.
         -5    1    5    5    0  502 -0.37212820761E+01  0.12551256776E+03 -0.14929126082E+03  0.19513385960E+03  0.47000000000E+01 0.  1.
         11    1    6    6    0    0 -0.38783451088E+02  0.75840135159E+02 -0.30873950141E+02  0.90603989848E+02  0.00000000000E+00 0. -1.
        -12    1    6    6    0    0 -0.80691895359E+01 -0.63993832632E+01  0.21902289820E+02  0.24202773090E+02  0.00000000000E+00 0.  1.
</event>
<event>
12    1  0.9966151E-001  0.1917453E+03  0.7818608E-02  0.1157699E+00
         21   -1    0    0  501  502  0.00000000000E+00  0.00000000000E+00  0.26050456293E+02  0.26050456293E+02  0.00000000000E+00 0. -1.
         21   -1    0    0  502  503 -0.00000000000E+00 -0.00000000000E+00 -0.15272772880E+04  0.15272772880E+04  0.00000000000E+00 0. -1.
         -6    2    1    2    0  503  0.64245623853E+02  0.58827926109E+02 -0.52015139731E+03  0.55436785825E+03  0.17081575182E+03 0.  0.
        -24    2    3    3    0    0  0.26260617558E+01  0.89909859927E+02 -0.37366663013E+03  0.39237114823E+03  0.78979037591E+02 0.  0.
          6    2    1    2  501    0 -0.64245623853E+02 -0.58827926109E+02 -0.98107543445E+03  0.99895988609E+03  0.16680413923E+03 0.  0.
         24    2    5    5    0    0 -0.93893856178E+02 -0.20155421505E+02 -0.51292063565E+03  0.52825234851E+03  0.82101571183E+02 0.  0.
          5    1    5    5  501    0  0.29648232325E+02 -0.38672504603E+02 -0.46815479880E+03  0.47070753758E+03  0.47000000000E+01 0. -1.
        -13    1    6    6    0    0 -0.70827674455E+02  0.25176222940E+02 -0.28744793083E+03  0.29711397579E+03  0.00000000000E+00 0.  1.
         14    1    6    6    0    0 -0.23066181723E+02 -0.45331644446E+02 -0.22547270481E+03  0.23113837272E+03  0.00000000000E+00 0. -1.
         -5    1    3    3    0  503  0.61619562097E+02 -0.31081933818E+02 -0.14648476718E+03  0.16199671002E+03  0.47000000000E+01 0.  1.
         13    1    4    4    0    0 -0.15206244660E+02  0.54922215412E+02 -0.93740902679E+02  0.10970431376E+03  0.00000000000E+00 0. -1.
        -14    1    4    4    0    0  0.17832306416E+02  0.34987644514E+02 -0.27992572745E+03  0.28266683447E+03  0.00000000000E+00 0.  1.
</event>
<event>
12    1  0.9966151E-001  0.1849047E+03  0.7818608E-02  0.1163163E+00
         21   -1    0    0  501  502  0.00000000000E+00  0.00000000000E+00  0.19507652534E+03  0.19507652534E+03  0.00000000000E+00 0. -1.
         21   -1    0    0  502  503 -0.00000000000E+00 -0.00000000000E+00 -0.32137896918E+03  0.32137896918E+03  0.00000000000E+00 0. -1.
         -6    2    1    2    0  503 -0.65626687875E+02  0.18837385274E+02  0.11101400635E+03  0.21567069204E+03  0.17183721528E+03 0.  0.
        -24    2    3    3    0    0 -0.32436146904E+02  0.56656826899E+02  0.10736540076E+02  0.10337829507E+03  0.79433613405E+02 0.  0.
          6    2    1    2  501    0  0.65626687875E+02 -0.18837385274E+02 -0.23731645019E+03  0.30078480249E+03  0.17172853761E+03 0.  0.
         24    2    5    5    0    0  0.10915995626E+03 -0.29990865131E+02 -0.18986303162E+03  0.23526028415E+03  0.80523800711E+02 0.  0.
          5    1    5    5  501    0 -0.43533268383E+02  0.11153479857E+02 -0.47453418577E+02  0.65524518340E+02  0.47000000000E+01 0. -1.
        -11    1    6    6    0    0  0.91173451909E+02 -0.56109579708E+02 -0.15101253522E+03  0.18510988375E+03  0.00000000000E+00 0.  1.
         12    1    6    6    0    0  0.17986504350E+02  0.26118714577E+02 -0.38850496398E+02  0.50150400399E+02  0.00000000000E+00 0. -1.
         -5    1    3    3    0  503 -0.33190540971E+02 -0.37819441624E+02  0.10027746627E+03  0.11229239697E+03  0.47000000000E+01 0.  1.
         11    1    4    4    0    0  0.24068401064E+02  0.19149627515E+01  0.22602942437E+01  0.24250029736E+02  0.00000000000E+00 0. -1.
        -12    1    4    4    0    0 -0.56504547968E+02  0.54741864147E+02  0.84762458326E+01  0.79128265335E+02  0.00000000000E+00 0.  1.
</event>
<event>
12    1  0.9966151E-001  0.1918276E+03  0.7818608E-02  0.1157741E+00
         21   -1    0    0  501  502  0.00000000000E+00  0.00000000000E+00  0.11095261461E+03  0.11095261461E+03  0.00000000000E+00 0. -1.
         21   -1    0    0  502  503 -0.00000000000E+00 -0.00000000000E+00 -0.32970902299E+03  0.32970902299E+03  0.00000000000E+00 0. -1.
         -6    2    1    2    0  503  0.83435352768E+02 -0.14247950364E+02 -0.83236798505E+02  0.20910809703E+03  0.17214345597E+03 0.  0.
        -24    2    3    3    0    0  0.39742184879E+02  0.14589669832E+02  0.20058705224E+02  0.93208345733E+02  0.80580049232E+02 0.  0.
          6    2    1    2  501    0 -0.83435352768E+02  0.14247950364E+02 -0.13551960987E+03  0.23155354058E+03  0.16759181160E+03 0.  0.
         24    2    5    5    0    0  0.18923683406E+02 -0.40738742765E+01 -0.73204545485E+02  0.11023446214E+03  0.80112601490E+02 0.  0.
          5    1    5    5  501    0 -0.10235903617E+03  0.18321824641E+02 -0.62315064384E+02  0.12131907844E+03  0.47000000000E+01 0. -1.
        -13    1    6    6    0    0 -0.17820728145E+02  0.26116335819E+02 -0.14778473746E+02  0.34900496193E+02  0.00000000000E+00 0.  1.
         14    1    6    6    0    0  0.36744411551E+02 -0.30190210096E+02 -0.58426071739E+02  0.75333965943E+02  0.00000000000E+00 0. -1.
         -5    1    3    3    0  503  0.43693167889E+02 -0.28837620196E+02 -0.10329550373E+03  0.11589975129E+03  0.47000000000E+01 0.  1.
         11    1    4    4    0    0  0.61153662882E+01  0.45010973579E+02  0.65563746535E+01  0.45895223019E+02  0.00000000000E+00 0. -1.
        -12    1    4    4    0    0  0.33626818591E+02 -0.30421303747E+02  0.13502330571E+02  0.47313122715E+02  0.00000000000E+00 0.  1.
</event>
<event>
12    1  0.9966151E-001  0.2113007E+03  0.7818608E-02  0.1140664E+00
         21   -1    0    0  503  502  0.00000000000E+00  0.00000000000E+00  0.75234474885E+02  0.75234474885E+02  0.00000000000E+00 0. -1.
         21   -1    0    0  501  503 -0.00000000000E+00 -0.00000000000E+00 -0.60309491870E+03  0.60309491870E+03  0.00000000000E+00 0. -1.
          6    2    1    2  501    0  0.12022203953E+03  0.19996126601E+02 -0.21688157711E+03  0.30235622048E+03  0.17183853382E+03 0.  0.
         24    2    3    3    0    0  0.99773510179E+02  0.56955049101E+02 -0.80268566158E+02  0.15928522738E+03  0.75697490035E+02 0.  0.
         -6    2    1    2    0  502 -0.12022203953E+03 -0.19996126601E+02 -0.31097886671E+03  0.37597317311E+03  0.17261166673E+03 0.  0.
        -24    2    5    5    0    0 -0.14401824404E+03 -0.36396187556E+02 -0.30058005096E+03  0.34490153464E+03  0.80887356709E+02 0.  0.
          5    1    3    3  501    0  0.20448529346E+02 -0.36958922501E+02 -0.13661301095E+03  0.14307099309E+03  0.47000000000E+01 0. -1.
        -11    1    4    4    0    0  0.99168474479E+02  0.51536266844E+02 -0.93026624613E+02  0.14541088686E+03  0.00000000000E+00 0.  1.
         12    1    4    4    0    0  0.60503570003E+00  0.54187822574E+01  0.12758058455E+02  0.13874340521E+02  0.00000000000E+00 0. -1.
         -5    1    5    5    0  502  0.23796204511E+02  0.16400060955E+02 -0.10398815751E+02  0.31071638474E+02  0.47000000000E+01 0.  1.
         11    1    6    6    0    0 -0.32177207786E+02  0.22670266325E+02 -0.45336676974E+02  0.60039386699E+02  0.00000000000E+00 0. -1.
        -12    1    6    6    0    0 -0.11184103625E+03 -0.59066453881E+02 -0.25524337399E+03  0.28486214794E+03  0.00000000000E+00 0.  1.
</event>
<event>
12    1  0.9966151E-001  0.3413769E+03  0.7818608E-02  0.1066287E+00
         21   -1    0    0  503  502  0.00000000000E+00  0.00000000000E+00  0.61578067592E+03  0.61578067592E+03  0.00000000000E+00 0. -1.
         21   -1    0    0  501  503 -0.00000000000E+00 -0.00000000000E+00 -0.26314295019E+03  0.26314295019E+03  0.00000000000E+00 0. -1.
          6    2    1    2  501    0 -0.62877053812E+02  0.28716484323E+03  0.40994660451E+03  0.53347389997E+03  0.17355406167E+03 0.  0.
         24    2    3    3    0    0 -0.75079786297E+02  0.20227719070E+03  0.18272370819E+03  0.29056001638E+03  0.66963672206E+02 0.  0.
         -6    2    1    2    0  502  0.62877053812E+02 -0.28716484323E+03 -0.57308878775E+02  0.34544972614E+03  0.17214538804E+03 0.  0.
        -24    2    5    5    0    0  0.72014024787E+02 -0.96817130423E+02  0.70979986695E+01  0.14423821586E+03  0.78706447125E+02 0.  0.
          5    1    3    3  501    0  0.12202732485E+02  0.84887652527E+02  0.22722289632E+03  0.24291388359E+03  0.47000000000E+01 0. -1.
        -13    1    4    4    0    0 -0.75295536956E+01  0.19540662185E+02 -0.32880606831E+01  0.21197712154E+02  0.00000000000E+00 0.  1.
         14    1    4    4    0    0 -0.67550232601E+02  0.18273652851E+03  0.18601176887E+03  0.26936230422E+03  0.00000000000E+00 0. -1.
         -5    1    5    5    0  502 -0.91369709757E+01 -0.19034771280E+03 -0.64406877444E+02  0.20121151028E+03  0.47000000000E+01 0.  1.
         11    1    6    6    0    0 -0.79980037343E+01  0.73838386146E+01 -0.56149216158E+01  0.12248121536E+02  0.00000000000E+00 0. -1.
        -12    1    6    6    0    0  0.80012028522E+02 -0.10420096904E+03  0.12712920285E+02  0.13199009432E+03  0.00000000000E+00 0.  1.
</event>
<event>
12    1  0.9966151E-001  0.2346466E+03  0.7818608E-02  0.1123538E+00
         21   -1    0    0  501  502  0.00000000000E+00  0.00000000000E+00  0.12569949272E+03  0.12569949272E+03  0.00000000000E+00 0.  1.
         21   -1    0    0  502  503 -0.00000000000E+00 -0.00000000000E+00 -0.44488390736E+03  0.44488390736E+03  0.00000000000E+00 0.  1.
         -6    2    1    2    0  503  0.37830709844E+02  0.15517340530E+03 -0.19817421857E+03  0.30657105618E+03  0.17088839417E+03 0.  0.
        -24    2    3    3    0    0  0.65162309095E+02  0.30413549182E+02 -0.75594832971E+02  0.12948397650E+03  0.76683837263E+02 0.  0.
          6    2    1    2  501    0 -0.37830709844E+02 -0.15517340530E+03 -0.12101019608E+03  0.26401234391E+03  0.17189852198E+03 0.  0.
         24    2    5    5    0    0 -0.18800776534E+02 -0.14639851543E+03 -0.29812241766E+02  0.17031979391E+03  0.79586857708E+02 0.  0.
          5    1    5    5  501    0 -0.19029933310E+02 -0.87748898681E+01 -0.91197954314E+02  0.93692549997E+02  0.47000000000E+01 0. -1.
        -11    1    6    6    0    0 -0.19414421516E+01  0.83552557646E+01 -0.10343710991E+02  0.13437702690E+02  0.00000000000E+00 0.  1.
         12    1    6    6    0    0 -0.16859334383E+02 -0.15475377119E+03 -0.19468530775E+02  0.15688209122E+03  0.00000000000E+00 0. -1.
         -5    1    3    3    0  503 -0.27331599252E+02  0.12475985612E+03 -0.12257938560E+03  0.17708707968E+03  0.47000000000E+01 0.  1.
         11    1    4    4    0    0 -0.23703785962E+01 -0.18513975931E+02 -0.27436211102E+02  0.33183304222E+02  0.00000000000E+00 0. -1.
        -12    1    4    4    0    0  0.67532687692E+02  0.48927525113E+02 -0.48158621870E+02  0.96300672277E+02  0.00000000000E+00 0.  1.
</event>
<event>
12    1  0.9966151E-001  0.2084533E+03  0.7818608E-02  0.1142878E+00
         21   -1    0    0  501  502  0.00000000000E+00  0.00000000000E+00  0.13827658690E+04  0.13827658690E+04  0.00000000000E+00 0.  1.
         21   -1    0    0  502  503 -0.00000000000E+00 -0.00000000000E+00 -0.31555344279E+02  0.31555344279E+02  0.00000000000E+00 0.  1.
         -6    2    1    2    0  503  0.28908496532E+02  0.11282479302E+03  0.61972613269E+03  0.65371474711E+03  0.17238722677E+03 0.  0.
        -24    2    3    3    0    0  0.53485219379E+02  0.77772748397E+02  0.21670743704E+03  0.24840150998E+03  0.76367059722E+02 0.  0.
          6    2    1    2  501    0 -0.28908496532E+02 -0.11282479302E+03  0.73148439205E+03  0.76060646619E+03  0.17288043704E+03 0.  0.
         24    2    5    5    0    0 -0.37242509338E+02 -0.46712702701E+02  0.18662624897E+03  0.21166862788E+03  0.80032306774E+02 0.  0.
          5    1    5    5  501    0  0.83340128058E+01 -0.66112090316E+02  0.54485814308E+03  0.54893783832E+03  0.47000000000E+01 0. -1.
        -13    1    6    6    0    0 -0.55554201382E+02 -0.31407030373E+02  0.17252095990E+03  0.18394605854E+03  0.00000000000E+00 0.  1.
         14    1    6    6    0    0  0.18311692044E+02 -0.15305672328E+02  0.14105289072E+02  0.27722569338E+02  0.00000000000E+00 0. -1.
         -5    1    3    3    0  503 -0.24576722847E+02  0.35052044620E+02  0.40301869566E+03  0.40531323712E+03  0.47000000000E+01 0.  1.
         11    1    4    4    0    0  0.19222084117E+02  0.60895043320E+00  0.41280632638E+01  0.19669779987E+02  0.00000000000E+00 0. -1.
        -12    1    4    4    0    0  0.34263135262E+02  0.77163797964E+02  0.21257937377E+03  0.22873173000E+03  0.00000000000E+00 0.  1.
</event>
<event>
12    1  0.9966151E-001  0.5284730E+03  0.7818608E-02  0.1006784E+00
         21   -1    0    0  501  502  0.00000000000E+00  0.00000000000E+00  0.86103369504E+03  0.86103369504E+03  0.00000000000E+00 0. -1.
         21   -1    0    0  502  503 -0.00000000000E+00 -0.00000000000E+00 -0.44952495635E+03  0.44952495635E+03  0.00000000000E+00 0. -1.
         -6    2    1    2    0  503  0.25087508608E+03 -0.42888846916E+03  0.55443908190E+03  0.76595458052E+03  0.18000026691E+03 0.  0.
        -24    2    3    3    0    0  0.22875765424E+03 -0.38213155228E+03  0.55219201817E+03  0.71396872319E+03  0.80502951133E+02 0.  0.
          6    2    1    2  501    0 -0.25087508608E+03  0.42888846916E+03 -0.14293034321E+03  0.54460407087E+03  0.17111657782E+03 0.  0.
         24    2    5    5    0    0 -0.11149861032E+03  0.29989593305E+03 -0.12969975897E+03  0.35417819362E+03  0.79061081425E+02 0.  0.
          5    1    5    5  501    0 -0.13937647576E+03  0.12899253611E+03 -0.13230584244E+02  0.19042587725E+03  0.47000000000E+01 0. -1.
        -13    1    6    6    0    0 -0.10117287626E+03  0.17632235978E+03 -0.60137608354E+02  0.21199541832E+03  0.00000000000E+00 0.  1.
         14    1    6    6    0    0 -0.10325734059E+02  0.12357357327E+03 -0.69562150612E+02  0.14218277530E+03  0.00000000000E+00 0. -1.
         -5    1    3    3    0  503  0.22117431840E+02 -0.46756916878E+02  0.22470637326E+01  0.51985857332E+02  0.47000000000E+01 0.  1.
         11    1    4    4    0    0  0.93285099210E+02 -0.13780832199E+03  0.14849948364E+03  0.22303663373E+03  0.00000000000E+00 0. -1.
        -12    1    4    4    0    0  0.13547255503E+03 -0.24432323029E+03  0.40369253453E+03  0.49093208946E+03  0.00000000000E+00 0.  1.
</event>
<event>
12    1  0.9966151E-001  0.1900665E+03  0.7818608E-02  0.1161434E+00
         21   -1    0    0  503  502  0.00000000000E+00  0.00000000000E+00  0.55250536267E+03  0.55250536267E+03  0.00000000000E+00 0.  1.
         21   -1    0    0  501  503 -0.00000000000E+00 -0.00000000000E+00 -0.88797840395E+02  0.88797840395E+02  0.00000000000E+00 0.  1.
          6    2    1    2  501    0  0.41558473134E+02  0.68848108082E+01  0.40555300334E+03  0.44253897300E+03  0.17202615149E+03 0.  0.
         24    2    3    3    0    0  0.35655166005E+02 -0.58797569501E+02  0.32959316418E+03  0.34183638473E+03  0.59093273821E+02 0.  0.
         -6    2    1    2    0  502 -0.41558473134E+02 -0.68848108082E+01  0.58154518928E+02  0.19876423006E+03  0.18533959040E+03 0.  0.
        -24    2    5    5    0    0  0.49753412968E+02 -0.21637618185E+02  0.36280494448E+02  0.10360085047E+03  0.80456654897E+02 0.  0.
          5    1    3    3  501    0  0.59033071289E+01  0.65682380309E+02  0.75959839160E+02  0.10070258827E+03  0.47000000000E+01 0. -1.
        -11    1    4    4    0    0  0.48018502203E+02 -0.44042978539E+02  0.18866691189E+03  0.19960151341E+03  0.00000000000E+00 0.  1.
         12    1    4    4    0    0 -0.12363336198E+02 -0.14754590961E+02  0.14092625229E+03  0.14223487133E+03  0.00000000000E+00 0. -1.
         -5    1    5    5    0  502 -0.91311886102E+02  0.14752807376E+02  0.21874024479E+02  0.95163379594E+02  0.47000000000E+01 0.  1.
         11    1    6    6    0    0  0.45449622820E+02  0.22546214184E+02  0.90895435169E+01  0.51542407684E+02  0.00000000000E+00 0. -1.
        -12    1    6    6    0    0  0.43037901477E+01 -0.44183832368E+02  0.27190950931E+02  0.52058442782E+02  0.00000000000E+00 0.  1.
</event>
<event>
12    1  0.9966151E-001  0.1832972E+03  0.7818608E-02  0.1165328E+00
         21   -1    0    0  501  502  0.00000000000E+00  0.00000000000E+00  0.40667964104E+03  0.40667964104E+03  0.00000000000E+00 0.  1.
         21   -1    0    0  502  503 -0.00000000000E+00 -0.00000000000E+00 -0.12106406666E+03  0.12106406666E+03  0.00000000000E+00 0.  1.
         -6    2    1    2    0  503 -0.61507709799E+02 -0.72152076502E+01  0.29321178165E+03  0.34428913354E+03  0.16948923562E+03 0.  0.
        -24    2    3    3    0    0 -0.69781860850E+01  0.24431426634E+02  0.25677519395E+03  0.27131863717E+03  0.83873195706E+02 0.  0.
          6    2    1    2  501    0  0.61507709799E+02  0.72152076502E+01 -0.75962072624E+01  0.18345457416E+03  0.17251846518E+03 0.  0.
         24    2    5    5    0    0 -0.17240635715E+02  0.46583546463E+02 -0.11089590346E+02  0.95219310531E+02  0.80476529268E+02 0.  0.
          5    1    5    5  501    0  0.78748345514E+02 -0.39368338812E+02  0.34933830831E+01  0.88235263628E+02  0.47000000000E+01 0. -1.
        -13    1    6    6    0    0 -0.82474294614E+01  0.49152608975E+01  0.32716208054E+02  0.34095896408E+02  0.00000000000E+00 0.  1.
         14    1    6    6    0    0 -0.89932062540E+01  0.41668285565E+02 -0.43805798400E+02  0.61123414123E+02  0.00000000000E+00 0. -1.
         -5    1    3    3    0  503 -0.54529523714E+02 -0.31646634284E+02  0.36436587703E+02  0.72970496376E+02  0.47000000000E+01 0.  1.
         13    1    4    4    0    0 -0.25606407029E+02  0.22584588336E+02  0.24852891781E+03  0.25086325896E+03  0.00000000000E+00 0. -1.
        -14    1    4    4    0    0  0.18628220944E+02  0.18468382972E+01  0.82462761428E+01  0.20455378204E+02  0.00000000000E+00 0.  1.
</event>
<event>
12    1  0.9966151E-001  0.2256269E+03  0.7818608E-02  0.1129801E+00
         21   -1    0    0  501  502  0.00000000000E+00  0.00000000000E+00  0.43772374158E+02  0.43772374158E+02  0.00000000000E+00 0. -1.
         21   -1    0    0  502  503 -0.00000000000E+00 -0.00000000000E+00 -0.12571542773E+04  0.12571542773E+04  0.00000000000E+00 0. -1.
         -6    2    1    2    0  503 -0.12936254487E+03  0.66913975739E+02 -0.42779529991E+03  0.48364895116E+03  0.17232336224E+03 0.  0.
        -24    2    3    3    0    0 -0.61628234277E+02  0.77449201950E+01 -0.35099060029E+03  0.36528524960E+03  0.79880467154E+02 0.  0.
          6    2    1    2  501    0  0.12936254487E+03 -0.66913975739E+02 -0.78558660325E+03  0.81727770031E+03  0.17200110481E+03 0.  0.
         24    2    5    5    0    0  0.16124424617E+03 -0.66858415537E+02 -0.63762193496E+03  0.66584428581E+03  0.79480351987E+02 0.  0.
          5    1    5    5  501    0 -0.31881701305E+02 -0.55560201624E-01 -0.14796466828E+03  0.15143341450E+03  0.47000000000E+01 0. -1.
        -11    1    6    6    0    0  0.12614748993E+03 -0.12699598400E+02 -0.39981885376E+03  0.41943960810E+03  0.00000000000E+00 0.  1.
         12    1    6    6    0    0  0.35096756239E+02 -0.54158817137E+02 -0.23780308120E+03  0.24640467771E+03  0.00000000000E+00 0. -1.
         -5    1    3    3    0  503 -0.67734310591E+02  0.59169055544E+02 -0.76804699617E+02  0.11836370157E+03  0.47000000000E+01 0.  1.
         13    1    4    4    0    0 -0.30327648418E+02  0.71955920318E+01 -0.31676855550E+02  0.44440589340E+02  0.00000000000E+00 0. -1.
        -14    1    4    4    0    0 -0.31300585859E+02  0.54932816314E+00 -0.31931374474E+03  0.32084466026E+03  0.00000000000E+00 0.  1.
</event>
<event>
12    1  0.9966151E-001  0.5678419E+03  0.7818608E-02  0.9975006E-01
         21   -1    0    0  503  502  0.00000000000E+00  0.00000000000E+00  0.99237816718E+03  0.99237816718E+03  0.00000000000E+00 0. -1.
         21   -1    0    0  501  503 -0.00000000000E+00 -0.00000000000E+00 -0.56678631368E+03  0.56678631368E+03  0.00000000000E+00 0.  1.
          6    2    1    2  501    0  0.46075933133E+03  0.28199976139E+03  0.72253544453E+03  0.91836817403E+03  0.17181271096E+03 0.  0.
         24    2    3    3    0    0  0.39145391396E+03  0.28699682258E+03  0.58596373149E+03  0.76506411571E+03  0.79788868859E+02 0.  0.
         -6    2    1    2    0  502 -0.46075933133E+03 -0.28199976139E+03 -0.29694359103E+03  0.64079630682E+03  0.17498966758E+03 0.  0.
        -24    2    5    5    0    0 -0.25973467908E+03 -0.23622537673E+03 -0.16656118614E+03  0.39681297418E+03  0.80332904993E+02 0.  0.
          5    1    3    3  501    0  0.69305417361E+02 -0.49970611883E+01  0.13657171304E+03  0.15330405833E+03  0.47000000000E+01 0. -1.
        -13    1    4    4    0    0  0.32193138762E+03  0.20493693287E+03  0.42192092412E+03  0.56890792841E+03  0.00000000000E+00 0.  1.
         14    1    4    4    0    0  0.69522526341E+02  0.82059889702E+02  0.16404280736E+03  0.19615618730E+03  0.00000000000E+00 0. -1.
         -5    1    5    5    0  502 -0.20102465225E+03 -0.45774384659E+02 -0.13038240489E+03  0.24398333264E+03  0.47000000000E+01 0.  1.
         11    1    6    6    0    0 -0.73756117246E+01 -0.13147523422E+02 -0.29584797501E+02  0.33204175395E+02  0.00000000000E+00 0. -1.
        -12    1    6    6    0    0 -0.25235906735E+03 -0.22307785331E+03 -0.13697638864E+03  0.36360879879E+03  0.00000000000E+00 0.  1.
</event>
<event>
12    1  0.9966151E-001  0.2132284E+03  0.7818608E-02  0.1139145E+00
         21   -1    0    0  503  502  0.00000000000E+00  0.00000000000E+00  0.67834400756E+02  0.67834400756E+02  0.00000000000E+00 0.  1.
         21   -1    0    0  501  503 -0.00000000000E+00 -0.00000000000E+00 -0.69569043978E+03  0.69569043978E+03  0.00000000000E+00 0.  1.
          6    2    1    2  501    0  0.12638844238E+03  0.84325155098E+01 -0.23882582418E+03  0.32016265820E+03  0.17152611382E+03 0.  0.
         24    2    3    3    0    0  0.38573018005E+02  0.55966443701E+02 -0.16648958625E+03  0.19677042017E+03  0.79872995342E+02 0.  0.
         -6    2    1    2    0  502 -0.12638844238E+03 -0.84325155098E+01 -0.38903021485E+03  0.44336218234E+03  0.17082263018E+03 0.  0.
        -24    2    5    5    0    0 -0.95581557361E+02 -0.52528124841E+02 -0.33443282439E+03  0.36657382403E+03  0.10313106433E+03 0.  0.
          5    1    3    3  501    0  0.87815424379E+02 -0.47533928191E+02 -0.72336237927E+02  0.12339223803E+03  0.47000000000E+01 0. -1.
        -11    1    4    4    0    0  0.10934257094E+02 -0.85128560070E+01 -0.97146775025E+02  0.98130130915E+02  0.00000000000E+00 0.  1.
         12    1    4    4    0    0  0.27638760910E+02  0.64479299708E+02 -0.69342811229E+02  0.98640289257E+02  0.00000000000E+00 0. -1.
         -5    1    5    5    0  502 -0.30806885023E+02  0.44095609331E+02 -0.54597390457E+02  0.76788358309E+02  0.47000000000E+01 0.  1.
         11    1    6    6    0    0 -0.36368002477E+02 -0.15579543895E+02 -0.26565440712E+03  0.26858447054E+03  0.00000000000E+00 0. -1.
        -12    1    6    6    0    0 -0.59213554884E+02 -0.36948580946E+02 -0.68778417269E+02  0.97989353493E+02  0.00000000000E+00 0.  1.
</event>
<event>
12    1  0.9966151E-001  0.2995655E+03  0.7818608E-02  0.1085603E+00
         21   -1    0    0  503  502  0.00000000000E+00  0.00000000000E+00  0.10711846136E+04  0.10711846136E+04  0.00000000000E+00 0. -1.
         21   -1    0    0  501  503 -0.00000000000E+00 -0.00000000000E+00 -0.97792443675E+02  0.97792443675E+02  0.00000000000E+00 0. -1.
          6    2    1    2  501    0  0.24295072077E+03 -0.28370364532E+01  0.26368145551E+03  0.39908323346E+03  0.17523246204E+03 0.  0.
         24    2    3    3    0    0  0.23107829203E+03 -0.38380840497E+02  0.26187319293E+03  0.36127217180E+03  0.84081787454E+02 0.  0.
         -6    2    1    2    0  502 -0.24295072077E+03  0.28370364532E+01  0.70971071438E+03  0.76989382377E+03  0.17324577997E+03 0.  0.
        -24    2    5    5    0    0 -0.11575870882E+03  0.55916170093E+02  0.28718724273E+03  0.32543530329E+03  0.83095893380E+02 0.  0.
          5    1    3    3  501    0  0.11872428747E+02  0.35543804044E+02  0.18082625748E+01  0.37811061659E+02  0.47000000000E+01 0. -1.
        -11    1    4    4    0    0  0.10628605820E+03  0.24418391954E+02  0.10925788738E+03  0.15437056063E+03  0.00000000000E+00 0.  1.
         12    1    4    4    0    0  0.12479223382E+03 -0.62799232450E+02  0.15261530555E+03  0.20690161118E+03  0.00000000000E+00 0. -1.
         -5    1    5    5    0  502 -0.12719201195E+03 -0.53079133639E+02  0.42252347165E+03  0.44445852048E+03  0.47000000000E+01 0.  1.
         11    1    6    6    0    0  0.15469686293E+01  0.21714130476E+02  0.96746155594E+02  0.99165090614E+02  0.00000000000E+00 0. -1.
        -12    1    6    6    0    0 -0.11730567745E+03  0.34202039616E+02  0.19044108714E+03  0.22627021268E+03  0.00000000000E+00 0.  1.
</event>
<event>
12    1  0.9966151E-001  0.2165623E+03  0.7818608E-02  0.1136652E+00
         21   -1    0    0  503  502  0.00000000000E+00  0.00000000000E+00  0.10872267023E+04  0.10872267023E+04  0.00000000000E+00 0. -1.
         21   -1    0    0  501  503 -0.00000000000E+00 -0.00000000000E+00 -0.69069979663E+02  0.69069979663E+02  0.00000000000E+00 0.  1.
          6    2    1    2  501    0 -0.52184467867E+02 -0.12095030303E+03  0.86530826587E+03  0.89199641441E+03  0.17189244850E+03 0.  0.
         24    2    3    3    0    0  0.95886839389E+01 -0.82170993747E+02  0.72633765323E+03  0.73497833173E+03  0.76044372140E+02 0.  0.
         -6    2    1    2    0  502  0.52184467867E+02  0.12095030303E+03  0.15284845681E+03  0.26430026760E+03  0.17070379671E+03 0.  0.
        -24    2    5    5    0    0  0.24918160356E+02  0.29628101377E+02  0.14213881034E+03  0.16827952730E+03  0.81337683734E+02 0.  0.
          5    1    3    3  501    0 -0.61773151806E+02 -0.38779309285E+02  0.13897061264E+03  0.15701808268E+03  0.47000000000E+01 0. -1.
        -13    1    4    4    0    0 -0.93958288184E+01 -0.10451430675E+02  0.18347083057E+02  0.23111240967E+02  0.00000000000E+00 0.  1.
         14    1    4    4    0    0  0.18984512757E+02 -0.71719563072E+02  0.70799057017E+03  0.71186709076E+03  0.00000000000E+00 0. -1.
         -5    1    5    5    0  502  0.27266307511E+02  0.91322201655E+02  0.10709646472E+02  0.96020740301E+02  0.47000000000E+01 0.  1.
         13    1    6    6    0    0  0.24001878375E+02 -0.12808853076E+02  0.11435839801E+03  0.11754998969E+03  0.00000000000E+00 0. -1.
        -14    1    6    6    0    0  0.91628198053E+00  0.42436954453E+02  0.27780412337E+02  0.50729537604E+02  0.00000000000E+00 0.  1.
</event>
<event>
12    1  0.9966151E-001  0.1947868E+03  0.7818608E-02  0.1154582E+00
         21   -1    0    0  501  502  0.00000000000E+00  0.00000000000E+00  0.45258909940E+03  0.45258909940E+03  0.00000000000E+00 0.  1.
         21   -1    0    0  502  503 -0.00000000000E+00 -0.00000000000E+00 -0.91443432836E+02  0.91443432836E+02  0.00000000000E+00 0.  1.
         -6    2    1    2    0  503 -0.75573249173E+02  0.48621782887E+02  0.26197076829E+03  0.32545179470E+03  0.17092335555E+03 0.  0.
        -24    2    3    3    0    0 -0.11115938432E+03 -0.10281428562E+02  0.15151387670E+03  0.19522592847E+03  0.51909457898E+02 0.  0.
          6    2    1    2  501    0  0.75573249173E+02 -0.48621782887E+02  0.99174898270E+02  0.21858073754E+03  0.17281922524E+03 0.  0.
         24    2    5    5    0    0 -0.11852371057E+02  0.16839668481E+02  0.62737835175E+02  0.10334970762E+03  0.79505175737E+02 0.  0.
          5    1    5    5  501    0  0.87425620230E+02 -0.65461451368E+02  0.36437063095E+02  0.11523102991E+03  0.47000000000E+01 0. -1.
        -13    1    6    6    0    0  0.77423818950E+00  0.43656049881E+02  0.59110702820E+02  0.73488266573E+02  0.00000000000E+00 0.  1.
         14    1    6    6    0    0 -0.12626609247E+02 -0.26816381400E+02  0.36271323552E+01  0.29861441050E+02  0.00000000000E+00 0. -1.
         -5    1    3    3    0  503  0.35586135150E+02  0.58903211449E+02  0.11045689159E+03  0.13022586623E+03  0.47000000000E+01 0.  1.
         13    1    4    4    0    0 -0.37686068659E+02  0.10823022046E+02  0.86125952163E+02  0.94631164069E+02  0.00000000000E+00 0. -1.
        -14    1    4    4    0    0 -0.73473315664E+02 -0.21104450608E+02  0.65387924536E+02  0.10059476440E+03  0.00000000000E+00 0.  1.
</event>
<event>
12    1  0.9966151E-001  0.1728317E+03  0.7818608E-02  0.1175179E+00
         21   -1    0    0  501  502  0.00000000000E+00  0.00000000000E+00  0.13730762500E+04  0.13730762500E+04  0.00000000000E+00 0.  1.
         21   -1    0    0  502  503 -0.00000000000E+00 -0.00000000000E+00 -0.24970084531E+02  0.24970084531E+02  0.00000000000E+00 0.  1.
         -6    2    1    2    0  503  0.11352281442E+02  0.11648131063E+02  0.42009143659E+03  0.45425502220E+03  0.17206468797E+03 0.  0.
        -24    2    3    3    0    0 -0.37638524944E+02  0.44872709917E+01  0.11259215365E+03  0.14275979586E+03  0.79161683204E+02 0.  0.
          6    2    1    2  501    0 -0.11352281442E+02 -0.11648131063E+02  0.92801472888E+03  0.94379131233E+03  0.17107352503E+03 0.  0.
         24    2    5    5    0    0 -0.57994584646E+02  0.55896050987E+01  0.34656365165E+03  0.36019891245E+03  0.79008077737E+02 0.  0.
          5    1    5    5  501    0  0.46642303204E+02 -0.17237736161E+02  0.58145107722E+03  0.58359239988E+03  0.47000000000E+01 0. -1.
        -11    1    6    6    0    0 -0.34390660798E+02  0.35806716397E+02  0.11184325851E+03  0.12236728715E+03  0.00000000000E+00 0.  1.
         12    1    6    6    0    0 -0.23603923848E+02 -0.30217111299E+02  0.23472039314E+03  0.23783162530E+03  0.00000000000E+00 0. -1.
         -5    1    3    3    0  503  0.48990806386E+02  0.71608600711E+01  0.30749928294E+03  0.31149522635E+03  0.47000000000E+01 0.  1.
         13    1    4    4    0    0  0.23982034586E+02 -0.72212176969E+01  0.32238810323E+02  0.40824317005E+02  0.00000000000E+00 0. -1.
        -14    1    4    4    0    0 -0.61620559530E+02  0.11708488689E+02  0.80353343331E+02  0.10193547885E+03  0.00000000000E+00 0.  1.
</event>
<event>
12    1  0.9966151E-001  0.1828384E+03  0.7818608E-02  0.1165246E+00
         21   -1    0    0  503  502  0.00000000000E+00  0.00000000000E+00  0.38488355210E+02  0.38488355210E+02  0.00000000000E+00 0.  1.
         21   -1    0    0  501  503 -0.00000000000E+00 -0.00000000000E+00 -0.11881976569E+04  0.11881976569E+04  0.00000000000E+00 0.  1.
          6    2    1    2  501    0 -0.54111498900E+02 -0.32188240746E+02 -0.89535586242E+03  0.91383368688E+03  0.17165590512E+03 0.  0.
         24    2    3    3    0    0  0.35491232310E+02  0.53341380468E+01 -0.44928776960E+03  0.45728641466E+03  0.77222305820E+02 0.  0.
         -6    2    1    2    0  502  0.54111498900E+02  0.32188240746E+02 -0.25435343926E+03  0.31285232521E+03  0.17092913202E+03 0.  0.
        -24    2    5    5    0    0  0.31072941366E+00  0.72447220720E+02 -0.20974311882E+03  0.23205951021E+03  0.67902459791E+02 0.  0.
          5    1    3    3  501    0 -0.89602731210E+02 -0.37522378792E+02 -0.44606809282E+03  0.45654727223E+03  0.47000000000E+01 0. -1.
        -13    1    4    4    0    0 -0.80436192549E+01 -0.26818360918E+02 -0.21577403773E+03  0.21758299486E+03  0.00000000000E+00 0.  1.
         14    1    4    4    0    0  0.43534851565E+02  0.32152498965E+02 -0.23351373187E+03  0.23970341980E+03  0.00000000000E+00 0. -1.
         -5    1    5    5    0  502  0.53800769486E+02 -0.40258979975E+02 -0.44610320442E+02  0.80792815001E+02  0.47000000000E+01 0.  1.
         13    1    6    6    0    0 -0.30136092638E+02  0.20307455360E+02 -0.10562046530E+03  0.11169717773E+03  0.00000000000E+00 0. -1.
        -14    1    6    6    0    0  0.30446822051E+02  0.52139765360E+02 -0.10412265351E+03  0.12036233248E+03  0.00000000000E+00 0.  1.
</event>
<event>
12    1  0.9966151E-001  0.1818580E+03  0.7818608E-02  0.1166310E+00
         21   -1    0    0  501  502  0.00000000000E+00  0.00000000000E+00  0.95129755345E+02  0.95129755345E+02  0.00000000000E+00 0. -1.
         21   -1    0    0  502  503 -0.00000000000E+00 -0.00000000000E+00 -0.58534669736E+03  0.58534669736E+03  0.00000000000E+00 0. -1.
         -6    2    1    2    0  503  0.54239676305E+02  0.11422159680E+02 -0.46347191481E+03  0.49787402642E+03  0.17320485601E+03 0.  0.
        -24    2    3    3    0    0  0.32985075469E+02  0.23925024918E+02 -0.46402479816E+03  0.47276475769E+03  0.80790350861E+02 0.  0.
          6    2    1    2  501    0 -0.54239676305E+02 -0.11422159680E+02 -0.26745027202E+02  0.18260242629E+03  0.17191841492E+03 0.  0.
         24    2    5    5    0    0 -0.89478337938E+02  0.27796972420E+02 -0.61607508290E+00  0.12357094540E+03  0.80562735574E+02 0.  0.
          5    1    5    5  501    0  0.35238661633E+02 -0.39219132101E+02 -0.26128952119E+02  0.59031480883E+02  0.47000000000E+01 0. -1.
        -11    1    6    6    0    0 -0.73146113478E+02  0.32966179457E+02 -0.33143764261E+02  0.86808018146E+02  0.00000000000E+00 0.  1.
         12    1    6    6    0    0 -0.16332224460E+02 -0.51692070368E+01  0.32527689178E+02  0.36762927256E+02  0.00000000000E+00 0. -1.
         -5    1    3    3    0  503  0.21254600836E+02 -0.12502865238E+02  0.55288334538E+00  0.25109268724E+02  0.47000000000E+01 0.  1.
         11    1    4    4    0    0 -0.87711311389E+01  0.31982121649E+02 -0.83090917966E+02  0.89464459396E+02  0.00000000000E+00 0. -1.
        -12    1    4    4    0    0  0.41756206608E+02 -0.80570967313E+01 -0.38093388019E+03  0.38330029830E+03  0.00000000000E+00 0.  1.
</event>
<event>
12    1  0.9966151E-001  0.2014989E+03  0.7818608E-02  0.1148664E+00
         21   -1    0    0  503  502  0.00000000000E+00  0.00000000000E+00  0.30892259912E+03  0.30892259912E+03  0.00000000000E+00 0.  1.
         21   -1    0    0  501  503 -0.00000000000E+00 -0.00000000000E+00 -0.13949196574E+03  0.13949196574E+03  0.00000000000E+00 0.  1.
          6    2    1    2  501    0 -0.83294066016E+02  0.66342553637E+02  0.14066692279E+03  0.24574173209E+03  0.17106308738E+03 0.  0.
         24    2    3    3    0    0 -0.23741093588E+02  0.43191401959E+02  0.15398445100E+03  0.18030490066E+03  0.79809205764E+02 0.  0.
         -6    2    1    2    0  502  0.83294066016E+02 -0.66342553637E+02  0.28763710583E+02  0.20267283277E+03  0.17002849832E+03 0.  0.
        -24    2    5    5    0    0  0.82508251005E+02 -0.91117895240E+02  0.63130246692E+02  0.16003970175E+03  0.80729150693E+02 0.  0.
          5    1    3    3  501    0 -0.59552972427E+02  0.23151151678E+02 -0.13317528213E+02  0.65436831423E+02  0.47000000000E+01 0. -1.
        -11    1    4    4    0    0 -0.35435865480E+02  0.57390075719E+02  0.14481353849E+03  0.15975068790E+03  0.00000000000E+00 0.  1.
         12    1    4    4    0    0  0.11694771892E+02 -0.14198673761E+02  0.91709125141E+01  0.20554212768E+02  0.00000000000E+00 0. -1.
         -5    1    5    5    0  502  0.78581501049E+00  0.24775341603E+02 -0.34366536109E+02  0.42633131024E+02  0.47000000000E+01 0.  1.
         11    1    6    6    0    0  0.11789489753E+02 -0.14231784176E+02 -0.19485611392E+02  0.26855628847E+02  0.00000000000E+00 0. -1.
        -12    1    6    6    0    0  0.70718761253E+02 -0.76886111064E+02  0.82615858084E+02  0.13318407290E+03  0.00000000000E+00 0.  1.
</event>
<event>
12    1  0.9966151E-001  0.1980815E+03  0.7818608E-02  0.1151388E+00
         21   -1    0    0  503  502  0.00000000000E+00  0.00000000000E+00  0.18847381456E+04  0.18847381456E+04  0.00000000000E+00 0.  1.
         21   -1    0    0  501  503 -0.00000000000E+00 -0.00000000000E+00 -0.25144317952E+02  0.25144317952E+02  0.00000000000E+00 0.  1.
          6    2    1    2  501    0 -0.97482377613E+02 -0.10592321469E+02  0.13265520013E+04  0.13412593005E+04  0.17210836054E+03 0.  0.
         24    2    3    3    0    0 -0.94695181261E+02 -0.45211257022E+01  0.13271133386E+04  0.13330719333E+04  0.82845325616E+02 0.  0.
         -6    2    1    2    0  502  0.97482377613E+02  0.10592321469E+02  0.53304182636E+03  0.56862316308E+03  0.17199913291E+03 0.  0.
        -24    2    5    5    0    0  0.10880839254E+03 -0.42608545634E+02  0.40836315305E+03  0.43251485160E+03  0.81571304010E+02 0.  0.
          5    1    3    3  501    0 -0.27871963514E+01 -0.60711957666E+01 -0.56133730256E+00  0.81873671656E+01  0.47000000000E+01 0. -1.
        -13    1    4    4    0    0 -0.28061862316E+02 -0.40864176126E+02  0.47150941738E+03  0.47410808861E+03  0.00000000000E+00 0.  1.
         14    1    4    4    0    0 -0.66633318945E+02  0.36343050424E+02  0.85560392121E+03  0.85896384469E+03  0.00000000000E+00 0. -1.
         -5    1    5    5    0  502 -0.11326014931E+02  0.53200867102E+02  0.12467867331E+03  0.13610831148E+03  0.47000000000E+01 0.  1.
         13    1    6    6    0    0  0.67825701504E+02 -0.35561208694E+02  0.36293894445E+03  0.37093072500E+03  0.00000000000E+00 0. -1.
        -14    1    6    6    0    0  0.40982691039E+02 -0.70473369393E+01  0.45424208602E+02  0.61584126607E+02  0.00000000000E+00 0.  1.
</event>
<event>
12    1  0.9966151E-001  0.1891104E+03  0.7818608E-02  0.1159373E+00
         21   -1    0    0  503  502  0.00000000000E+00  0.00000000000E+00  0.53804027274E+03  0.53804027274E+03  0.00000000000E+00 0. -1.
         21   -1    0    0  501  503 -0.00000000000E+00 -0.00000000000E+00 -0.66583201167E+02  0.66583201167E+02  0.00000000000E+00 0. -1.
          6    2    1    2  501    0 -0.79475719324E+02 -0.82234588874E+00  0.21639878819E+03  0.28738684079E+03  0.17159747817E+03 0.  0.
         24    2    3    3    0    0 -0.10757533522E+03  0.71539313823E+01  0.22064227339E+03  0.25749860599E+03  0.77452487345E+02 0.  0.
         -6    2    1    2    0  502  0.79475719324E+02  0.82234588874E+00  0.25505828338E+03  0.31723663312E+03  0.17107684605E+03 0.  0.
        -24    2    5    5    0    0 -0.97738375549E+01  0.32751381507E+02  0.16301880041E+03  0.18503109941E+03  0.80580379546E+02 0.  0.
          5    1    3    3  501    0  0.28099615899E+02 -0.79762772711E+01 -0.42434852031E+01  0.29888234800E+02  0.47000000000E+01 0. -1.
        -13    1    4    4    0    0 -0.36105973631E+01  0.17159080232E+02  0.82353460860E+02  0.84199542537E+02  0.00000000000E+00 0.  1.
         14    1    4    4    0    0 -0.10396473786E+03 -0.10005148850E+02  0.13828881253E+03  0.17329906345E+03  0.00000000000E+00 0. -1.
         -5    1    5    5    0  502  0.89249556878E+02 -0.31929035618E+02  0.92039482969E+02  0.13220553371E+03  0.47000000000E+01 0.  1.
         13    1    6    6    0    0 -0.62700127841E+01  0.34450692394E+02  0.17184904033E+03  0.17538031796E+03  0.00000000000E+00 0. -1.
        -14    1    6    6    0    0 -0.35038247708E+01 -0.16993108871E+01 -0.88302399147E+01  0.96507814433E+01  0.00000000000E+00 0.  1.
</event>
<event>
12    1  0.9966151E-001  0.1734406E+03  0.7818608E-02  0.1174445E+00
         21   -1    0    0  503  502  0.00000000000E+00  0.00000000000E+00  0.41307805307E+03  0.41307805307E+03  0.00000000000E+00 0.  1.
         21   -1    0    0  501  503 -0.00000000000E+00 -0.00000000000E+00 -0.91698981260E+02  0.91698981260E+02  0.00000000000E+00 0.  1.
          6    2    1    2  501    0  0.12418518517E+02  0.21945750452E+02  0.27608744647E+03  0.32604586937E+03  0.17159777175E+03 0.  0.
         24    2    3    3    0    0 -0.19577320033E+01 -0.31894732743E+02  0.86655314788E+02  0.12853106809E+03  0.89386717095E+02 0.  0.
         -6    2    1    2    0  502 -0.12418518517E+02 -0.21945750452E+02  0.45291625338E+02  0.17873116496E+03  0.17104871363E+03 0.  0.
        -24    2    5    5    0    0  0.22954936897E+02 -0.41330272150E+02 -0.26486682460E+02  0.96261434148E+02  0.79558775962E+02 0.  0.
          5    1    3    3  501    0  0.14376250520E+02  0.53840483195E+02  0.18943213168E+03  0.19751480127E+03  0.47000000000E+01 0. -1.
        -11    1    4    4    0    0  0.39097161091E+02 -0.51960224387E+01  0.62551820024E+02  0.73948068554E+02  0.00000000000E+00 0.  1.
         12    1    4    4    0    0 -0.41054893095E+02 -0.26698710304E+02  0.24103494765E+02  0.54582999540E+02  0.00000000000E+00 0. -1.
         -5    1    5    5    0  502 -0.35373455413E+02  0.19384521698E+02  0.71778307799E+02  0.82469730809E+02  0.47000000000E+01 0.  1.
         13    1    6    6    0    0 -0.27635302832E+02 -0.29830826150E+02 -0.11451275271E+02  0.42245944856E+02  0.00000000000E+00 0. -1.
        -14    1    6    6    0    0  0.50590239729E+02 -0.11499446001E+02 -0.15035407189E+02  0.54015489292E+02  0.00000000000E+00 0.  1.
</event>
<event>
12    1  0.9966151E-001  0.2077035E+03  0.7818608E-02  0.1143439E+00
         21   -1    0    0  503  502  0.00000000000E+00  0.00000000000E+00  0.80717701427E+03  0.80717701427E+03  0.00000000000E+00 0.  1.
         21   -1    0    0  501  503 -0.00000000000E+00 -0.00000000000E+00 -0.58433331732E+02  0.58433331732E+02  0.00000000000E+00 0.  1.
          6    2    1    2  501    0  0.11422489690E+03  0.23723071915E+02  0.50164234091E+03  0.54294178160E+03  0.17184478115E+03 0.  0.
         24    2    3    3    0    0  0.14543214776E+03  0.41067074301E+02  0.42825335823E+03  0.46119375592E+03  0.80384870875E+02 0.  0.
         -6    2    1    2    0  502 -0.11422489690E+03 -0.23723071915E+02  0.24710134164E+03  0.32266856440E+03  0.17159783858E+03 0.  0.
        -24    2    5    5    0    0 -0.78346904990E+02 -0.64071692134E+02  0.23571914278E+03  0.26728909251E+03  0.75076796973E+02 0.  0.
          5    1    3    3  501    0 -0.31207250865E+02 -0.17344002387E+02  0.73388982673E+02  0.81748025683E+02  0.47000000000E+01 0. -1.
        -13    1    4    4    0    0  0.70643833704E+02 -0.51995372749E+01  0.27998429277E+03  0.28880580089E+03  0.00000000000E+00 0.  1.
         14    1    4    4    0    0  0.74788314058E+02  0.46266611576E+02  0.14826906546E+03  0.17238795503E+03  0.00000000000E+00 0. -1.
         -5    1    5    5    0  502 -0.35877991907E+02  0.40348620219E+02  0.11382198851E+02  0.55379471896E+02  0.47000000000E+01 0.  1.
         13    1    6    6    0    0 -0.12828417073E+02 -0.58552889103E+02  0.12199947132E+03  0.13592968811E+03  0.00000000000E+00 0. -1.
        -14    1    6    6    0    0 -0.65518487918E+02 -0.55188030303E+01  0.11371967146E+03  0.13135940440E+03  0.00000000000E+00 0.  1.
</event>
<event>
12    1  0.9966151E-001  0.2299333E+03  0.7818608E-02  0.1126756E+00
         21   -1    0    0  501  502  0.00000000000E+00  0.00000000000E+00  0.72342964188E+02  0.72342964188E+02  0.00000000000E+00 0.  1.
         21   -1    0    0  502  503 -0.00000000000E+00 -0.00000000000E+00 -0.76526384006E+03  0.76526384006E+03  0.00000000000E+00 0.  1.
         -6    2    1    2    0  503 -0.97102462487E+02  0.11631425739E+03 -0.43662259518E+03  0.49328406583E+03  0.17242965027E+03 0.  0.
        -24    2    3    3    0    0 -0.22702867032E+02 -0.95072438101E+01 -0.16603019881E+03  0.18569881759E+03  0.79449456127E+02 0.  0.
          6    2    1    2  501    0  0.97102462487E+02 -0.11631425739E+03 -0.25629828070E+03  0.34432273842E+03  0.17294925502E+03 0.  0.
         24    2    5    5    0    0  0.12894611181E+03 -0.11388200218E+03 -0.24588172467E+03  0.31040329698E+03  0.79348434628E+02 0.  0.
          5    1    5    5  501    0 -0.31843649328E+02 -0.24322552108E+01 -0.10416556028E+02  0.33919441437E+02  0.47000000000E+01 0. -1.
        -13    1    6    6    0    0  0.20035076943E+02 -0.40123691770E+01 -0.84149738512E+02  0.86594930025E+02  0.00000000000E+00 0.  1.
         14    1    6    6    0    0  0.10891103487E+03 -0.10986963300E+03 -0.16173198616E+03  0.22380836696E+03  0.00000000000E+00 0. -1.
         -5    1    3    3    0  503 -0.74399595455E+02  0.12582150120E+03 -0.27059239636E+03  0.30758524825E+03  0.47000000000E+01 0.  1.
         11    1    4    4    0    0 -0.13269332377E+02  0.34156880498E+02 -0.94613165758E+02  0.10146141534E+03  0.00000000000E+00 0. -1.
        -12    1    4    4    0    0 -0.94335346545E+01 -0.43664124308E+02 -0.71417033054E+02  0.84237402250E+02  0.00000000000E+00 0.  1.
</event>
<event>
12    1  0.9966151E-001  0.2266618E+03  0.7818608E-02  0.1129368E+00
         21   -1    0    0  503  502  0.00000000000E+00  0.00000000000E+00  0.28534712917E+03  0.28534712917E+03  0.00000000000E+00 0.  1.
         21   -1    0    0  501  503 -0.00000000000E+00 -0.00000000000E+00 -0.17968992107E+03  0.17968992107E+03  0.00000000000E+00 0.  1.
          6    2    1    2  501    0  0.10411597434E+03  0.10553660113E+03  0.72165503202E+02  0.23787274369E+03  0.17145691018E+03 0.  0.
         24    2    3    3    0    0  0.70733497214E+02  0.11929580032E+03  0.10288628788E+03  0.19023282395E+03  0.79801149589E+02 0.  0.
         -6    2    1    2    0  502 -0.10411597434E+03 -0.10553660113E+03  0.33491704897E+02  0.22716430655E+03  0.16883073649E+03 0.  0.
        -24    2    5    5    0    0 -0.77533403677E+02 -0.13739715085E+03  0.62309005313E+01  0.17729478533E+03  0.80654888491E+02 0.  0.
          5    1    3    3  501    0  0.33382477124E+02 -0.13759199190E+02 -0.30720784673E+02  0.47639919734E+02  0.47000000000E+01 0. -1.
        -13    1    4    4    0    0  0.87893298823E+01  0.53250294441E+02  0.10760212838E+01  0.53981515351E+02  0.00000000000E+00 0.  1.
         14    1    4    4    0    0  0.61944167331E+02  0.66045505876E+02  0.10181026659E+03  0.13625130860E+03  0.00000000000E+00 0. -1.
         -5    1    5    5    0  502 -0.26582570660E+02  0.31860549723E+02  0.27260804366E+02  0.49869521215E+02  0.47000000000E+01 0.  1.
         13    1    6    6    0    0 -0.17667107770E+02 -0.57370231460E+02 -0.34654465357E+02  0.69313794615E+02  0.00000000000E+00 0. -1.
        -14    1    6    6    0    0 -0.59866295907E+02 -0.80026919389E+02  0.40885365889E+02  0.10798099072E+03  0.00000000000E+00 0.  1.
</event>
<event>
12    1  0.9966151E-001  0.2272213E+03  0.7818608E-02  0.1129034E+00
         21   -1    0    0  501  502  0.00000000000E+00  0.00000000000E+00  0.92347701263E+03  0.92347701263E+03  0.00000000000E+00 0. -1.
         21   -1    0    0  502  503 -0.00000000000E+00 -0.00000000000E+00 -0.98031398698E+02  0.98031398698E+02  0.00000000000E+00 0. -1.
         -6    2    1    2    0  503  0.14028207589E+03  0.35576889019E+02  0.74860143064E+03  0.78164476589E+03  0.17210363809E+03 0.  0.
        -24    2    3    3    0    0  0.67758281310E+02  0.67126347927E+02  0.28490201843E+03  0.31122548055E+03  0.81209656857E+02 0.  0.
          6    2    1    2  501    0 -0.14028207589E+03 -0.35576889019E+02  0.76844183296E+02  0.23986364544E+03  0.17517067119E+03 0.  0.
         24    2    5    5    0    0 -0.16867788401E+03 -0.23998330724E+02  0.85883963324E+02  0.20754967704E+03  0.81686381075E+02 0.  0.
          5    1    5    5  501    0  0.28395808113E+02 -0.11578558295E+02 -0.90397800281E+01  0.32313968396E+02  0.47000000000E+01 0. -1.
        -13    1    6    6    0    0 -0.12405920176E+03  0.19341322783E+02  0.46312309739E+02  0.13382676243E+03  0.00000000000E+00 0.  1.
         14    1    6    6    0    0 -0.44618682243E+02 -0.43339653507E+02  0.39571653585E+02  0.73722914611E+02  0.00000000000E+00 0. -1.
         -5    1    3    3    0  503  0.72523794584E+02 -0.31549458908E+02  0.46369941221E+03  0.47041928534E+03  0.47000000000E+01 0.  1.
         11    1    4    4    0    0 -0.97039900507E+01 -0.45176342765E+01  0.44696465807E+01  0.11599749261E+02  0.00000000000E+00 0. -1.
        -12    1    4    4    0    0  0.77462271361E+02  0.71643982204E+02  0.28043237185E+03  0.29962573129E+03  0.00000000000E+00 0.  1.
</event>
<event>
12    1  0.9966151E-001  0.1862149E+03  0.7818608E-02  0.1162574E+00
         21   -1    0    0  501  502  0.00000000000E+00  0.00000000000E+00  0.27801778422E+03  0.27801778422E+03  0.00000000000E+00 0. -1.
         21   -1    0    0  502  503 -0.00000000000E+00 -0.00000000000E+00 -0.13219430206E+03  0.13219430206E+03  0.00000000000E+00 0. -1.
         -6    2    1    2    0  503 -0.65111298631E+02 -0.12865114551E+02  0.18916400770E+02  0.18717326822E+03  0.17398565957E+03 0.  0.
        -24    2    3    3    0    0 -0.18045766562E+02 -0.96855646225E+01 -0.54845267798E+02  0.99491185687E+02  0.80442729794E+02 0.  0.
          6    2    1    2  501    0  0.65111298631E+02  0.12865114551E+02  0.12690708139E+03  0.22303881806E+03  0.17098512997E+03 0.  0.
         24    2    5    5    0    0  0.19132023126E+02  0.48236050890E+02  0.12760293721E+02  0.94910850584E+02  0.78437832379E+02 0.  0.
          5    1    5    5  501    0  0.45979275505E+02 -0.35370936340E+02  0.11414678767E+03  0.12812796747E+03  0.47000000000E+01 0. -1.
        -11    1    6    6    0    0  0.46195106490E+02  0.25500551713E+02 -0.88197249795E+01  0.53498163988E+02  0.00000000000E+00 0.  1.
         12    1    6    6    0    0 -0.27063083365E+02  0.22735499177E+02  0.21580018700E+02  0.41412686596E+02  0.00000000000E+00 0. -1.
         -5    1    3    3    0  503 -0.47065532069E+02 -0.31795499281E+01  0.73761668568E+02  0.87682082529E+02  0.47000000000E+01 0.  1.
         13    1    4    4    0    0 -0.27785589199E+02  0.24589604028E+02 -0.51815882855E+02  0.63730473947E+02  0.00000000000E+00 0. -1.
        -14    1    4    4    0    0  0.97398226369E+01 -0.34275168651E+02 -0.30293849431E+01  0.35760711740E+02  0.00000000000E+00 0.  1.
</event>
<event>
12    1  0.9966151E-001  0.2345377E+03  0.7818608E-02  0.1123694E+00
         21   -1    0    0  503  502  0.00000000000E+00  0.00000000000E+00  0.12945314805E+03  0.12945314805E+03  0.00000000000E+00 0.  1.
         21   -1    0    0  501  503 -0.00000000000E+00 -0.00000000000E+00 -0.42326681772E+03  0.42326681772E+03  0.00000000000E+00 0.  1.
          6    2    1    2  501    0  0.10724485543E+03 -0.11782757661E+03 -0.13755033394E+03  0.27189704739E+03  0.17211366357E+03 0.  0.
         24    2    3    3    0    0 -0.10486503428E+02 -0.72982465582E+02 -0.53750920249E+02  0.12051610877E+03  0.78730959666E+02 0.  0.
         -6    2    1    2    0  502 -0.10724485543E+03  0.11782757661E+03 -0.15626333574E+03  0.28082291838E+03  0.17046549376E+03 0.  0.
        -24    2    5    5    0    0 -0.43431670953E+02  0.30763530062E+02 -0.14247716655E+03  0.17189900376E+03  0.80105054032E+02 0.  0.
          5    1    3    3  501    0  0.11773135886E+03 -0.44845111030E+02 -0.83799413687E+02  0.15138093862E+03  0.47000000000E+01 0. -1.
        -13    1    4    4    0    0  0.17748183125E+02 -0.73889524797E+02 -0.52261599617E+02  0.92227624242E+02  0.00000000000E+00 0.  1.
         14    1    4    4    0    0 -0.28234686553E+02  0.90705921501E+00 -0.14893206325E+01  0.28288484532E+02  0.00000000000E+00 0. -1.
         -5    1    5    5    0  502 -0.63813184480E+02  0.87064046550E+02 -0.13786169190E+02  0.10892391462E+03  0.47000000000E+01 0.  1.
         13    1    6    6    0    0 -0.39588509880E+02 -0.20503822235E+02 -0.60946025981E+02  0.75512084620E+02  0.00000000000E+00 0. -1.
        -14    1    6    6    0    0 -0.38431610725E+01  0.51267352297E+02 -0.81531140566E+02  0.96386919136E+02  0.00000000000E+00 0.  1.
</event>
<event>
12    1  0.9966151E-001  0.2308159E+03  0.7818608E-02  0.1126445E+00
         21   -1    0    0  501  502  0.00000000000E+00  0.00000000000E+00  0.10040604450E+04  0.10040604450E+04  0.00000000000E+00 0. -1.
         21   -1    0    0  502  503 -0.00000000000E+00 -0.00000000000E+00 -0.81894953529E+02  0.81894953529E+02  0.00000000000E+00 0. -1.
         -6    2    1    2    0  503  0.10922804229E+03  0.10390236486E+03  0.78739687631E+03  0.82053020398E+03  0.17478417600E+03 0.  0.
        -24    2    3    3    0    0  0.25528842293E+02  0.11818719940E+03  0.53640126251E+03  0.55551982546E+03  0.79095045148E+02 0.  0.
          6    2    1    2  501    0 -0.10922804229E+03 -0.10390236486E+03  0.13476861514E+03  0.26542519452E+03  0.17193454457E+03 0.  0.
         24    2    5    5    0    0 -0.88579314508E+02 -0.50979092921E+02  0.11921462845E+02  0.12999714906E+03  0.79447936494E+02 0.  0.
          5    1    5    5  501    0 -0.20648727777E+02 -0.52923271941E+02  0.12284715229E+03  0.13542804546E+03  0.47000000000E+01 0. -1.
        -11    1    6    6    0    0 -0.74663562744E+02 -0.63948574923E+02  0.30977836844E+02  0.10307130644E+03  0.00000000000E+00 0.  1.
         12    1    6    6    0    0 -0.13915751765E+02  0.12969482002E+02 -0.19056373999E+02  0.26925842616E+02  0.00000000000E+00 0. -1.
         -5    1    3    3    0  503  0.83699199992E+02 -0.14284834541E+02  0.25099561380E+03  0.26501037852E+03  0.47000000000E+01 0.  1.
         11    1    4    4    0    0 -0.19921845666E+02  0.25502121072E+01  0.83885690182E+02  0.86256550672E+02  0.00000000000E+00 0. -1.
        -12    1    4    4    0    0  0.45450687959E+02  0.11563698730E+03  0.45251557232E+03  0.46926327479E+03  0.00000000000E+00 0.  1.
</event>
<event>
12    1  0.9966151E-001  0.2984417E+03  0.7818608E-02  0.1086068E+00
         21   -1    0    0  501  502  0.00000000000E+00  0.00000000000E+00  0.66589466118E+03  0.66589466118E+03  0.00000000000E+00 0. -1.
         21   -1    0    0  502  503 -0.00000000000E+00 -0.00000000000E+00 -0.18778758622E+03  0.18778758622E+03  0.00000000000E+00 0.  1.
         -6    2    1    2    0  503  0.78967105172E+02  0.23017721039E+03  0.46845620852E+03  0.55544455536E+03  0.17277176533E+03 0.  0.
        -24    2    3    3    0    0 -0.11847539651E+02  0.61046884612E+02  0.11444293960E+03  0.15270412856E+03  0.79713726148E+02 0.  0.
          6    2    1    2  501    0 -0.78967105172E+02 -0.23017721039E+03  0.96508664424E+01  0.29823769205E+03  0.17214885957E+03 0.  0.
         24    2    5    5    0    0 -0.12065347656E+03 -0.16681608719E+03  0.52740337404E+01  0.22212177940E+03  0.83218994844E+02 0.  0.
          5    1    5    5  501    0  0.41686371390E+02 -0.63361123202E+02  0.43768327019E+01  0.76115912644E+02  0.47000000000E+01 0. -1.
        -13    1    6    6    0    0 -0.84152400554E+02 -0.15688249674E+03  0.24470295161E+02  0.17970125110E+03  0.00000000000E+00 0.  1.
         14    1    6    6    0    0 -0.36501076008E+02 -0.99335904464E+01 -0.19196261420E+02  0.42420528301E+02  0.00000000000E+00 0. -1.
         -5    1    3    3    0  503  0.90814644823E+02  0.16913032578E+03  0.35401326892E+03  0.40274042680E+03  0.47000000000E+01 0.  1.
         13    1    4    4    0    0 -0.33297750150E+02  0.66544783035E+02  0.66094507001E+02  0.99526037648E+02  0.00000000000E+00 0. -1.
        -14    1    4    4    0    0  0.21450210499E+02 -0.54978984224E+01  0.48348432604E+02  0.53178090910E+02  0.00000000000E+00 0.  1.
</event>
<event>
12    1  0.9966151E-001  0.2860772E+03  0.7818608E-02  0.1092516E+00
         21   -1    0    0  501  502  0.00000000000E+00  0.00000000000E+00  0.25910510157E+03  0.25910510157E+03  0.00000000000E+00 0.  1.
         21   -1    0    0  502  503 -0.00000000000E+00 -0.00000000000E+00 -0.32998612051E+03  0.32998612051E+03  0.00000000000E+00 0.  1.
         -6    2    1    2    0  503 -0.11764213990E+02  0.22679747361E+03  0.27237503118E+02  0.28737087164E+03  0.17396736913E+03 0.  0.
        -24    2    3    3    0    0  0.17652918709E+02  0.12954875356E+03 -0.47760433415E+02  0.16100053599E+03  0.80904934960E+02 0.  0.
          6    2    1    2  501    0  0.11764213990E+02 -0.22679747361E+03 -0.98118522055E+02  0.30172035044E+03  0.17272068415E+03 0.  0.
         24    2    5    5    0    0  0.28321977708E+02 -0.18277624051E+03 -0.13391236104E+03  0.24243023818E+03  0.81428566409E+02 0.  0.
          5    1    5    5  501    0 -0.16557763717E+02 -0.44021233101E+02  0.35793838983E+02  0.59290112263E+02  0.47000000000E+01 0. -1.
        -13    1    6    6    0    0  0.33447613006E+02 -0.21940918004E+02 -0.37562582613E+02  0.54873439032E+02  0.00000000000E+00 0.  1.
         14    1    6    6    0    0 -0.51256352982E+01 -0.16083532251E+03 -0.96349778425E+02  0.18755679915E+03  0.00000000000E+00 0. -1.
         -5    1    3    3    0  503 -0.29417132699E+02  0.97248720056E+02  0.74997936533E+02  0.12637033565E+03  0.47000000000E+01 0.  1.
         13    1    4    4    0    0  0.20041076382E+02  0.41862434464E+02  0.19620871473E+02  0.50389351645E+02  0.00000000000E+00 0. -1.
        -14    1    4    4    0    0 -0.23881576739E+01  0.87686319093E+02 -0.67381304888E+02  0.11061118434E+03  0.00000000000E+00 0.  1.
</event>
<event>
12    1  0.9966151E-001  0.2172792E+03  0.7818608E-02  0.1137360E+00
         21   -1    0    0  503  502  0.00000000000E+00  0.00000000000E+00  0.49342620592E+03  0.49342620592E+03  0.00000000000E+00 0.  1.
         21   -1    0    0  501  503 -0.00000000000E+00 -0.00000000000E+00 -0.94873949681E+02  0.94873949681E+02  0.00000000000E+00 0.  1.
          6    2    1    2  501    0  0.12857014692E+03  0.34223010509E+01  0.14878745011E+03  0.25725223266E+03  0.16582825778E+03 0.  0.
         24    2    3    3    0    0  0.15435819273E+03  0.14636991666E+02  0.10167279092E+03  0.20218251592E+03  0.80620841865E+02 0.  0.
         -6    2    1    2    0  502 -0.12857014692E+03 -0.34223010509E+01  0.24976480613E+03  0.33104792294E+03  0.17512359657E+03 0.  0.
        -24    2    5    5    0    0 -0.75892079588E+02 -0.40409237763E+02  0.60579212059E+02  0.13115722463E+03  0.78357274056E+02 0.  0.
          5    1    3    3  501    0 -0.25788045805E+02 -0.11214690615E+02  0.47114659190E+02  0.55069716747E+02  0.47000000000E+01 0. -1.
        -13    1    4    4    0    0  0.94446105772E+02  0.36475439960E+02  0.93642035211E+02  0.13791067897E+03  0.00000000000E+00 0.  1.
         14    1    4    4    0    0  0.59912086955E+02 -0.21838448295E+02  0.80307557049E+01  0.64271836946E+02  0.00000000000E+00 0. -1.
         -5    1    5    5    0  502 -0.52678067334E+02  0.36986936713E+02  0.18918559407E+03  0.19989069831E+03  0.47000000000E+01 0.  1.
         13    1    6    6    0    0  0.14718023920E+02 -0.64000623174E+01  0.21390153699E+02  0.26741722103E+02  0.00000000000E+00 0. -1.
        -14    1    6    6    0    0 -0.90610103508E+02 -0.34009175446E+02  0.39189058360E+02  0.10441550252E+03  0.00000000000E+00 0.  1.
</event>
<event>
12    1  0.9966151E-001  0.1839808E+03  0.7818608E-02  0.1164208E+00
         21   -1    0    0  503  502  0.00000000000E+00  0.00000000000E+00  0.55558151807E+03  0.55558151807E+03  0.00000000000E+00 0.  1.
         21   -1    0    0  501  503 -0.00000000000E+00 -0.00000000000E+00 -0.71225112011E+02  0.71225112011E+02  0.00000000000E+00 0.  1.
          6    2    1    2  501    0 -0.38343409634E+02  0.50556893525E+02  0.12184820333E+03  0.22067155656E+03  0.17269260168E+03 0.  0.
         24    2    3    3    0    0 -0.55627202269E+02  0.48684289475E+02  0.12260020625E+02  0.10961348201E+03  0.80001635346E+02 0.  0.
         -6    2    1    2    0  502  0.38343409634E+02 -0.50556893525E+02  0.36250820272E+03  0.40613507352E+03  0.17177684464E+03 0.  0.
        -24    2    5    5    0    0 -0.12990099218E+02 -0.32782671636E+02  0.33266964885E+03  0.34397816407E+03  0.80052706718E+02 0.  0.
          5    1    3    3  501    0  0.17283792635E+02  0.18726040495E+01  0.10958818271E+03  0.11105807455E+03  0.47000000000E+01 0. -1.
        -13    1    4    4    0    0 -0.12388407863E+02 -0.18813649073E+02 -0.12442330301E+02  0.25733978008E+02  0.00000000000E+00 0.  1.
         14    1    4    4    0    0 -0.43238794406E+02  0.67497938548E+02  0.24702350925E+02  0.83879503999E+02  0.00000000000E+00 0. -1.
         -5    1    5    5    0  502  0.51333508852E+02 -0.17774221888E+02  0.29838553869E+02  0.62156909445E+02  0.47000000000E+01 0.  1.
         11    1    6    6    0    0  0.13797691780E+02 -0.44330190595E+02  0.10986743833E+03  0.11927445704E+03  0.00000000000E+00 0. -1.
        -12    1    6    6    0    0 -0.26787790998E+02  0.11547518958E+02  0.22280221052E+03  0.22470370703E+03  0.00000000000E+00 0.  1.
</event>
<event>
12    1  0.9966151E-001  0.1997351E+03  0.7818608E-02  0.1150055E+00
         21   -1    0    0  503  502  0.00000000000E+00  0.00000000000E+00  0.30017392028E+02  0.30017392028E+02  0.00000000000E+00 0.  1.
         21   -1    0    0  501  503 -0.00000000000E+00 -0.00000000000E+00 -0.14775525875E+04  0.14775525875E+04  0.00000000000E+00 0.  1.
          6    2    1    2  501    0 -0.93518995315E+02 -0.34358368215E+02 -0.96436765447E+03  0.98474593651E+03  0.17260731887E+03 0.  0.
         24    2    3    3    0    0  0.12042194340E+02 -0.36374651509E+02 -0.31994750820E+03  0.33171711243E+03  0.78750904486E+02 0.  0.
         -6    2    1    2    0  502  0.93518995315E+02  0.34358368215E+02 -0.48316754098E+03  0.52282404300E+03  0.17311212358E+03 0.  0.
        -24    2    5    5    0    0  0.52435276967E+02 -0.46873493602E+02 -0.23858264925E+03  0.26180613834E+03  0.81695721299E+02 0.  0.
          5    1    3    3  501    0 -0.10556118965E+03  0.20162832940E+01 -0.64442014627E+03  0.65302882408E+03  0.47000000000E+01 0. -1.
        -11    1    4    4    0    0  0.24288343448E+02  0.12039364802E+02 -0.19941064801E+03  0.20124481725E+03  0.00000000000E+00 0.  1.
         12    1    4    4    0    0 -0.12246149108E+02 -0.48414016311E+02 -0.12053686020E+03  0.13047229518E+03  0.00000000000E+00 0. -1.
         -5    1    5    5    0  502  0.41083718347E+02  0.81231861817E+02 -0.24458489174E+03  0.26101790466E+03  0.47000000000E+01 0.  1.
         13    1    6    6    0    0 -0.36903328147E+01  0.85642965526E+01 -0.11377546944E+03  0.11415701108E+03  0.00000000000E+00 0. -1.
        -14    1    6    6    0    0  0.56125609782E+02 -0.55437790155E+02 -0.12480717981E+03  0.14764912726E+03  0.00000000000E+00 0.  1.
</event>
<event>
12    1  0.9966151E-001  0.3528446E+03  0.7818608E-02  0.1061906E+00
         21   -1    0    0  503  502  0.00000000000E+00  0.00000000000E+00  0.21196319037E+03  0.21196319037E+03  0.00000000000E+00 0.  1.
         21   -1    0    0  501  503 -0.00000000000E+00 -0.00000000000E+00 -0.59720019402E+03  0.59720019402E+03  0.00000000000E+00 0.  1.
          6    2    1    2  501    0  0.24488872892E+03  0.17814254740E+03 -0.26241376320E+03  0.43972750449E+03  0.18109124315E+03 0.  0.
         24    2    3    3    0    0  0.75044554023E+02  0.17348714907E+02 -0.13113750012E+03  0.17147902349E+03  0.79217097654E+02 0.  0.
         -6    2    1    2    0  502 -0.24488872892E+03 -0.17814254740E+03 -0.12282324045E+03  0.36943587990E+03  0.17231385380E+03 0.  0.
        -24    2    5    5    0    0 -0.16358592954E+03 -0.11582322776E+03 -0.14948848540E+03  0.26347849187E+03  0.83058605711E+02 0.  0.
          5    1    3    3  501    0  0.16984417490E+03  0.16079383250E+03 -0.13127626308E+03  0.26824848101E+03  0.47000000000E+01 0. -1.
        -11    1    4    4    0    0 -0.99986043409E+01  0.11860423210E+02 -0.52236783728E+00  0.15521423763E+02  0.00000000000E+00 0.  1.
         12    1    4    4    0    0  0.85043158364E+02  0.54882916971E+01 -0.13061513228E+03  0.15595759972E+03  0.00000000000E+00 0. -1.
         -5    1    5    5    0  502 -0.81302799385E+02 -0.62319319642E+02  0.26665244945E+02  0.10595738802E+03  0.47000000000E+01 0.  1.
         11    1    6    6    0    0 -0.19516979883E+00 -0.12551079705E+02 -0.38706119094E+02  0.40690678887E+02  0.00000000000E+00 0. -1.
        -12    1    6    6    0    0 -0.16339075974E+03 -0.10327214806E+03 -0.11078236630E+03  0.22278781299E+03  0.00000000000E+00 0.  1.
</event>
<event>
12    1  0.9966151E-001  0.1989694E+03  0.7818608E-02  0.1150736E+00
         21   -1    0    0  501  502  0.00000000000E+00  0.00000000000E+00  0.33105916098E+02  0.33105916098E+02  0.00000000000E+00 0. -1.
         21   -1    0    0  502  503 -0.00000000000E+00 -0.00000000000E+00 -0.17996598614E+04  0.17996598614E+04  0.00000000000E+00 0. -1.
         -6    2    1    2    0  503  0.98324706797E+02  0.15122549855E+02 -0.35006180044E+03  0.40236765058E+03  0.17163922228E+03 0.  0.
        -24    2    3    3    0    0 -0.11609484713E+02  0.12392189809E+01 -0.17609762735E+03  0.19605745486E+03  0.85392244667E+02 0.  0.
          6    2    1    2  501    0 -0.98324706797E+02 -0.15122549855E+02 -0.14164921449E+04  0.14303981270E+04  0.17231472820E+03 0.  0.
         24    2    5    5    0    0  0.89484446939E+01  0.24686169631E+02 -0.52675983246E+03  0.53332625638E+03  0.79192758618E+02 0.  0.
          5    1    5    5  501    0 -0.10727315149E+03 -0.39808719486E+02 -0.88973231245E+03  0.89707187059E+03  0.47000000000E+01 0. -1.
        -11    1    6    6    0    0 -0.28329628802E+01  0.22503565758E+02 -0.51796920003E+03  0.51846555173E+03  0.00000000000E+00 0.  1.
         12    1    6    6    0    0  0.11781407574E+02  0.21826038726E+01 -0.87906324219E+01  0.14860704642E+02  0.00000000000E+00 0. -1.
         -5    1    3    3    0  503  0.10993419151E+03  0.13883330875E+02 -0.17396417309E+03  0.20631019572E+03  0.47000000000E+01 0.  1.
         13    1    4    4    0    0  0.99803660207E+01  0.17125125688E+02 -0.16636353963E+03  0.16754015923E+03  0.00000000000E+00 0. -1.
        -14    1    4    4    0    0 -0.21589850733E+02 -0.15885906707E+02 -0.97340877225E+01  0.28517295636E+02  0.00000000000E+00 0.  1.
</event>
<event>
12    1  0.9966151E-001  0.1827526E+03  0.7818608E-02  0.1165275E+00
         21   -1    0    0  501  502  0.00000000000E+00  0.00000000000E+00  0.22878522113E+03  0.22878522113E+03  0.00000000000E+00 0.  1.
         21   -1    0    0  502  503 -0.00000000000E+00 -0.00000000000E+00 -0.14607862057E+03  0.14607862057E+03  0.00000000000E+00 0.  1.
         -6    2    1    2    0  503  0.54048447119E+02 -0.28332132645E+02  0.51872549188E+02  0.18952829148E+03  0.17177388491E+03 0.  0.
        -24    2    3    3    0    0 -0.30074903190E+01  0.53484258748E+02  0.27754527427E+02  0.86800150882E+02  0.62404659029E+02 0.  0.
          6    2    1    2  501    0 -0.54048447119E+02  0.28332132645E+02  0.30834051373E+02  0.18533555022E+03  0.17226312163E+03 0.  0.
         24    2    5    5    0    0 -0.50236003931E+02  0.26822318512E+02  0.85112435649E+02  0.13069996418E+03  0.81211212736E+02 0.  0.
          5    1    5    5  501    0 -0.38124431876E+01  0.15098141329E+01 -0.54278384276E+02  0.54635586035E+02  0.47000000000E+01 0. -1.
        -11    1    6    6    0    0  0.49285761580E+01 -0.18178270613E+02 -0.11318966734E+01  0.18868534005E+02  0.00000000000E+00 0.  1.
         12    1    6    6    0    0 -0.55164580089E+02  0.45000589125E+02  0.86244332322E+02  0.11183143018E+03  0.00000000000E+00 0. -1.
         -5    1    3    3    0  503  0.57055937438E+02 -0.81816391393E+02  0.24118021762E+02  0.10272814060E+03  0.47000000000E+01 0.  1.
         11    1    4    4    0    0 -0.12679845351E+02 -0.31243614731E+01  0.26287332060E+02  0.29352409434E+02  0.00000000000E+00 0. -1.
        -12    1    4    4    0    0  0.96723550316E+01  0.56608620221E+02  0.14671953666E+01  0.57447741448E+02  0.00000000000E+00 0.  1.
</event>
<event>
12    1  0.9966151E-001  0.2139390E+03  0.7818608E-02  0.1139287E+00
         21   -1    0    0  501  502  0.00000000000E+00  0.00000000000E+00  0.13974556835E+03  0.13974556835E+03  0.00000000000E+00 0.  1.
         21   -1    0    0  502  503 -0.00000000000E+00 -0.00000000000E+00 -0.37706374194E+03  0.37706374194E+03  0.00000000000E+00 0. -1.
         -6    2    1    2    0  503 -0.61826468546E+02 -0.10205198205E+03 -0.18268815824E+02  0.21061898570E+03  0.17259631587E+03 0.  0.
        -24    2    3    3    0    0 -0.87195877132E+02 -0.94321824645E+02 -0.57159036818E+02  0.16331252193E+03  0.83090894415E+02 0.  0.
          6    2    1    2  501    0  0.61826468546E+02  0.10205198205E+03 -0.21904935776E+03  0.30619032459E+03  0.17757470114E+03 0.  0.
         24    2    5    5    0    0  0.66578661186E+02  0.22063820771E+02 -0.19493464514E+03  0.22237923556E+03  0.80829933945E+02 0.  0.
          5    1    5    5  501    0 -0.47521926408E+01  0.79988161278E+02 -0.24114712619E+02  0.83811089029E+02  0.47000000000E+01 0. -1.
        -11    1    6    6    0    0  0.39074914405E+02 -0.28802334840E+02 -0.76874925559E+02  0.90918521808E+02  0.00000000000E+00 0.  1.
         12    1    6    6    0    0  0.27503746781E+02  0.50866155611E+02 -0.11805971958E+03  0.13146071376E+03  0.00000000000E+00 0. -1.
         -5    1    3    3    0  503  0.25369408586E+02 -0.77301574041E+01  0.38890220995E+02  0.47306463771E+02  0.47000000000E+01 0.  1.
         11    1    4    4    0    0 -0.62408606998E+02 -0.61618200855E+02 -0.77926624338E+02  0.11732090898E+03  0.00000000000E+00 0. -1.
        -12    1    4    4    0    0 -0.24787270134E+02 -0.32703623790E+02  0.20767587519E+02  0.45991612943E+02  0.00000000000E+00 0.  1.
</event>
<event>
12    1  0.9966151E-001  0.5327221E+03  0.7818608E-02  0.1005639E+00
         21   -1    0    0  503  502  0.00000000000E+00  0.00000000000E+00  0.43290391223E+03  0.43290391223E+03  0.00000000000E+00 0. -1.
         21   -1    0    0  501  503 -0.00000000000E+00 -0.00000000000E+00 -0.11490127987E+04  0.11490127987E+04  0.00000000000E+00 0. -1.
          6    2    1    2  501    0 -0.34999160012E+03  0.36309335752E+03  0.16118922844E+03  0.55554212824E+03  0.16826818607E+03 0.  0.
         24    2    3    3    0    0 -0.22918305090E+03  0.32254834767E+03  0.12910497860E+03  0.42405033199E+03  0.81168227555E+02 0.  0.
         -6    2    1    2    0  502  0.34999160012E+03 -0.36309335752E+03 -0.87729811488E+03  0.10263745827E+04  0.17164467701E+03 0.  0.
        -24    2    5    5    0    0  0.26952738358E+03 -0.30530548377E+03 -0.58186613021E+03  0.71474005945E+03  0.80179237812E+02 0.  0.
          5    1    3    3  501    0 -0.12080854923E+03  0.40545009858E+02  0.32084249843E+02  0.13149179624E+03  0.47000000000E+01 0. -1.
        -13    1    4    4    0    0 -0.89391646253E+02  0.72079555042E+02  0.17000567669E+02  0.11608336649E+03  0.00000000000E+00 0.  1.
         14    1    4    4    0    0 -0.13979140464E+03  0.25046879262E+03  0.11210441093E+03  0.30796696550E+03  0.00000000000E+00 0. -1.
         -5    1    5    5    0  502  0.80464216541E+02 -0.57787873756E+02 -0.29543198467E+03  0.31163452322E+03  0.47000000000E+01 0.  1.
         13    1    6    6    0    0  0.17725855128E+03 -0.25317567422E+03 -0.42921340331E+03  0.52890704438E+03  0.00000000000E+00 0. -1.
        -14    1    6    6    0    0  0.92268832301E+02 -0.52129809547E+02 -0.15265272690E+03  0.18583301507E+03  0.00000000000E+00 0.  1.
</event>
<event>
12    1  0.9966151E-001  0.1756164E+03  0.7818608E-02  0.1172440E+00
         21   -1    0    0  501  502  0.00000000000E+00  0.00000000000E+00  0.95515590690E+03  0.95515590690E+03  0.00000000000E+00 0.  1.
         21   -1    0    0  502  503 -0.00000000000E+00 -0.00000000000E+00 -0.33217096990E+02  0.33217096990E+02  0.00000000000E+00 0. -1.
         -6    2    1    2    0  503 -0.28329395371E+02 -0.16828838879E+02  0.37002892033E+03  0.40958821546E+03  0.17249736202E+03 0.  0.
        -24    2    3    3    0    0  0.22907426233E+02 -0.20648203308E+02  0.87477466766E+02  0.12236493412E+03  0.79810847845E+02 0.  0.
          6    2    1    2  501    0  0.28329395371E+02  0.16828838879E+02  0.55190988957E+03  0.57878478842E+03  0.17117692789E+03 0.  0.
         24    2    5    5    0    0 -0.67615277242E+01 -0.46994164057E+02  0.39460142276E+03  0.40536970166E+03  0.79750501337E+02 0.  0.
          5    1    5    5  501    0  0.35090923096E+02  0.63823002936E+02  0.15730846681E+03  0.17341508677E+03  0.47000000000E+01 0. -1.
        -13    1    6    6    0    0 -0.31602114029E+02 -0.23162880750E+02  0.82017240389E+02  0.90895766551E+02  0.00000000000E+00 0.  1.
         14    1    6    6    0    0  0.24840586305E+02 -0.23831283307E+02  0.31258418237E+03  0.31447393511E+03  0.00000000000E+00 0. -1.
         -5    1    3    3    0  503 -0.51236821604E+02  0.38193644285E+01  0.28255145357E+03  0.28722328134E+03  0.47000000000E+01 0.  1.
         11    1    4    4    0    0 -0.18704853497E+01 -0.46290803613E+02  0.31600131645E+02  0.56079457331E+02  0.00000000000E+00 0. -1.
        -12    1    4    4    0    0  0.24777911583E+02  0.25642600305E+02  0.55877335121E+02  0.66285476788E+02  0.00000000000E+00 0.  1.
</event>
<event>
12    1  0.9966151E-001  0.2808525E+03  0.7818608E-02  0.1095294E+00
         21   -1    0    0  503  502  0.00000000000E+00  0.00000000000E+00  0.69552641049E+03  0.69552641049E+03  0.00000000000E+00 0. -1.
         21   -1    0    0  501  503 -0.00000000000E+00 -0.00000000000E+00 -0.12783497957E+03  0.12783497957E+03  0.00000000000E+00 0. -1.
          6    2    1    2  501    0 -0.10150969086E+03 -0.19727585615E+03  0.42291024211E+03  0.50738718899E+03  0.17136716695E+03 0.  0.
         24    2    3    3    0    0 -0.25410166950E+02 -0.10925827055E+03  0.11598073390E+03  0.17910979725E+03  0.77754373309E+02 0.  0.
         -6    2    1    2    0  502  0.10150969086E+03  0.19727585615E+03  0.14478118881E+03  0.31597420107E+03  0.17220953037E+03 0.  0.
        -24    2    5    5    0    0  0.98911347890E+02  0.20467553864E+03  0.16626216332E+03  0.29262834591E+03  0.79452570859E+02 0.  0.
          5    1    3    3  501    0 -0.76099523911E+02 -0.88017585605E+02  0.30692950821E+03  0.32827739174E+03  0.47000000000E+01 0. -1.
        -11    1    4    4    0    0 -0.13375852795E+02 -0.51104559146E+02  0.47757667606E+01  0.53041468226E+02  0.00000000000E+00 0.  1.
         12    1    4    4    0    0 -0.12034314155E+02 -0.58153711401E+02  0.11120496714E+03  0.12606832903E+03  0.00000000000E+00 0. -1.
         -5    1    5    5    0  502  0.25983429705E+01 -0.73996824861E+01 -0.21480974517E+02  0.23345855163E+02  0.47000000000E+01 0.  1.
         11    1    6    6    0    0  0.38212609739E+02  0.14227120765E+03  0.70838833991E+02  0.16346082243E+03  0.00000000000E+00 0. -1.
        -12    1    6    6    0    0  0.60698738151E+02  0.62404330989E+02  0.95423329332E+02  0.12916752347E+03  0.00000000000E+00 0.  1.
</event>
<event>
12    1  0.9966151E-001  0.4838957E+03  0.7818608E-02  0.1018090E+00
         21   -1    0    0  501  502  0.00000000000E+00  0.00000000000E+00  0.33461499626E+03  0.33461499626E+03  0.00000000000E+00 0.  1.
         21   -1    0    0  502  503 -0.00000000000E+00 -0.00000000000E+00 -0.81619222136E+03  0.81619222136E+03  0.00000000000E+00 0.  1.
         -6    2    1    2    0  503 -0.11350896895E+03 -0.43789541413E+03 -0.23136890023E+02  0.48444851978E+03  0.17180911759E+03 0.  0.
        -24    2    3    3    0    0 -0.25899914356E+02 -0.30927616667E+03 -0.56072585838E+02  0.32530987795E+03  0.79748535898E+02 0.  0.
          6    2    1    2  501    0  0.11350896895E+03  0.43789541413E+03 -0.45844033508E+03  0.66635869784E+03  0.17096693720E+03 0.  0.
         24    2    5    5    0    0  0.10766406340E+03  0.18832558361E+03 -0.18540704953E+03  0.29637420054E+03  0.80023851073E+02 0.  0.
          5    1    5    5  501    0  0.58449055446E+01  0.24956983052E+03 -0.27303328554E+03  0.36998449730E+03  0.47000000000E+01 0. -1.
        -11    1    6    6    0    0  0.69014284257E+02  0.16190676626E+03 -0.10979156719E+03  0.20743905278E+03  0.00000000000E+00 0.  1.
         12    1    6    6    0    0  0.38649779145E+02  0.26418817355E+02 -0.75615482341E+02  0.88935147765E+02  0.00000000000E+00 0. -1.
         -5    1    3    3    0  503 -0.87609054591E+02 -0.12861924747E+03  0.32935695815E+02  0.15913864183E+03  0.47000000000E+01 0.  1.
         13    1    4    4    0    0 -0.46087470762E+02 -0.14623872010E+03 -0.48640596516E+02  0.16085933559E+03  0.00000000000E+00 0. -1.
        -14    1    4    4    0    0  0.20187556406E+02 -0.16303744657E+03 -0.74319893221E+01  0.16445054236E+03  0.00000000000E+00 0.  1.
</event>
<event>
12    1  0.9966151E-001  0.1880706E+03  0.7818608E-02  0.1160488E+00
         21   -1    0    0  503  502  0.00000000000E+00  0.00000000000E+00  0.66226759383E+03  0.66226759383E+03  0.00000000000E+00 0. -1.
         21   -1    0    0  501  503 -0.00000000000E+00 -0.00000000000E+00 -0.54051152865E+02  0.54051152865E+02  0.00000000000E+00 0. -1.
          6    2    1    2  501    0  0.74457165765E+02  0.29179924667E+01  0.25485706486E+03  0.31602711998E+03  0.17137278908E+03 0.  0.
         24    2    3    3    0    0  0.22093510507E+01 -0.48718739410E+02  0.99636518119E+02  0.13713719030E+03  0.80627392481E+02 0.  0.
         -6    2    1    2    0  502 -0.74457165765E+02 -0.29179924667E+01  0.35335937610E+03  0.40029162671E+03  0.17267933728E+03 0.  0.
        -24    2    5    5    0    0 -0.49943908008E+01 -0.57805400096E+02  0.18591236815E+03  0.21082317262E+03  0.80725418958E+02 0.  0.
          5    1    3    3  501    0  0.72247814714E+02  0.51636731877E+02  0.15522054675E+03  0.17888992968E+03  0.47000000000E+01 0. -1.
        -13    1    4    4    0    0  0.34099943291E+02  0.21753316610E+01  0.36121682336E+02  0.49722370570E+02  0.00000000000E+00 0.  1.
         14    1    4    4    0    0 -0.31890592241E+02 -0.50894071071E+02  0.63514835783E+02  0.87414819729E+02  0.00000000000E+00 0. -1.
         -5    1    5    5    0  502 -0.69462774964E+02  0.54887407629E+02  0.16744700795E+03  0.18946845409E+03  0.47000000000E+01 0.  1.
         13    1    6    6    0    0  0.19724077677E+02  0.90597824941E+01  0.17287022934E+02  0.27748154190E+02  0.00000000000E+00 0. -1.
        -14    1    6    6    0    0 -0.24718468477E+02 -0.66865182590E+02  0.16862534521E+03  0.18307501843E+03  0.00000000000E+00 0.  1.
</event>
<event>
12    1  0.9966151E-001  0.2606346E+03  0.7818608E-02  0.1106838E+00
         21   -1    0    0  501  502  0.00000000000E+00  0.00000000000E+00  0.10477342321E+04  0.10477342321E+04  0.00000000000E+00 0. -1.
         21   -1    0    0  502  503 -0.00000000000E+00 -0.00000000000E+00 -0.75596649668E+02  0.75596649668E+02  0.00000000000E+00 0. -1.
         -6    2    1    2    0  503  0.18431558278E+03  0.64239206524E+02  0.69961604604E+03  0.74658755786E+03  0.17271786232E+03 0.  0.
        -24    2    3    3    0    0  0.67940375067E+02 -0.16835260698E+02  0.19120507341E+03  0.21874282188E+03  0.79935733320E+02 0.  0.
          6    2    1    2  501    0 -0.18431558278E+03 -0.64239206524E+02  0.27252153639E+03  0.37674332390E+03  0.17195532734E+03 0.  0.
         24    2    5    5    0    0 -0.12674883128E+03  0.22215655012E+02  0.12486792942E+03  0.19615525228E+03  0.79536668534E+02 0.  0.
          5    1    5    5  501    0 -0.57566751502E+02 -0.86454861536E+02  0.14765360697E+03  0.18058807162E+03  0.47000000000E+01 0. -1.
        -13    1    6    6    0    0 -0.18422128275E+02 -0.25507783273E+02  0.15858070833E+02  0.35234929094E+02  0.00000000000E+00 0.  1.
         14    1    6    6    0    0 -0.10832670300E+03  0.47723438285E+02  0.10900985859E+03  0.16092032319E+03  0.00000000000E+00 0. -1.
         -5    1    3    3    0  503  0.11637520771E+03  0.81074467222E+02  0.50841097263E+03  0.52784473598E+03  0.47000000000E+01 0.  1.
         13    1    4    4    0    0 -0.45700148116E+01  0.14563634159E+02  0.85044541275E+02  0.86403463333E+02  0.00000000000E+00 0. -1.
        -14    1    4    4    0    0  0.72510389879E+02 -0.31398894857E+02  0.10616053213E+03  0.13233935855E+03  0.00000000000E+00 0.  1.
</event>
<event>
12    1  0.9966151E-001  0.1823278E+03  0.7818608E-02  0.1166119E+00
         21   -1    0    0  503  502  0.00000000000E+00  0.00000000000E+00  0.10313299475E+03  0.10313299475E+03  0.00000000000E+00 0. -1.
         21   -1    0    0  501  503 -0.00000000000E+00 -0.00000000000E+00 -0.45851740675E+03  0.45851740675E+03  0.00000000000E+00 0. -1.
          6    2    1    2  501    0  0.50138254602E+02 -0.29659351354E+02 -0.33221120606E+03  0.37785593237E+03  0.17034464623E+03 0.  0.
         24    2    3    3    0    0  0.99000697510E+02 -0.15932666190E+02 -0.21662989271E+03  0.25153455568E+03  0.79285145699E+02 0.  0.
         -6    2    1    2    0  502 -0.50138254602E+02  0.29659351354E+02 -0.23173205934E+02  0.18379446912E+03  0.17277120046E+03 0.  0.
        -24    2    5    5    0    0 -0.34093326056E+02  0.64353732112E+02 -0.65749484537E+02  0.12638393622E+03  0.79662707081E+02 0.  0.
          5    1    3    3  501    0 -0.48862442908E+02 -0.13726685165E+02 -0.11558131335E+03  0.12632137669E+03  0.47000000000E+01 0. -1.
        -13    1    4    4    0    0  0.39572982983E+02  0.24892776558E+02 -0.13373570568E+03  0.14167184011E+03  0.00000000000E+00 0.  1.
         14    1    4    4    0    0  0.59427714528E+02 -0.40825442748E+02 -0.82894187025E+02  0.10986271557E+03  0.00000000000E+00 0. -1.
         -5    1    5    5    0  502 -0.16044928546E+02 -0.34694380757E+02  0.42576278603E+02  0.57410532900E+02  0.47000000000E+01 0.  1.
         11    1    6    6    0    0 -0.54141458284E+02  0.55610938627E+02 -0.27535117076E+02  0.82353243243E+02  0.00000000000E+00 0. -1.
        -12    1    6    6    0    0  0.20048132228E+02  0.87427934844E+01 -0.38214367461E+02  0.44030692979E+02  0.00000000000E+00 0.  1.
</event>
<event>
12    1  0.9966151E-001  0.1836530E+03  0.7818608E-02  0.1164498E+00
         21   -1    0    0  501  502  0.00000000000E+00  0.00000000000E+00  0.17093921463E+04  0.17093921463E+04  0.00000000000E+00 0. -1.
         21   -1    0    0  502  503 -0.00000000000E+00 -0.00000000000E+00 -0.50264749092E+02  0.50264749092E+02  0.00000000000E+00 0. -1.
         -6    2    1    2    0  503  0.32049056078E+00 -0.65993273579E+02  0.15155445634E+04  0.15265379446E+04  0.17055074875E+03 0.  0.
        -24    2    3    3    0    0  0.96721170407E+01  0.19364978742E+02  0.10352226772E+04  0.10385782245E+04  0.80561682433E+02 0.  0.
          6    2    1    2  501    0 -0.32049056078E+00  0.65993273579E+02  0.14358283381E+03  0.23311895075E+03  0.17138611427E+03 0.  0.
         24    2    5    5    0    0 -0.56311268806E+01  0.92658066703E+02  0.15986542068E+03  0.20108105622E+03  0.79116442832E+02 0.  0.
          5    1    5    5  501    0  0.53106363198E+01 -0.26664793125E+02 -0.16282586877E+02  0.32037894530E+02  0.47000000000E+01 0. -1.
        -11    1    6    6    0    0 -0.29070959804E+02  0.60103640758E+02  0.47967298736E+02  0.82209671477E+02  0.00000000000E+00 0.  1.
         12    1    6    6    0    0  0.23439832923E+02  0.32554425945E+02  0.11189812195E+03  0.11887138475E+03  0.00000000000E+00 0. -1.
         -5    1    3    3    0  503 -0.93516264800E+01 -0.85358252320E+02  0.48032188616E+03  0.48795972014E+03  0.47000000000E+01 0.  1.
         11    1    4    4    0    0  0.29138472875E+02 -0.54578949594E+01  0.86180753398E+03  0.86231726461E+03  0.00000000000E+00 0. -1.
        -12    1    4    4    0    0 -0.19466355834E+02  0.24822873701E+02  0.17341514323E+03  0.17626095986E+03  0.00000000000E+00 0.  1.
</event>
<event>
12    1  0.9966151E-001  0.2768568E+03  0.7818608E-02  0.1097545E+00
         21   -1    0    0  503  502  0.00000000000E+00  0.00000000000E+00  0.69506988419E+02  0.69506988419E+02  0.00000000000E+00 0. -1.
         21   -1    0    0  501  503 -0.00000000000E+00 -0.00000000000E+00 -0.12522923665E+04  0.12522923665E+04  0.00000000000E+00 0. -1.
          6    2    1    2  501    0 -0.15899769214E+03  0.14573497755E+03 -0.36112010466E+03  0.45503564709E+03  0.17358214292E+03 0.  0.
         24    2    3    3    0    0 -0.12771562139E+03  0.17509738482E+03 -0.28580549872E+03  0.36823070034E+03  0.83298808252E+02 0.  0.
         -6    2    1    2    0  502  0.15899769214E+03 -0.14573497755E+03 -0.82166527337E+03  0.86676370778E+03  0.17212365869E+03 0.  0.
        -24    2    5    5    0    0  0.17530758516E+03 -0.16214786931E+03 -0.75814252207E+03  0.79899479485E+03  0.81165987357E+02 0.  0.
          5    1    3    3  501    0 -0.31282070754E+02 -0.29362407273E+02 -0.75314605945E+02  0.86804946749E+02  0.47000000000E+01 0. -1.
        -13    1    4    4    0    0 -0.56385194049E+02  0.13472519367E+03 -0.21503178093E+03  0.25994005988E+03  0.00000000000E+00 0.  1.
         14    1    4    4    0    0 -0.71330427336E+02  0.40372191150E+02 -0.70773717790E+02  0.10829064046E+03  0.00000000000E+00 0. -1.
         -5    1    5    5    0  502 -0.16309893022E+02  0.16412891759E+02 -0.63522751304E+02  0.67768912928E+02  0.47000000000E+01 0.  1.
         11    1    6    6    0    0  0.29001015280E+02  0.29814581408E+01 -0.13018245416E+03  0.13340696890E+03  0.00000000000E+00 0. -1.
        -12    1    6    6    0    0  0.14630656988E+03 -0.16512932745E+03 -0.62796006790E+03  0.66558782595E+03  0.00000000000E+00 0.  1.
</event>
<event>
12    1  0.9966151E-001  0.1926870E+03  0.7818608E-02  0.1157278E+00
         21   -1    0    0  503  502  0.00000000000E+00  0.00000000000E+00  0.23492315209E+03  0.23492315209E+03  0.00000000000E+00 0.  1.
         21   -1    0    0  501  503 -0.00000000000E+00 -0.00000000000E+00 -0.22959833525E+03  0.22959833525E+03  0.00000000000E+00 0.  1.
          6    2    1    2  501    0  0.59550911581E+02  0.62169521983E+02 -0.13095403822E+03  0.22851260333E+03  0.16630601078E+03 0.  0.
         24    2    3    3    0    0  0.43840884728E+02 -0.28438092749E+02 -0.67062068319E+02  0.11643754541E+03  0.79558988687E+02 0.  0.
         -6    2    1    2    0  502 -0.59550911581E+02 -0.62169521983E+02  0.13627885506E+03  0.23600888401E+03  0.17238592303E+03 0.  0.
        -24    2    5    5    0    0 -0.86992713965E+01  0.30566099145E+02  0.74080094749E+02  0.11322223767E+03  0.79507552623E+02 0.  0.
          5    1    3    3  501    0  0.15710026853E+02  0.90607614732E+02 -0.63891969897E+02  0.11207505792E+03  0.47000000000E+01 0. -1.
        -11    1    4    4    0    0 -0.15455439344E+02  0.81006755239E+01 -0.36340808173E+02  0.40313098218E+02  0.00000000000E+00 0.  1.
         12    1    4    4    0    0  0.59296324072E+02 -0.36538768273E+02 -0.30721260146E+02  0.76124447192E+02  0.00000000000E+00 0. -1.
         -5    1    5    5    0  502 -0.50851640184E+02 -0.92735621128E+02  0.62198760311E+02  0.12278664634E+03  0.47000000000E+01 0.  1.
         11    1    6    6    0    0 -0.33283214556E+02 -0.12460869550E+02  0.24813777474E+02  0.43344771238E+02  0.00000000000E+00 0. -1.
        -12    1    6    6    0    0  0.24583943160E+02  0.43026968695E+02  0.49266317275E+02  0.69877466427E+02  0.00000000000E+00 0.  1.
</event>
<event>
12    1  0.9966151E-001  0.2544975E+03  0.7818608E-02  0.1110533E+00
         21   -1    0    0  501  502  0.00000000000E+00  0.00000000000E+00  0.27379607140E+03  0.27379607140E+03  0.00000000000E+00 0.  1.
         21   -1    0    0  502  503 -0.00000000000E+00 -0.00000000000E+00 -0.30976847678E+03  0.30976847678E+03  0.00000000000E+00 0. -1.
         -6    2    1    2    0  503 -0.85035068825E+02  0.16718702392E+03  0.12409238532E+03  0.28291569756E+03  0.17163888817E+03 0.  0.
        -24    2    3    3    0    0 -0.10598233987E+02  0.14801296555E+03  0.49406241439E+02  0.17563756846E+03  0.79921325226E+02 0.  0.
          6    2    1    2  501    0  0.85035068825E+02 -0.16718702392E+03 -0.16006479071E+03  0.30064885061E+03  0.17200735522E+03 0.  0.
         24    2    5    5    0    0  0.73909224599E+02 -0.10715749413E+03 -0.18023303066E+03  0.23618043385E+03  0.79699121473E+02 0.  0.
          5    1    5    5  501    0  0.11125844226E+02 -0.60029529798E+02  0.20168239951E+02  0.64468416766E+02  0.47000000000E+01 0. -1.
        -13    1    6    6    0    0  0.88498305791E+02 -0.90031285019E+02 -0.13037046570E+03  0.18147738354E+03  0.00000000000E+00 0.  1.
         14    1    6    6    0    0 -0.14589081192E+02 -0.17126209107E+02 -0.49862564962E+02  0.54703050308E+02  0.00000000000E+00 0. -1.
         -5    1    3    3    0  503 -0.74436834838E+02  0.19174058370E+02  0.74686143886E+02  0.10727812910E+03  0.47000000000E+01 0.  1.
         11    1    4    4    0    0 -0.45382534341E+02  0.83845264397E+02  0.23561733660E+02  0.98207729217E+02  0.00000000000E+00 0. -1.
        -12    1    4    4    0    0  0.34784300354E+02  0.64167701158E+02  0.25844507779E+02  0.77429839244E+02  0.00000000000E+00 0.  1.
</event>
<event>
12    1  0.9966151E-001  0.2138850E+03  0.7818608E-02  0.1139133E+00
         21   -1    0    0  501  502  0.00000000000E+00  0.00000000000E+00  0.59831937473E+03  0.59831937473E+03  0.00000000000E+00 0. -1.
         21   -1    0    0  502  503 -0.00000000000E+00 -0.00000000000E+00 -0.76957966048E+02  0.76957966048E+02  0.00000000000E+00 0. -1.
         -6    2    1    2    0  503 -0.21409648130E+02 -0.13372015109E+03  0.20998201188E+03  0.29751560976E+03  0.16150430613E+03 0.  0.
        -24    2    3    3    0    0  0.15376664137E+02 -0.11187818149E+03  0.21283951162E+03  0.25438140395E+03  0.81584751486E+02 0.  0.
          6    2    1    2  501    0  0.21409648130E+02  0.13372015109E+03  0.31137939681E+03  0.37776173102E+03  0.16555163795E+03 0.  0.
         24    2    5    5    0    0 -0.17020402466E+02  0.42760072734E+02  0.23480704057E+03  0.25271765725E+03  0.81324965836E+02 0.  0.
          5    1    5    5  501    0  0.38430050596E+02  0.90960078360E+02  0.76572356243E+02  0.12504407377E+03  0.47000000000E+01 0. -1.
        -13    1    6    6    0    0 -0.27895945067E+02  0.13332503878E+02  0.22835344521E+02  0.38436862128E+02  0.00000000000E+00 0.  1.
         14    1    6    6    0    0  0.10875542601E+02  0.29427568856E+02  0.21197169604E+03  0.21428079513E+03  0.00000000000E+00 0. -1.
         -5    1    3    3    0  503 -0.36786312267E+02 -0.21841969600E+02 -0.28574997396E+01  0.43134205811E+02  0.47000000000E+01 0.  1.
         11    1    4    4    0    0 -0.74297523506E+01 -0.12469546164E+02 -0.37394508922E+01  0.14989139218E+02  0.00000000000E+00 0. -1.
        -12    1    4    4    0    0  0.22806416488E+02 -0.99408635331E+02  0.21657896251E+03  0.23939226473E+03  0.00000000000E+00 0.  1.
</event>
<event>
12    1  0.9966151E-001  0.2348610E+03  0.7818608E-02  0.1123350E+00
         21   -1    0    0  501  502  0.00000000000E+00  0.00000000000E+00  0.68892237092E+03  0.68892237092E+03  0.00000000000E+00 0.  1.
         21   -1    0    0  502  503 -0.00000000000E+00 -0.00000000000E+00 -0.80265798139E+02  0.80265798139E+02  0.00000000000E+00 0.  1.
         -6    2    1    2    0  503  0.16367906373E+02 -0.15785046105E+03  0.27854550128E+03  0.36434504071E+03  0.17313300090E+03 0.  0.
        -24    2    3    3    0    0 -0.20090549010E+02 -0.13944190572E+03  0.12061433775E+03  0.20115056687E+03  0.77884894900E+02 0.  0.
          6    2    1    2  501    0 -0.16367906373E+02  0.15785046105E+03  0.33011107151E+03  0.40484312835E+03  0.17245278376E+03 0.  0.
         24    2    5    5    0    0 -0.42284597347E+02  0.17446750287E+03  0.24072785945E+03  0.31018981595E+03  0.77723374058E+02 0.  0.
          5    1    5    5  501    0  0.25916690974E+02 -0.16617041822E+02  0.89383212063E+02  0.94653312402E+02  0.47000000000E+01 0. -1.
        -11    1    6    6    0    0  0.20937903560E+02  0.23229390596E+02  0.46459862850E+02  0.56004635959E+02  0.00000000000E+00 0.  1.
         12    1    6    6    0    0 -0.63222500907E+02  0.15123811227E+03  0.19426799660E+03  0.25418517999E+03  0.00000000000E+00 0. -1.
         -5    1    3    3    0  503  0.36458455384E+02 -0.18408555330E+02  0.15793116353E+03  0.16319447384E+03  0.47000000000E+01 0.  1.
         11    1    4    4    0    0 -0.21327795099E+02 -0.20302406622E+02  0.61412444646E+02  0.68106907989E+02  0.00000000000E+00 0. -1.
        -12    1    4    4    0    0  0.12372460883E+01 -0.11913949909E+03  0.59201893099E+02  0.13304365888E+03  0.00000000000E+00 0.  1.
</event>
<event>
12    1  0.9966151E-001  0.1728425E+03  0.7818608E-02  0.1175044E+00
         21   -1    0    0  503  502  0.00000000000E+00  0.00000000000E+00  0.68546736231E+02  0.68546736231E+02  0.00000000000E+00 0. -1.
         21   -1    0    0  501  503 -0.00000000000E+00 -0.00000000000E+00 -0.45893769802E+03  0.45893769802E+03  0.00000000000E+00 0. -1.
          6    2    1    2  501    0  0.24536656784E+01 -0.65007515059E+01 -0.13414883033E+03  0.21839778478E+03  0.17220163608E+03 0.  0.
         24    2    3    3    0    0 -0.65233416034E+02  0.35281451792E+01 -0.42348112044E+02  0.10380467120E+03  0.68660037826E+02 0.  0.
         -6    2    1    2    0  502 -0.24536656784E+01  0.65007515059E+01 -0.25624213145E+03  0.30908664947E+03  0.17270276983E+03 0.  0.
        -24    2    5    5    0    0 -0.26162441794E+02  0.62210566313E+02 -0.20315299746E+03  0.22842540922E+03  0.79701940247E+02 0.  0.
          5    1    3    3  501    0  0.67687081713E+02 -0.10028896685E+02 -0.91800718289E+02  0.11459311357E+03  0.47000000000E+01 0. -1.
        -13    1    4    4    0    0 -0.20725155671E+01 -0.24532122171E+02 -0.18114936449E+02  0.30565851232E+02  0.00000000000E+00 0.  1.
         14    1    4    4    0    0 -0.63160900467E+02  0.28060267350E+02 -0.24233175595E+02  0.73238819973E+02  0.00000000000E+00 0. -1.
         -5    1    5    5    0  502  0.23708776115E+02 -0.55709814808E+02 -0.53089133991E+02  0.80661240250E+02  0.47000000000E+01 0.  1.
         13    1    6    6    0    0  0.13233138367E+02  0.16063297285E+01 -0.10856410083E+03  0.10937943241E+03  0.00000000000E+00 0. -1.
        -14    1    6    6    0    0 -0.39395580161E+02  0.60604236585E+02 -0.94588896632E+02  0.11904597681E+03  0.00000000000E+00 0.  1.
</event>
<event>
12    1  0.9966151E-001  0.3026428E+03  0.7818608E-02  0.1083937E+00
         21   -1    0    0  503  502  0.00000000000E+00  0.00000000000E+00  0.17478652048E+04  0.17478652048E+04  0.00000000000E+00 0.  1.
         21   -1    0    0  501  503 -0.00000000000E+00 -0.00000000000E+00 -0.15980217205E+03  0.15980217205E+03  0.00000000000E+00 0. -1.
          6    2    1    2  501    0 -0.19854123865E+02  0.24836782824E+03  0.15760781424E+04  0.16048722656E+04  0.17179031859E+03 0.  0.
         24    2    3    3    0    0  0.40543869595E+02  0.21387049819E+03  0.12614688089E+04  0.12826315076E+04  0.80346954239E+02 0.  0.
         -6    2    1    2    0  502  0.19854123865E+02 -0.24836782824E+03  0.11984890413E+02  0.30279511133E+03  0.17164054739E+03 0.  0.
        -24    2    5    5    0    0 -0.25055926239E+01 -0.23796234905E+03 -0.30695065211E+02  0.25327845221E+03  0.81089023704E+02 0.  0.
          5    1    3    3  501    0 -0.60397993460E+02  0.34497330045E+02  0.31460933343E+03  0.32224075794E+03  0.47000000000E+01 0. -1.
        -13    1    4    4    0    0  0.52708597219E+02  0.71063263032E+02  0.45386867606E+03  0.46241210915E+03  0.00000000000E+00 0.  1.
         14    1    4    4    0    0 -0.12164727624E+02  0.14280723516E+03  0.80760013287E+03  0.82021939847E+03  0.00000000000E+00 0. -1.
         -5    1    5    5    0  502  0.22359716489E+02 -0.10405479190E+02  0.42679955624E+02  0.49516659123E+02  0.47000000000E+01 0. -1.
         13    1    6    6    0    0 -0.93628950990E+01 -0.13399591407E+03 -0.56843226230E+02  0.14585513758E+03  0.00000000000E+00 0. -1.
        -14    1    6    6    0    0  0.68573024751E+01 -0.10396643498E+03  0.26148161020E+02  0.10742331463E+03  0.00000000000E+00 0.  1.
</event>
<event>
12    1  0.9966151E-001  0.2152204E+03  0.7818608E-02  0.1137526E+00
         21   -1    0    0  503  502  0.00000000000E+00  0.00000000000E+00  0.14759206832E+03  0.14759206832E+03  0.00000000000E+00 0. -1.
         21   -1    0    0  501  503 -0.00000000000E+00 -0.00000000000E+00 -0.43380068092E+03  0.43380068092E+03  0.00000000000E+00 0. -1.
          6    2    1    2  501    0 -0.12513983449E+03 -0.34857022095E+02 -0.29607494442E+03  0.36594631660E+03  0.17140987064E+03 0.  0.
         24    2    3    3    0    0 -0.45170860228E+00 -0.37053230553E+02 -0.10038842110E+03  0.13385310800E+03  0.80409411730E+02 0.  0.
         -6    2    1    2    0  502  0.12513983449E+03  0.34857022095E+02  0.98663318255E+01  0.21544643264E+03  0.17159496108E+03 0.  0.
        -24    2    5    5    0    0  0.12242760518E+03  0.40192779076E+02  0.56722289351E+02  0.16797647113E+03  0.91622588603E+02 0.  0.
          5    1    3    3  501    0 -0.12468812588E+03  0.21962084585E+01 -0.19568652333E+03  0.23209320860E+03  0.47000000000E+01 0. -1.
        -13    1    4    4    0    0  0.14403071226E+02  0.20674577234E+02 -0.49221717416E+02  0.55296148780E+02  0.00000000000E+00 0.  1.
         14    1    4    4    0    0 -0.14854779828E+02 -0.57727807787E+02 -0.51166703681E+02  0.78556959216E+02  0.00000000000E+00 0. -1.
         -5    1    5    5    0  502  0.27122293013E+01 -0.53357569818E+01 -0.46855957526E+02  0.47469961513E+02  0.47000000000E+01 0.  1.
         11    1    6    6    0    0  0.47154621215E+01  0.18765511251E+02 -0.18400411567E+02  0.26701219848E+02  0.00000000000E+00 0. -1.
        -12    1    6    6    0    0  0.11771214306E+03  0.21427267826E+02  0.75122700919E+02  0.14127525128E+03  0.00000000000E+00 0.  1.
</event>
<event>
12    1  0.9966151E-001  0.2187374E+03  0.7818608E-02  0.1136680E+00
         21   -1    0    0  501  502  0.00000000000E+00  0.00000000000E+00  0.15105228586E+02  0.15105228586E+02  0.00000000000E+00 0.  1.
         21   -1    0    0  502  503 -0.00000000000E+00 -0.00000000000E+00 -0.30307715486E+04  0.30307715486E+04  0.00000000000E+00 0.  1.
         -6    2    1    2    0  503  0.24095970433E+02  0.11581130846E+03 -0.15039364627E+04  0.15184039600E+04  0.17243209350E+03 0.  0.
        -24    2    3    3    0    0  0.31535960199E+02  0.14788428521E+03 -0.11180866748E+04  0.11311234698E+04  0.80363006752E+02 0.  0.
          6    2    1    2  501    0 -0.24095970433E+02 -0.11581130846E+03 -0.15117298573E+04  0.15274728172E+04  0.18399231199E+03 0.  0.
         24    2    5    5    0    0 -0.19212690594E+02 -0.14664219435E+03 -0.94585952634E+03  0.96072268583E+03  0.80403823633E+02 0.  0.
          5    1    5    5  501    0 -0.48832798395E+01  0.30830885893E+02 -0.56587033098E+03  0.56675013139E+03  0.47000000000E+01 0. -1.
        -13    1    6    6    0    0 -0.18183190891E+02 -0.28260758334E+02 -0.79482393417E+02  0.86294552296E+02  0.00000000000E+00 0.  1.
         14    1    6    6    0    0 -0.10294997023E+01 -0.11838143602E+03 -0.86637713293E+03  0.87442813354E+03  0.00000000000E+00 0. -1.
         -5    1    3    3    0  503 -0.74399897659E+01 -0.32072976758E+02 -0.38584978790E+03  0.38728049022E+03  0.47000000000E+01 0.  1.
         13    1    4    4    0    0 -0.20482232102E+02  0.14621230702E+02 -0.10428830851E+03  0.10728165505E+03  0.00000000000E+00 0. -1.
        -14    1    4    4    0    0  0.52018192301E+02  0.13326305451E+03 -0.10137983663E+04  0.10238418147E+04  0.00000000000E+00 0.  1.
</event>
<event>
12    1  0.9969350E-001  0.2085421E+03  0.7818608E-02  0.1143221E+00
         21   -1    0    0  501  502  0.00000000000E+00  0.00000000000E+00  0.36069419918E+03  0.36069419918E+03  0.00000000000E+00 0. -1.
         21   -1    0    0  502  503 -0.00000000000E+00 -0.00000000000E+00 -0.30654564261E+03  0.30654564261E+03  0.00000000000E+00 0.  1.
         -6    2    1    2    0  503  0.10532525127E+03  0.51796155674E+02  0.28798033835E+03  0.35555938038E+03  0.17237617991E+03 0.  0.
        -24    2    3    3    0    0  0.48994433808E+02  0.93023224023E+02  0.22828160945E+03  0.26358731727E+03  0.79448133135E+02 0.  0.
          6    2    1    2  501    0 -0.10532525127E+03 -0.51796155674E+02 -0.23383178179E+03  0.31168046141E+03  0.16938464379E+03 0.  0.
         24    2    5    5    0    0 -0.24897555063E+01 -0.22056376958E+02 -0.16435180157E+03  0.18397317392E+03  0.79636244234E+02 0.  0.
          5    1    5    5  501    0 -0.10283549576E+03 -0.29739778716E+02 -0.69479980219E+02  0.12770728749E+03  0.47000000000E+01 0. -1.
        -11    1    6    6    0    0  0.68308858598E+01  0.53526204641E+01  0.64010160201E+01  0.10783531590E+02  0.00000000000E+00 0.  1.
         12    1    6    6    0    0 -0.93206413661E+01 -0.27408997422E+02 -0.17075281759E+03  0.17318964233E+03  0.00000000000E+00 0. -1.
         -5    1    3    3    0  503  0.56330817463E+02 -0.41227068348E+02  0.59698728897E+02  0.91972063109E+02  0.47000000000E+01 0.  1.
         11    1    4    4    0    0  0.62150980204E+02  0.48887087663E+02  0.10127757067E+03  0.12849061445E+03  0.00000000000E+00 0. -1.
        -12    1    4    4    0    0 -0.13156546396E+02  0.44136136360E+02  0.12700403878E+03  0.13509670282E+03  0.00000000000E+00 0.  1.
</event>
<event>
12    1  0.9966151E-001  0.2160807E+03  0.7818608E-02  0.1137361E+00
         21   -1    0    0  503  502  0.00000000000E+00  0.00000000000E+00  0.15515700686E+03  0.15515700686E+03  0.00000000000E+00 0.  1.
         21   -1    0    0  501  503 -0.00000000000E+00 -0.00000000000E+00 -0.29724568757E+03  0.29724568757E+03  0.00000000000E+00 0.  1.
          6    2    1    2  501    0  0.12699440238E+03  0.22815882309E+02 -0.67487563454E+02  0.22637455401E+03  0.17332837263E+03 0.  0.
         24    2    3    3    0    0  0.11866764681E+03  0.67770773011E+02 -0.19365630895E+02  0.15983067788E+03  0.80597331587E+02 0.  0.
         -6    2    1    2    0  502 -0.12699440238E+03 -0.22815882309E+02 -0.74601117257E+02  0.22602814042E+03  0.16992719277E+03 0.  0.
        -24    2    5    5    0    0 -0.65650556886E+02 -0.42126335038E+02 -0.10665756443E+03  0.15401656656E+03  0.79124225122E+02 0.  0.
          5    1    3    3  501    0  0.83267555695E+01 -0.44954890701E+02 -0.48121932558E+02  0.66543876123E+02  0.47000000000E+01 0. -1.
        -13    1    4    4    0    0  0.96676544569E+02  0.84377826784E+02 -0.42279696874E+01  0.12838943746E+03  0.00000000000E+00 0.  1.
         14    1    4    4    0    0  0.21991102241E+02 -0.16607053773E+02 -0.15137661208E+02  0.31441240428E+02  0.00000000000E+00 0. -1.
         -5    1    5    5    0  502 -0.61343845493E+02  0.19310452729E+02  0.32056447171E+02  0.72011573859E+02  0.47000000000E+01 0.  1.
         11    1    6    6    0    0 -0.34420546299E+02 -0.54175769270E+02 -0.30989561450E+02  0.71275107172E+02  0.00000000000E+00 0. -1.
        -12    1    6    6    0    0 -0.31230010587E+02  0.12049434231E+02 -0.75668002978E+02  0.82741459386E+02  0.00000000000E+00 0.  1.
</event>
<event>
12    1  0.9966151E-001  0.1833662E+03  0.7818608E-02  0.1164913E+00
         21   -1    0    0  501  502  0.00000000000E+00  0.00000000000E+00  0.79774558846E+03  0.79774558846E+03  0.00000000000E+00 0. -1.
         21   -1    0    0  502  503 -0.00000000000E+00 -0.00000000000E+00 -0.79171979231E+02  0.79171979231E+02  0.00000000000E+00 0. -1.
         -6    2    1    2    0  503 -0.53806993318E+02 -0.29529326437E+02  0.57446350242E+02  0.19083270913E+03  0.17131802610E+03 0.  0.
        -24    2    3    3    0    0 -0.15916885926E+02 -0.58776302374E+02 -0.21364825521E+02  0.98505371550E+02  0.74423460524E+02 0.  0.
          6    2    1    2  501    0  0.53806993318E+02  0.29529326437E+02  0.66112725899E+03  0.68608485856E+03  0.17278890856E+03 0.  0.
         24    2    5    5    0    0  0.77507459876E+02  0.34445004435E+02  0.26879152387E+03  0.29297508374E+03  0.79947806249E+02 0.  0.
          5    1    5    5  501    0 -0.23700466558E+02 -0.49156779975E+01  0.39233573512E+03  0.39310977482E+03  0.47000000000E+01 0. -1.
        -13    1    6    6    0    0  0.72453413887E+02  0.11831381895E+02  0.10840955097E+03  0.13092787909E+03  0.00000000000E+00 0.  1.
         14    1    6    6    0    0  0.50540459890E+01  0.22613622540E+02  0.16038197290E+03  0.16204720465E+03  0.00000000000E+00 0. -1.
         -5    1    3    3    0  503 -0.37890107392E+02  0.29246975936E+02  0.78811175763E+02  0.92327337581E+02  0.47000000000E+01 0.  1.
         11    1    4    4    0    0  0.24433135684E+02 -0.30694255862E+01  0.44721228296E+01  0.25027971859E+02  0.00000000000E+00 0. -1.
        -12    1    4    4    0    0 -0.40350021610E+02 -0.55706876787E+02 -0.25836948351E+02  0.73477399691E+02  0.00000000000E+00 0.  1.
</event>
<event>
12    1  0.9966151E-001  0.2244984E+03  0.7818608E-02  0.1130948E+00
         21   -1    0    0  503  502  0.00000000000E+00  0.00000000000E+00  0.31123725791E+03  0.31123725791E+03  0.00000000000E+00 0. -1.
         21   -1    0    0  501  503 -0.00000000000E+00 -0.00000000000E+00 -0.26294219336E+03  0.26294219336E+03  0.00000000000E+00 0. -1.
          6    2    1    2  501    0 -0.91268189212E+02  0.10977260222E+03 -0.15515398077E+03  0.27120910713E+03  0.17059224919E+03 0.  0.
         24    2    3    3    0    0 -0.36992525883E+02  0.81233668184E+02 -0.18305550021E+02  0.12117610615E+03  0.79882411845E+02 0.  0.
         -6    2    1    2    0  502  0.91268189212E+02 -0.10977260222E+03  0.20344904533E+03  0.30297034414E+03  0.17326167731E+03 0.  0.
        -24    2    5    5    0    0  0.58400765186E+02 -0.54861516580E+02  0.20978033678E+03  0.23849034616E+03  0.80308281856E+02 0.  0.
          5    1    3    3  501    0 -0.54275663329E+02  0.28538934035E+02 -0.13684843075E+03  0.15003300098E+03  0.47000000000E+01 0. -1.
        -13    1    4    4    0    0 -0.42678246372E+02  0.27296249810E+02  0.20327836632E+02  0.54586984797E+02  0.00000000000E+00 0.  1.
         14    1    4    4    0    0  0.56857204885E+01  0.53937418374E+02 -0.38633386653E+02  0.66589121353E+02  0.00000000000E+00 0. -1.
         -5    1    5    5    0  502  0.32867424026E+02 -0.54911085640E+02 -0.63312914556E+01  0.64479997982E+02  0.47000000000E+01 0.  1.
         13    1    6    6    0    0  0.31482595010E+02 -0.65862315545E+02  0.18939754845E+03  0.20297888992E+03  0.00000000000E+00 0. -1.
        -14    1    6    6    0    0  0.26918170176E+02  0.11000798966E+02  0.20382788336E+02  0.35511456234E+02  0.00000000000E+00 0.  1.
</event>
<event>
12    1  0.9966151E-001  0.1800426E+03  0.7818608E-02  0.1171519E+00
         21   -1    0    0  501  502  0.00000000000E+00  0.00000000000E+00  0.14835833280E+03  0.14835833280E+03  0.00000000000E+00 0.  1.
         21   -1    0    0  502  503 -0.00000000000E+00 -0.00000000000E+00 -0.20190077357E+03  0.20190077357E+03  0.00000000000E+00 0.  1.
         -6    2    1    2    0  503 -0.20658013963E+02 -0.46946315597E+02 -0.13055370941E+02  0.16572033857E+03  0.15704164358E+03 0.  0.
        -24    2    3    3    0    0 -0.34978004440E+02 -0.23481286834E+02 -0.62083549793E+02  0.10931535632E+03  0.79502505278E+02 0.  0.
          6    2    1    2  501    0  0.20658013963E+02  0.46946315597E+02 -0.40487069829E+02  0.18453876780E+03  0.17258228156E+03 0.  0.
         24    2    5    5    0    0 -0.36775051019E+01 -0.32825803590E+02  0.39667180459E+01  0.89912990424E+02  0.83531751866E+02 0.  0.
          5    1    5    5  501    0  0.24335519065E+02  0.79772119187E+02 -0.44453787875E+02  0.94625777377E+02  0.47000000000E+01 0. -1.
        -13    1    6    6    0    0  0.42276065880E+01 -0.46863197141E+02  0.32471812203E+02  0.57170363751E+02  0.00000000000E+00 0.  1.
         14    1    6    6    0    0 -0.79051116900E+01  0.14037393551E+02 -0.28505094157E+02  0.32742626673E+02  0.00000000000E+00 0. -1.
         -5    1    3    3    0  503  0.14319990477E+02 -0.23465028763E+02  0.49028178852E+02  0.56404982259E+02  0.47000000000E+01 0.  1.
         11    1    4    4    0    0 -0.79138265645E+01 -0.48673296820E+02 -0.50466026139E+02  0.70558757560E+02  0.00000000000E+00 0. -1.
        -12    1    4    4    0    0 -0.27064177876E+02  0.25192009986E+02 -0.11617523654E+02  0.38756598755E+02  0.00000000000E+00 0.  1.
</event>
<event>
12    1  0.9966151E-001  0.2546638E+03  0.7818608E-02  0.1110862E+00
         21   -1    0    0  503  502  0.00000000000E+00  0.00000000000E+00  0.63852138609E+02  0.63852138609E+02  0.00000000000E+00 0. -1.
         21   -1    0    0  501  503 -0.00000000000E+00 -0.00000000000E+00 -0.11033683838E+04  0.11033683838E+04  0.00000000000E+00 0. -1.
          6    2    1    2  501    0  0.97338031348E+02 -0.15803979444E+03 -0.69237646731E+03  0.73668636368E+03  0.16991279228E+03 0.  0.
         24    2    3    3    0    0  0.10996339525E+03 -0.17311787234E+03 -0.53973772364E+03  0.58271420934E+03  0.78595759568E+02 0.  0.
         -6    2    1    2    0  502 -0.97338031348E+02  0.15803979444E+03 -0.34713977793E+03  0.43053415877E+03  0.17436274681E+03 0.  0.
        -24    2    5    5    0    0 -0.15811363696E+02  0.27950369107E+02 -0.20120279202E+03  0.21866261755E+03  0.79369732539E+02 0.  0.
          5    1    3    3  501    0 -0.12625363901E+02  0.15078077894E+02 -0.15263874366E+03  0.15397215435E+03  0.47000000000E+01 0. -1.
        -13    1    4    4    0    0  0.27600009352E+02 -0.24123178204E+02 -0.19284229984E+03  0.19629528994E+03  0.00000000000E+00 0.  1.
         14    1    4    4    0    0  0.82363385897E+02 -0.14899469413E+03 -0.34689542380E+03  0.38641891940E+03  0.00000000000E+00 0. -1.
         -5    1    5    5    0  502 -0.81526667652E+02  0.13008942534E+03 -0.14593698592E+03  0.21187154122E+03  0.47000000000E+01 0.  1.
         11    1    6    6    0    0 -0.14133521274E+02  0.48078242610E+02 -0.18792399908E+03  0.19449088222E+03  0.00000000000E+00 0. -1.
        -12    1    6    6    0    0 -0.16778424226E+01 -0.20127873504E+02 -0.13278792932E+02  0.24171735327E+02  0.00000000000E+00 0.  1.
</event>
<event>
12    1  0.9966151E-001  0.3379050E+03  0.7818608E-02  0.1067741E+00
         21   -1    0    0  501  502  0.00000000000E+00  0.00000000000E+00  0.70061390226E+03  0.70061390226E+03  0.00000000000E+00 0.  1.
         21   -1    0    0  502  503 -0.00000000000E+00 -0.00000000000E+00 -0.22440153816E+03  0.22440153816E+03  0.00000000000E+00 0.  1.
         -6    2    1    2    0  503 -0.21980058958E+03  0.19082607070E+03  0.48041356039E+03  0.58708428725E+03  0.17071579568E+03 0.  0.
        -24    2    3    3    0    0 -0.78112788337E+02  0.15447299853E+03  0.26497310350E+03  0.32663532999E+03  0.80724087105E+02 0.  0.
          6    2    1    2  501    0  0.21980058958E+03 -0.19082607070E+03 -0.42011962934E+01  0.33793115316E+03  0.17161854734E+03 0.  0.
         24    2    5    5    0    0  0.16478728554E+03 -0.11265044825E+03 -0.64871706928E+02  0.22461349158E+03  0.79986931882E+02 0.  0.
          5    1    5    5  501    0  0.55013304038E+02 -0.78175622447E+02  0.60670510635E+02  0.11331766158E+03  0.47000000000E+01 0. -1.
        -13    1    6    6    0    0  0.61318581236E+02 -0.10026388447E+02 -0.46758090343E+02  0.77761274955E+02  0.00000000000E+00 0.  1.
         14    1    6    6    0    0  0.10346870431E+03 -0.10262405981E+03 -0.18113616585E+02  0.14685221662E+03  0.00000000000E+00 0. -1.
         -5    1    3    3    0  503 -0.14168780124E+03  0.36353072167E+02  0.21544045689E+03  0.26044895727E+03  0.47000000000E+01 0.  1.
         13    1    4    4    0    0 -0.44313181753E+02  0.10419268892E+03  0.23080147069E+03  0.25707799084E+03  0.00000000000E+00 0. -1.
        -14    1    4    4    0    0 -0.33799606584E+02  0.50280309613E+02  0.34171632807E+02  0.69557339143E+02  0.00000000000E+00 0.  1.
</event>
<event>
12    1  0.9966151E-001  0.2546923E+03  0.7818608E-02  0.1110555E+00
         21   -1    0    0  501  502  0.00000000000E+00  0.00000000000E+00  0.31977505058E+03  0.31977505058E+03  0.00000000000E+00 0. -1.
         21   -1    0    0  502  503 -0.00000000000E+00 -0.00000000000E+00 -0.20490692065E+03  0.20490692065E+03  0.00000000000E+00 0. -1.
         -6    2    1    2    0  503 -0.87568045226E+02  0.16337154699E+03  0.25947184308E+02  0.25601059295E+03  0.17467038220E+03 0.  0.
        -24    2    3    3    0    0 -0.35168971248E+01  0.33645548608E+02  0.49100247539E+02  0.99640568678E+02  0.79831178819E+02 0.  0.
          6    2    1    2  501    0  0.87568045226E+02 -0.16337154699E+03  0.88920945617E+02  0.26867137828E+03  0.17297095141E+03 0.  0.
         24    2    5    5    0    0  0.11610368352E+03 -0.17303272900E+03  0.80400336052E+02  0.23701206878E+03  0.79310252054E+02 0.  0.
          5    1    5    5  501    0 -0.28535638292E+02  0.96611820134E+01  0.85206095649E+01  0.31659309500E+02  0.47000000000E+01 0. -1.
        -11    1    6    6    0    0  0.87584981041E+01 -0.42883008882E+02  0.48475992873E+02  0.65311450947E+02  0.00000000000E+00 0.  1.
         12    1    6    6    0    0  0.10734518541E+03 -0.13014972012E+03  0.31924343178E+02  0.17170061784E+03  0.00000000000E+00 0. -1.
         -5    1    3    3    0  503 -0.84051148101E+02  0.12972599838E+03 -0.23153063231E+02  0.15637002427E+03  0.47000000000E+01 0.  1.
         13    1    4    4    0    0 -0.26823963955E+02 -0.65333054131E+01 -0.52952299102E+01  0.28111360367E+02  0.00000000000E+00 0. -1.
        -14    1    4    4    0    0  0.23307066830E+02  0.40178854021E+02  0.54395477449E+02  0.71529208311E+02  0.00000000000E+00 0.  1.
</event>
<event>
12    1  0.9966151E-001  0.4374994E+03  0.7818608E-02  0.1031522E+00
         21   -1    0    0  501  502  0.00000000000E+00  0.00000000000E+00  0.18670908337E+04  0.18670908337E+04  0.00000000000E+00 0. -1.
         21   -1    0    0  502  503 -0.00000000000E+00 -0.00000000000E+00 -0.11437471267E+03  0.11437471267E+03  0.00000000000E+00 0. -1.
         -6    2    1    2    0  503 -0.39836163955E+03  0.58599846322E+02  0.11955303579E+04  0.12730435885E+04  0.17094210625E+03 0.  0.
        -24    2    3    3    0    0 -0.16992289266E+03  0.14039190229E+02  0.37119655639E+03  0.41647005431E+03  0.81175946860E+02 0.  0.
          6    2    1    2  501    0  0.39836163955E+03 -0.58599846322E+02  0.55718576316E+03  0.70842195790E+03  0.17111328970E+03 0.  0.
         24    2    5    5    0    0  0.40024232685E+03 -0.43976251600E+02  0.48903743332E+03  0.63853868833E+03  0.80288320385E+02 0.  0.
          5    1    5    5  501    0 -0.18806872955E+01 -0.14623594722E+02  0.68148329835E+02  0.69883269576E+02  0.47000000000E+01 0. -1.
        -11    1    6    6    0    0  0.19308916713E+03 -0.57215309405E+02  0.21256822356E+03  0.29281780643E+03  0.00000000000E+00 0.  1.
         12    1    6    6    0    0  0.20715315971E+03  0.13239057805E+02  0.27646920976E+03  0.34572088189E+03  0.00000000000E+00 0. -1.
         -5    1    3    3    0  503 -0.22843874689E+03  0.44560656092E+02  0.82433380147E+03  0.85657353415E+03  0.47000000000E+01 0.  1.
         11    1    4    4    0    0  0.62814355000E+01 -0.32325353857E+01  0.25471228495E+01  0.75095640200E+01  0.00000000000E+00 0. -1.
        -12    1    4    4    0    0 -0.17620432816E+03  0.17271725615E+02  0.36864943354E+03  0.40896049029E+03  0.00000000000E+00 0.  1.
</event>
<event>
12    1  0.9966151E-001  0.2699398E+03  0.7818608E-02  0.1103418E+00
         21   -1    0    0  503  502  0.00000000000E+00  0.00000000000E+00  0.15822483509E+03  0.15822483509E+03  0.00000000000E+00 0.  1.
         21   -1    0    0  501  503 -0.00000000000E+00 -0.00000000000E+00 -0.45806513793E+03  0.45806513793E+03  0.00000000000E+00 0.  1.
          6    2    1    2  501    0 -0.26839157418E+02  0.18780965879E+03 -0.21288783951E+03  0.33269123686E+03  0.17137508153E+03 0.  0.
         24    2    3    3    0    0 -0.42005294844E+02  0.70775053153E+02 -0.17553330457E+03  0.20881806817E+03  0.77585382888E+02 0.  0.
         -6    2    1    2    0  502  0.26839157418E+02 -0.18780965879E+03 -0.86952463328E+02  0.28359873616E+03  0.19202787289E+03 0.  0.
        -24    2    5    5    0    0  0.55331420573E+02 -0.20818453027E+03 -0.60772578804E+02  0.23961668526E+03  0.85559831561E+02 0.  0.
          5    1    3    3  501    0  0.15166137426E+02  0.11703460563E+03 -0.37354534937E+02  0.12387316869E+03  0.47000000000E+01 0. -1.
        -11    1    4    4    0    0 -0.78704950820E+01  0.69356290855E+02 -0.15220963518E+03  0.16745152378E+03  0.00000000000E+00 0.  1.
         12    1    4    4    0    0 -0.34134799762E+02  0.14187622982E+01 -0.23323669391E+02  0.41366544394E+02  0.00000000000E+00 0. -1.
         -5    1    5    5    0  502 -0.28492263154E+02  0.20374871479E+02 -0.26179884524E+02  0.43982050898E+02  0.47000000000E+01 0.  1.
         13    1    6    6    0    0  0.14675291845E+02 -0.49962443456E+02  0.21942780384E+02  0.56507482317E+02  0.00000000000E+00 0. -1.
        -14    1    6    6    0    0  0.40656128728E+02 -0.15822208681E+03 -0.82715359188E+02  0.18310920295E+03  0.00000000000E+00 0.  1.
</event>
<event>
12    1  0.9966151E-001  0.2247032E+03  0.7818608E-02  0.1130674E+00
         21   -1    0    0  501  502  0.00000000000E+00  0.00000000000E+00  0.11137318474E+03  0.11137318474E+03  0.00000000000E+00 0. -1.
         21   -1    0    0  502  503 -0.00000000000E+00 -0.00000000000E+00 -0.10531265809E+04  0.10531265809E+04  0.00000000000E+00 0. -1.
         -6    2    1    2    0  503  0.30293657225E+02 -0.13822515809E+03 -0.31081576347E+02  0.22684269345E+03  0.17454983010E+03 0.  0.
        -24    2    3    3    0    0  0.50011499663E+02 -0.82191649760E+02 -0.79745115512E+02  0.14990910254E+03  0.82806027483E+02 0.  0.
          6    2    1    2  501    0 -0.30293657225E+02  0.13822515809E+03 -0.91067181984E+03  0.93765707222E+03  0.17278229552E+03 0.  0.
         24    2    5    5    0    0 -0.77382192131E+02  0.12966672673E+03 -0.69082803261E+03  0.71261494806E+03  0.88177263913E+02 0.  0.
          5    1    5    5  501    0  0.47088534907E+02  0.85584313560E+01 -0.21984378722E+03  0.22504212416E+03  0.47000000000E+01 0. -1.
        -11    1    6    6    0    0 -0.35537735971E+01  0.66417944160E+02 -0.41178328111E+03  0.41712041813E+03  0.00000000000E+00 0.  1.
         12    1    6    6    0    0 -0.73828418534E+02  0.63248782574E+02 -0.27904475150E+03  0.29549452993E+03  0.00000000000E+00 0. -1.
         -5    1    3    3    0  503 -0.19717842438E+02 -0.56033508330E+02  0.48663539165E+02  0.76933590910E+02  0.47000000000E+01 0.  1.
         13    1    4    4    0    0  0.49984901308E+01 -0.42236874201E+02 -0.78994672663E+02  0.89716758495E+02  0.00000000000E+00 0. -1.
        -14    1    4    4    0    0  0.45013009532E+02 -0.39954775560E+02 -0.75044284938E+00  0.60192344045E+02  0.00000000000E+00 0.  1.
</event>
<event>
12    1  0.9966151E-001  0.2419243E+03  0.7818608E-02  0.1119111E+00
         21   -1    0    0  503  502  0.00000000000E+00  0.00000000000E+00  0.54921380730E+03  0.54921380730E+03  0.00000000000E+00 0.  1.
         21   -1    0    0  501  503 -0.00000000000E+00 -0.00000000000E+00 -0.10806809116E+03  0.10806809116E+03  0.00000000000E+00 0.  1.
          6    2    1    2  501    0 -0.89933502447E+02 -0.13797567218E+03  0.16676852389E+03  0.29383518138E+03  0.17720624221E+03 0.  0.
         24    2    3    3    0    0 -0.10152866007E+03 -0.60481891464E+02  0.15489724658E+03  0.21444531455E+03  0.89596361107E+02 0.  0.
         -6    2    1    2    0  502  0.89933502447E+02  0.13797567218E+03  0.27437719225E+03  0.36344671708E+03  0.17229437470E+03 0.  0.
        -24    2    5    5    0    0  0.12555423874E+03  0.86023808292E+02  0.14551551772E+03  0.21993624994E+03  0.63507682065E+02 0.  0.
          5    1    3    3  501    0  0.11595157623E+02 -0.77493780713E+02  0.11871277302E+02  0.79389866823E+02  0.47000000000E+01 0. -1.
        -13    1    4    4    0    0  0.32124607411E+01 -0.16555282922E+02  0.71694848553E+02  0.73651534985E+02  0.00000000000E+00 0.  1.
         14    1    4    4    0    0 -0.10474112081E+03 -0.43926608542E+02  0.83202398032E+02  0.14079377957E+03  0.00000000000E+00 0. -1.
         -5    1    5    5    0  502 -0.35620736296E+02  0.51951863885E+02  0.12886167453E+03  0.14351046714E+03  0.47000000000E+01 0.  1.
         11    1    6    6    0    0  0.67100911209E+02  0.58886930659E+02  0.43598258416E+02  0.99352961830E+02  0.00000000000E+00 0. -1.
        -12    1    6    6    0    0  0.58453327534E+02  0.27136877633E+02  0.10191725930E+03  0.12058328811E+03  0.00000000000E+00 0.  1.
</event>
<event>
12    1  0.9966151E-001  0.1813280E+03  0.7818608E-02  0.1167046E+00
         21   -1    0    0  503  502  0.00000000000E+00  0.00000000000E+00  0.13086532209E+04  0.13086532209E+04  0.00000000000E+00 0. -1.
         21   -1    0    0  501  503 -0.00000000000E+00 -0.00000000000E+00 -0.24831820413E+02  0.24831820413E+02  0.00000000000E+00 0. -1.
          6    2    1    2  501    0  0.10660877463E+01 -0.56526039261E+02  0.62769514194E+03  0.65276373101E+03  0.17000872818E+03 0.  0.
         24    2    3    3    0    0  0.69858515659E+01 -0.10037524962E+03  0.53682500045E+03  0.55158433851E+03  0.77072748287E+02 0.  0.
         -6    2    1    2    0  502 -0.10660877463E+01  0.56526039261E+02  0.65612625857E+03  0.68072131032E+03  0.17228901730E+03 0.  0.
        -24    2    5    5    0    0 -0.46986561762E+02 -0.19518216867E+00  0.49951381116E+03  0.50787590084E+03  0.78842298500E+02 0.  0.
          5    1    3    3  501    0 -0.59197638196E+01  0.43849210358E+02  0.90870141491E+02  0.10117939250E+03  0.47000000000E+01 0. -1.
        -11    1    4    4    0    0  0.14932483396E+02 -0.10970518255E+03  0.42866784555E+03  0.44273505390E+03  0.00000000000E+00 0.  1.
         12    1    4    4    0    0 -0.79466318302E+01  0.93299329355E+01  0.10815715490E+03  0.10884928461E+03  0.00000000000E+00 0. -1.
         -5    1    5    5    0  502  0.45920474016E+02  0.56721221430E+02  0.15661244741E+03  0.17284540948E+03  0.47000000000E+01 0.  1.
         11    1    6    6    0    0 -0.12664677834E+02 -0.34848569169E+02  0.13092563171E+03  0.13607475107E+03  0.00000000000E+00 0. -1.
        -12    1    6    6    0    0 -0.34321883928E+02  0.34653387000E+02  0.36858817945E+03  0.37180114978E+03  0.00000000000E+00 0.  1.
</event>
<event>
12    1  0.9966151E-001  0.1759884E+03  0.7818608E-02  0.1171770E+00
         21   -1    0    0  501  502  0.00000000000E+00  0.00000000000E+00  0.33011199607E+03  0.33011199607E+03  0.00000000000E+00 0.  1.
         21   -1    0    0  502  503 -0.00000000000E+00 -0.00000000000E+00 -0.10507373875E+03  0.10507373875E+03  0.00000000000E+00 0.  1.
         -6    2    1    2    0  503 -0.33577244368E+02  0.11883448356E+02  0.18387481402E+03  0.25444740991E+03  0.17223498337E+03 0.  0.
        -24    2    3    3    0    0 -0.76322922356E+02 -0.32549985181E+02  0.12532273505E+03  0.16928897548E+03  0.77899161019E+02 0.  0.
          6    2    1    2  501    0  0.33577244368E+02 -0.11883448356E+02  0.41163443301E+02  0.18073832492E+03  0.17234635286E+03 0.  0.
         24    2    5    5    0    0 -0.36113744816E+02 -0.36590432816E+02  0.51381771153E+00  0.96229443044E+02  0.81343588325E+02 0.  0.
          5    1    5    5  501    0  0.69690989185E+02  0.24706984460E+02  0.40649625589E+02  0.84508881872E+02  0.47000000000E+01 0. -1.
        -11    1    6    6    0    0  0.18269647407E+01  0.76531732342E+01 -0.29598529756E+02  0.30626488934E+02  0.00000000000E+00 0.  1.
         12    1    6    6    0    0 -0.37940709557E+02 -0.44243606050E+02  0.30112347467E+02  0.65602954110E+02  0.00000000000E+00 0. -1.
         -5    1    3    3    0  503  0.42745677988E+02  0.44433433536E+02  0.58552078969E+02  0.85158434427E+02  0.47000000000E+01 0.  1.
         11    1    4    4    0    0 -0.50791350389E+02  0.18137703802E+02  0.80838990284E+02  0.97178598074E+02  0.00000000000E+00 0. -1.
        -12    1    4    4    0    0 -0.25531571967E+02 -0.50687688983E+02  0.44483744763E+02  0.72110377406E+02  0.00000000000E+00 0.  1.
</event>
<event>
12    1  0.9966151E-001  0.2670277E+03  0.7818608E-02  0.1103243E+00
         21   -1    0    0  503  502  0.00000000000E+00  0.00000000000E+00  0.67855235470E+02  0.67855235470E+02  0.00000000000E+00 0. -1.
         21   -1    0    0  501  503 -0.00000000000E+00 -0.00000000000E+00 -0.10511307025E+04  0.10511307025E+04  0.00000000000E+00 0. -1.
          6    2    1    2  501    0 -0.10800701188E+03 -0.17309575218E+03 -0.53904190930E+03  0.60155627920E+03  0.17226759134E+03 0.  0.
         24    2    3    3    0    0 -0.12787609734E+03 -0.18696567608E+03 -0.50633328580E+03  0.56057946384E+03  0.81039981929E+02 0.  0.
         -6    2    1    2    0  502  0.10800701188E+03  0.17309575218E+03 -0.44423355772E+03  0.51742965876E+03  0.16959464591E+03 0.  0.
        -24    2    5    5    0    0  0.57203901662E+02  0.11102848054E+03 -0.14724900613E+03  0.20976878035E+03  0.81982080656E+02 0.  0.
          5    1    3    3  501    0  0.19869085457E+02  0.13869923893E+02 -0.32708623501E+02  0.40976815359E+02  0.47000000000E+01 0. -1.
        -13    1    4    4    0    0 -0.90072109027E+02 -0.72851867771E+02 -0.19461839628E+03  0.22648774720E+03  0.00000000000E+00 0.  1.
         14    1    4    4    0    0 -0.37803988309E+02 -0.11411380831E+03 -0.31171488952E+03  0.33409171664E+03  0.00000000000E+00 0. -1.
         -5    1    5    5    0  502  0.50803110217E+02  0.62067271640E+02 -0.29698455160E+03  0.30766087841E+03  0.47000000000E+01 0.  1.
         13    1    6    6    0    0 -0.86401698744E+01 -0.59452297270E+01  0.41533890392E-01  0.10488089294E+02  0.00000000000E+00 0. -1.
        -14    1    6    6    0    0  0.65844071537E+02  0.11697371027E+03 -0.14729054002E+03  0.19928069106E+03  0.00000000000E+00 0.  1.
</event>
<event>
12    1  0.9966151E-001  0.1993315E+03  0.7818608E-02  0.1150728E+00
         21   -1    0    0  501  502  0.00000000000E+00  0.00000000000E+00  0.35771931484E+03  0.35771931484E+03  0.00000000000E+00 0.  1.
         21   -1    0    0  502  503 -0.00000000000E+00 -0.00000000000E+00 -0.12107382107E+03  0.12107382107E+03  0.00000000000E+00 0.  1.
         -6    2    1    2    0  503  0.77113282875E+02  0.60575895504E+02  0.19029232171E+03  0.27414300539E+03  0.17125221805E+03 0.  0.
        -24    2    3    3    0    0  0.11290602835E+03  0.49493967998E+02  0.18511721478E+03  0.23602737240E+03  0.79013373607E+02 0.  0.
          6    2    1    2  501    0 -0.77113282875E+02 -0.60575895504E+02  0.46353172063E+02  0.20465013053E+03  0.17354296832E+03 0.  0.
         24    2    5    5    0    0 -0.49824084324E+02  0.32502473647E+02  0.39886915244E+02  0.10732497634E+03  0.79930184322E+02 0.  0.
          5    1    5    5  501    0 -0.27289198551E+02 -0.93078369151E+02  0.64662568185E+01  0.97325154192E+02  0.47000000000E+01 0. -1.
        -11    1    6    6    0    0 -0.53120767509E+02  0.52689938500E+01 -0.61500652803E+01  0.53734546987E+02  0.00000000000E+00 0.  1.
         12    1    6    6    0    0  0.32966831850E+01  0.27233479797E+02  0.46036980525E+02  0.53590429348E+02  0.00000000000E+00 0. -1.
         -5    1    3    3    0  503 -0.35792745478E+02  0.11081927505E+02  0.51751069333E+01  0.38115632985E+02  0.47000000000E+01 0.  1.
         11    1    4    4    0    0  0.19636380667E+02  0.44688481224E+02  0.91983605613E+02  0.10413275902E+03  0.00000000000E+00 0. -1.
        -12    1    4    4    0    0  0.93269647686E+02  0.48054867746E+01  0.93133609165E+02  0.13189461338E+03  0.00000000000E+00 0.  1.
</event>
<event>
12    1  0.9966151E-001  0.4608344E+03  0.7818608E-02  0.1024599E+00
         21   -1    0    0  501  502  0.00000000000E+00  0.00000000000E+00  0.22630925037E+04  0.22630925037E+04  0.00000000000E+00 0.  1.
         21   -1    0    0  502  503 -0.00000000000E+00 -0.00000000000E+00 -0.11154658968E+03  0.11154658968E+03  0.00000000000E+00 0.  1.
         -6    2    1    2    0  503  0.14368864494E+03  0.40328345999E+03  0.15518640651E+04  0.16188423083E+04  0.17054139326E+03 0.  0.
        -24    2    3    3    0    0  0.65774054828E+02  0.22651660124E+03  0.10905787241E+04  0.11187188620E+04  0.80832801809E+02 0.  0.
          6    2    1    2  501    0 -0.14368864494E+03 -0.40328345999E+03  0.59968184885E+03  0.75579678500E+03  0.16830473729E+03 0.  0.
         24    2    5    5    0    0 -0.12122366184E+03 -0.19301303590E+03  0.25868860651E+03  0.35452778790E+03  0.82589037039E+02 0.  0.
          5    1    5    5  501    0 -0.22464983097E+02 -0.21027042409E+03  0.34099324234E+03  0.40126899710E+03  0.47000000000E+01 0. -1.
        -11    1    6    6    0    0 -0.64806677416E+02 -0.16721329151E+03  0.17718567307E+03  0.25210107702E+03  0.00000000000E+00 0.  1.
         12    1    6    6    0    0 -0.56416984424E+02 -0.25799744393E+02  0.81502933439E+02  0.10242671088E+03  0.00000000000E+00 0. -1.
         -5    1    3    3    0  503  0.77914590110E+02  0.17676685875E+03  0.46128534107E+03  0.50012344635E+03  0.47000000000E+01 0.  1.
         13    1    4    4    0    0  0.53052361051E+02  0.89282897649E+02  0.33697772868E+03  0.35261874376E+03  0.00000000000E+00 0. -1.
        -14    1    4    4    0    0  0.12721693777E+02  0.13723370359E+03  0.75360099540E+03  0.76610011824E+03  0.00000000000E+00 0.  1.
</event>
<event>
12    1  0.9966151E-001  0.1938679E+03  0.7818608E-02  0.1155786E+00
         21   -1    0    0  501  502  0.00000000000E+00  0.00000000000E+00  0.30794616024E+02  0.30794616024E+02  0.00000000000E+00 0.  1.
         21   -1    0    0  502  503 -0.00000000000E+00 -0.00000000000E+00 -0.14298155088E+04  0.14298155088E+04  0.00000000000E+00 0.  1.
         -6    2    1    2    0  503  0.41000465913E+02 -0.79138714163E+02 -0.99834029276E+03  0.10169897341E+04  0.17216505131E+03 0.  0.
        -24    2    3    3    0    0 -0.18698055743E+02 -0.50333745980E+02 -0.83583911416E+03  0.84142674621E+03  0.80553343881E+02 0.  0.
          6    2    1    2  501    0 -0.41000465913E+02  0.79138714163E+02 -0.40068059999E+03  0.44362039067E+03  0.16825615449E+03 0.  0.
         24    2    5    5    0    0 -0.74871539682E+02  0.35825163087E+02 -0.35278726054E+03  0.37055073001E+03  0.77199757428E+02 0.  0.
          5    1    5    5  501    0  0.33871073769E+02  0.43313551076E+02 -0.47893339452E+02  0.73069660660E+02  0.47000000000E+01 0. -1.
        -13    1    6    6    0    0 -0.24816204891E+01 -0.12313032108E+02 -0.14179937424E+03  0.14235459857E+03  0.00000000000E+00 0.  1.
         14    1    6    6    0    0 -0.72389919192E+02  0.48138195196E+02 -0.21098788630E+03  0.22819613143E+03  0.00000000000E+00 0. -1.
         -5    1    3    3    0  503  0.59698521656E+02 -0.28804968183E+02 -0.16250117860E+03  0.17556298792E+03  0.47000000000E+01 0.  1.
         13    1    4    4    0    0 -0.39365274454E+02 -0.21558641119E+00 -0.24946183210E+03  0.25254876160E+03  0.00000000000E+00 0. -1.
        -14    1    4    4    0    0  0.20667218711E+02 -0.50118159569E+02 -0.58637728206E+03  0.58887798461E+03  0.00000000000E+00 0.  1.
</event>
<event>
12    1  0.9966151E-001  0.2247841E+03  0.7818608E-02  0.1130622E+00
         21   -1    0    0  503  502  0.00000000000E+00  0.00000000000E+00  0.59270935427E+02  0.59270935427E+02  0.00000000000E+00 0. -1.
         21   -1    0    0  501  503 -0.00000000000E+00 -0.00000000000E+00 -0.85733965369E+03  0.85733965369E+03  0.00000000000E+00 0. -1.
          6    2    1    2  501    0 -0.14267759873E+03 -0.31401568006E+01 -0.35030335190E+03  0.41622146790E+03  0.17366955469E+03 0.  0.
         24    2    3    3    0    0 -0.55803374679E+02 -0.62583054452E+02 -0.22342267345E+03  0.25129304267E+03  0.78739106885E+02 0.  0.
         -6    2    1    2    0  502  0.14267759873E+03  0.31401568006E+01 -0.44776536636E+03  0.50038912121E+03  0.17183914442E+03 0.  0.
        -24    2    5    5    0    0  0.30474758725E+02  0.22012575282E+02 -0.10052804624E+03  0.13495582776E+03  0.81816397957E+02 0.  0.
          5    1    3    3  501    0 -0.86874224046E+02  0.59442897652E+02 -0.12688067845E+03  0.16492842523E+03  0.47000000000E+01 0. -1.
        -11    1    4    4    0    0 -0.18659798725E+02 -0.35976338716E+02 -0.24867265256E+02  0.47548563777E+02  0.00000000000E+00 0.  1.
         12    1    4    4    0    0 -0.37143575954E+02 -0.26606715736E+02 -0.19855540819E+03  0.20374447889E+03  0.00000000000E+00 0. -1.
         -5    1    5    5    0  502  0.11220284000E+03 -0.18872418481E+02 -0.34723732012E+03  0.36543329346E+03  0.47000000000E+01 0.  1.
         13    1    6    6    0    0 -0.75557658293E+01 -0.15273623455E+02 -0.73078114569E+02  0.75038550091E+02  0.00000000000E+00 0. -1.
        -14    1    6    6    0    0  0.38030524554E+02  0.37286198737E+02 -0.27449931670E+02  0.59917277665E+02  0.00000000000E+00 0.  1.
</event>
<event>
12    1  0.9966151E-001  0.2191887E+03  0.7818608E-02  0.1134739E+00
         21   -1    0    0  503  502  0.00000000000E+00  0.00000000000E+00  0.20202695928E+03  0.20202695928E+03  0.00000000000E+00 0. -1.
         21   -1    0    0  501  503 -0.00000000000E+00 -0.00000000000E+00 -0.34237512941E+03  0.34237512941E+03  0.00000000000E+00 0. -1.
          6    2    1    2  501    0 -0.12888429331E+03  0.39362045835E+02  0.81139152685E+02  0.23372471396E+03  0.17286742926E+03 0.  0.
         24    2    3    3    0    0 -0.30431225273E+02  0.56838211349E+02 -0.25599891598E+01  0.10324077122E+03  0.80594426331E+02 0.  0.
         -6    2    1    2    0  502  0.12888429331E+03 -0.39362045835E+02 -0.22148732282E+03  0.31067737473E+03  0.17118196542E+03 0.  0.
        -24    2    5    5    0    0  0.76269718740E+02  0.44656257395E+02 -0.11298505425E+03  0.16363248016E+03  0.78731917020E+02 0.  0.
          5    1    3    3  501    0 -0.98453068042E+02 -0.17476165514E+02  0.83699141845E+02  0.13048394274E+03  0.47000000000E+01 0. -1.
        -11    1    4    4    0    0 -0.17386285188E+02  0.30130308572E+02 -0.41565054546E+02  0.54201219236E+02  0.00000000000E+00 0.  1.
         12    1    4    4    0    0 -0.13044940085E+02  0.26707902777E+02  0.39005065386E+02  0.49039551979E+02  0.00000000000E+00 0. -1.
         -5    1    5    5    0  502  0.52614574575E+02 -0.84018303231E+02 -0.10850226856E+03  0.14704489457E+03  0.47000000000E+01 0.  1.
         11    1    6    6    0    0  0.98463755220E+00  0.26697691633E+01 -0.64829819088E+02  0.64892238530E+02  0.00000000000E+00 0. -1.
        -12    1    6    6    0    0  0.75285081187E+02  0.41986488232E+02 -0.48155235167E+02  0.98740241631E+02  0.00000000000E+00 0.  1.
</event>
<event>
12    1  0.9966151E-001  0.2435627E+03  0.7818608E-02  0.1117725E+00
         21   -1    0    0  503  502  0.00000000000E+00  0.00000000000E+00  0.16769352218E+03  0.16769352218E+03  0.00000000000E+00 0. -1.
         21   -1    0    0  501  503 -0.00000000000E+00 -0.00000000000E+00 -0.41819693491E+03  0.41819693491E+03  0.00000000000E+00 0.  1.
          6    2    1    2  501    0 -0.25179044208E+02 -0.16977597096E+03 -0.76694639642E+01  0.24195568731E+03  0.17036980178E+03 0.  0.
         24    2    3    3    0    0 -0.14034708274E+02 -0.58599847885E+02  0.57854592714E+02  0.11234157322E+03  0.75116975230E+02 0.  0.
         -6    2    1    2    0  502  0.25179044208E+02  0.16977597096E+03 -0.24283394877E+03  0.34393476979E+03  0.17281474073E+03 0.  0.
        -24    2    5    5    0    0  0.61602394099E+02  0.17718034629E+03 -0.19261538611E+03  0.28128112483E+03  0.82647771599E+02 0.  0.
          5    1    3    3  501    0 -0.11144335934E+02 -0.11117612308E+03 -0.65524056678E+02  0.12961411408E+03  0.47000000000E+01 0. -1.
        -13    1    4    4    0    0 -0.24816555149E+02  0.77934066184E+01  0.29545296255E+02  0.39363982611E+02  0.00000000000E+00 0.  1.
         14    1    4    4    0    0  0.10781846875E+02 -0.66393254503E+02  0.28309296459E+02  0.72977590612E+02  0.00000000000E+00 0. -1.
         -5    1    5    5    0  502 -0.36423349890E+02 -0.74043753260E+01 -0.50218562652E+02  0.62653644954E+02  0.47000000000E+01 0.  1.
         11    1    6    6    0    0  0.81325898867E+02  0.14203315626E+03 -0.16513159111E+03  0.23249894986E+03  0.00000000000E+00 0. -1.
        -12    1    6    6    0    0 -0.19723504769E+02  0.35147190033E+02 -0.27483795006E+02  0.48782174977E+02  0.00000000000E+00 0.  1.
</event>
<event>
12    1  0.1246900E+000  0.4219661E+03  0.7818608E-02  0.1036467E+00
         21   -1    0    0  501  502  0.00000000000E+00  0.00000000000E+00  0.42186247603E+03  0.42186247603E+03  0.00000000000E+00 0. -1.
         21   -1    0    0  502  503 -0.00000000000E+00 -0.00000000000E+00 -0.51450899936E+03  0.51450899936E+03  0.00000000000E+00 0. -1.
         -6    2    1    2    0  503  0.26781346476E+03  0.27575605925E+03  0.15265902280E+03  0.44828315462E+03  0.17288017050E+03 0.  0.
        -24    2    3    3    0    0  0.82762186925E+02  0.38935425638E+02  0.48274942795E+02  0.13009120926E+03  0.78915813819E+02 0.  0.
          6    2    1    2  501    0 -0.26781346476E+03 -0.27575605925E+03 -0.24530554613E+03  0.48808832077E+03  0.17404005802E+03 0.  0.
         24    2    5    5    0    0 -0.15107456283E+03 -0.22446928336E+03 -0.22136628257E+03  0.35826735581E+03  0.78374003796E+02 0.  0.
          5    1    5    5  501    0 -0.11673890193E+03 -0.51286775887E+02 -0.23939263556E+02  0.12982096496E+03  0.47000000000E+01 0. -1.
        -11    1    6    6    0    0 -0.12962584553E+03 -0.13264590981E+03 -0.12643252476E+03  0.22446153465E+03  0.00000000000E+00 0.  1.
         12    1    6    6    0    0 -0.21448717298E+02 -0.91823373558E+02 -0.94933757809E+02  0.13380582116E+03  0.00000000000E+00 0. -1.
         -5    1    3    3    0  503  0.18505127783E+03  0.23682063361E+03  0.10438408000E+03  0.31819194536E+03  0.47000000000E+01 0.  1.
         13    1    4    4    0    0 -0.80384364995E+01  0.27308384518E+02  0.52688517378E+01  0.28950390757E+02  0.00000000000E+00 0. -1.
        -14    1    4    4    0    0  0.90800623424E+02  0.11627041119E+02  0.43006091057E+02  0.10114081850E+03  0.00000000000E+00 0.  1.
</event>
<event>
12    1  0.9966151E-001  0.1963038E+03  0.7818608E-02  0.1152963E+00
         21   -1    0    0  503  502  0.00000000000E+00  0.00000000000E+00  0.25957766422E+02  0.25957766422E+02  0.00000000000E+00 0. -1.
         21   -1    0    0  501  503 -0.00000000000E+00 -0.00000000000E+00 -0.14896143926E+04  0.14896143926E+04  0.00000000000E+00 0. -1.
          6    2    1    2  501    0 -0.73122961530E+02  0.59718007129E+02 -0.67768874856E+03  0.70546062162E+03  0.17175401263E+03 0.  0.
         24    2    3    3    0    0 -0.80910320887E+02  0.33027349750E+02 -0.66339701173E+03  0.67384768283E+03  0.79610417859E+02 0.  0.
         -6    2    1    2    0  502  0.73122961530E+02 -0.59718007129E+02 -0.78596787758E+03  0.81011153736E+03  0.17211040207E+03 0.  0.
        -24    2    5    5    0    0 -0.94581343832E+01 -0.61645908218E+02 -0.28327381887E+03  0.30065421740E+03  0.79115280920E+02 0.  0.
          5    1    3    3  501    0  0.77873593567E+01  0.26690657378E+02 -0.14291736827E+02  0.31612938784E+02  0.47000000000E+01 0. -1.
        -11    1    4    4    0    0  0.68191854529E-01  0.31438428323E+02 -0.10494677758E+03  0.10955457795E+03  0.00000000000E+00 0.  1.
         12    1    4    4    0    0 -0.80978512742E+02  0.15889214274E+01 -0.55845023415E+03  0.56429310488E+03  0.00000000000E+00 0. -1.
         -5    1    5    5    0  502  0.82581095914E+02  0.19279010894E+01 -0.50269405871E+03  0.50945731997E+03  0.47000000000E+01 0.  1.
         13    1    6    6    0    0  0.32499745469E+02 -0.28376021559E+02 -0.85629548754E+02  0.95884574750E+02  0.00000000000E+00 0. -1.
        -14    1    6    6    0    0 -0.41957879852E+02 -0.33269886659E+02 -0.19764427012E+03  0.20476964265E+03  0.00000000000E+00 0.  1.
</event>
<event>
12    1  0.9966151E-001  0.2514725E+03  0.7818608E-02  0.1112399E+00
         21   -1    0    0  501  502  0.00000000000E+00  0.00000000000E+00  0.11356260408E+04  0.11356260408E+04  0.00000000000E+00 0. -1.
         21   -1    0    0  502  503 -0.00000000000E+00 -0.00000000000E+00 -0.55810847374E+02  0.55810847374E+02  0.00000000000E+00 0. -1.
         -6    2    1    2    0  503  0.91520487466E+02  0.15977488852E+03  0.57143326376E+03  0.62431914956E+03  0.17127291366E+03 0.  0.
        -24    2    3    3    0    0  0.16114637701E+02  0.10409206923E+03  0.19071939968E+03  0.23220723334E+03  0.80321039431E+02 0.  0.
          6    2    1    2  501    0 -0.91520487466E+02 -0.15977488852E+03  0.50838192972E+03  0.56711773866E+03  0.17107404366E+03 0.  0.
         24    2    5    5    0    0 -0.11998251274E+03 -0.82915765995E+02  0.30197817268E+03  0.34498711827E+03  0.80959665160E+02 0.  0.
          5    1    5    5  501    0  0.28462025271E+02 -0.76859122523E+02  0.20640375704E+03  0.22213062039E+03  0.47000000000E+01 0. -1.
        -11    1    6    6    0    0 -0.99519196598E+02 -0.96349352507E+02  0.22509400522E+03  0.26430016913E+03  0.00000000000E+00 0.  1.
         12    1    6    6    0    0 -0.20463316139E+02  0.13433586512E+02  0.76884167468E+02  0.80686949138E+02  0.00000000000E+00 0. -1.
         -5    1    3    3    0  503  0.75405849766E+02  0.55682819285E+02  0.38071386408E+03  0.39211191622E+03  0.47000000000E+01 0.  1.
         13    1    4    4    0    0 -0.98778067507E+01  0.31972576556E+02  0.85112127917E+01  0.34529081381E+02  0.00000000000E+00 0. -1.
        -14    1    4    4    0    0  0.25992444451E+02  0.72119492677E+02  0.18220818689E+03  0.19767815196E+03  0.00000000000E+00 0.  1.
</event>
<event>
12    1  0.9966151E-001  0.2803489E+03  0.7818608E-02  0.1095900E+00
         21   -1    0    0  503  502  0.00000000000E+00  0.00000000000E+00  0.95376735311E+03  0.95376735311E+03  0.00000000000E+00 0.  1.
         21   -1    0    0  501  503 -0.00000000000E+00 -0.00000000000E+00 -0.19578262926E+03  0.19578262926E+03  0.00000000000E+00 0.  1.
          6    2    1    2  501    0 -0.14521720237E+03  0.16268338244E+03  0.81720812631E+03  0.86301396281E+03  0.17149361360E+03 0.  0.
         24    2    3    3    0    0 -0.68140006452E+02  0.14983457650E+03  0.68739223351E+03  0.71142160822E+03  0.80741322499E+02 0.  0.
         -6    2    1    2    0  502  0.14521720237E+03 -0.16268338244E+03 -0.59223402460E+02  0.28653601957E+03  0.17618615247E+03 0.  0.
        -24    2    5    5    0    0  0.11382070906E+03 -0.33457296684E+02 -0.13066117564E+02  0.14568962813E+03  0.83547590052E+02 0.  0.
          5    1    3    3  501    0 -0.77077195923E+02  0.12848805938E+02  0.12981589280E+03  0.15159235458E+03  0.47000000000E+01 0. -1.
        -13    1    4    4    0    0 -0.47362254607E+01  0.87324830062E+02  0.24453346250E+03  0.25970112063E+03  0.00000000000E+00 0.  1.
         14    1    4    4    0    0 -0.63403780992E+02  0.62509746439E+02  0.44285877101E+03  0.45172048759E+03  0.00000000000E+00 0. -1.
         -5    1    5    5    0  502  0.31396493311E+02 -0.12922608576E+03 -0.46157284896E+02  0.14084639144E+03  0.47000000000E+01 0.  1.
         13    1    6    6    0    0  0.11718370703E+03 -0.50139574721E+02 -0.15864179660E+02  0.12844325729E+03  0.00000000000E+00 0. -1.
        -14    1    6    6    0    0 -0.33629979641E+01  0.16682278037E+02  0.27980620963E+01  0.17246370845E+02  0.00000000000E+00 0.  1.
</event>
<event>
12    1  0.9966151E-001  0.1807706E+03  0.7818608E-02  0.1167095E+00
         21   -1    0    0  503  502  0.00000000000E+00  0.00000000000E+00  0.10285971517E+03  0.10285971517E+03  0.00000000000E+00 0.  1.
         21   -1    0    0  501  503 -0.00000000000E+00 -0.00000000000E+00 -0.33813633730E+03  0.33813633730E+03  0.00000000000E+00 0.  1.
          6    2    1    2  501    0  0.31345517495E+02  0.49202397174E+02 -0.63124850065E+02  0.19147517585E+03  0.17109815580E+03 0.  0.
         24    2    3    3    0    0  0.45061226297E+02  0.32820083427E+01  0.72340994488E+01  0.10621513507E+03  0.95854248881E+02 0.  0.
         -6    2    1    2    0  502 -0.31345517495E+02 -0.49202397174E+02 -0.17215177206E+03  0.24952087661E+03  0.17094156279E+03 0.  0.
        -24    2    5    5    0    0  0.29612926412E+02 -0.68168529117E+02 -0.79608174196E+02  0.13699508602E+03  0.83104262355E+02 0.  0.
          5    1    3    3  501    0 -0.13715708802E+02  0.45920388832E+02 -0.70358949513E+02  0.85260040787E+02  0.47000000000E+01 0. -1.
        -13    1    4    4    0    0  0.20489497357E+01  0.37499659674E+02  0.28641143585E+02  0.47230686810E+02  0.00000000000E+00 0.  1.
         14    1    4    4    0    0  0.43012276561E+02 -0.34217651331E+02 -0.21407044136E+02  0.58984448258E+02  0.00000000000E+00 0. -1.
         -5    1    5    5    0  502 -0.60958443907E+02  0.18966131942E+02 -0.92543597861E+02  0.11252579060E+03  0.47000000000E+01 0.  1.
         13    1    6    6    0    0  0.21787378511E+02 -0.68502260497E+02 -0.16957467081E+02  0.73856653359E+02  0.00000000000E+00 0. -1.
        -14    1    6    6    0    0  0.78255479007E+01  0.33373138040E+00 -0.62650707115E+02  0.63138432659E+02  0.00000000000E+00 0.  1.
</event>
<event>
12    1  0.9966151E-001  0.2238321E+03  0.7818608E-02  0.1131345E+00
         21   -1    0    0  501  502  0.00000000000E+00  0.00000000000E+00  0.99896035666E+02  0.99896035666E+02  0.00000000000E+00 0.  1.
         21   -1    0    0  502  503 -0.00000000000E+00 -0.00000000000E+00 -0.54498401406E+03  0.54498401406E+03  0.00000000000E+00 0.  1.
         -6    2    1    2    0  503  0.32040342332E+02  0.13721556461E+03 -0.12860817802E+03  0.25814892794E+03  0.17391409039E+03 0.  0.
        -24    2    3    3    0    0  0.28072735995E+02  0.81266527295E+02 -0.15561194341E+03  0.19572032855E+03  0.81847682387E+02 0.  0.
          6    2    1    2  501    0 -0.32040342332E+02 -0.13721556461E+03 -0.31647980038E+03  0.38673112178E+03  0.17189183168E+03 0.  0.
         24    2    5    5    0    0 -0.80319743863E+02 -0.55120180388E+02 -0.15204727568E+03  0.19665035499E+03  0.77868430950E+02 0.  0.
          5    1    5    5  501    0  0.48279401531E+02 -0.82095384226E+02 -0.16443252470E+03  0.19008076679E+03  0.47000000000E+01 0. -1.
        -11    1    6    6    0    0 -0.66737975171E+01 -0.36447985263E+02 -0.15045700393E+02  0.39992103012E+02  0.00000000000E+00 0.  1.
         12    1    6    6    0    0 -0.73645946346E+02 -0.18672195125E+02 -0.13700157528E+03  0.15665825198E+03  0.00000000000E+00 0. -1.
         -5    1    3    3    0  503  0.39676063368E+01  0.55949037320E+02  0.27003765389E+02  0.62428599393E+02  0.47000000000E+01 0.  1.
         13    1    4    4    0    0 -0.14185067913E+02  0.67678818094E+02 -0.65393530899E+02  0.95173275943E+02  0.00000000000E+00 0. -1.
        -14    1    4    4    0    0  0.42257803908E+02  0.13587709200E+02 -0.90218412508E+02  0.10054705261E+03  0.00000000000E+00 0.  1.
</event>
<event>
12    1  0.9966151E-001  0.3819692E+03  0.7818608E-02  0.1050240E+00
         21   -1    0    0  501  502  0.00000000000E+00  0.00000000000E+00  0.18687156456E+03  0.18687156456E+03  0.00000000000E+00 0.  1.
         21   -1    0    0  502  503 -0.00000000000E+00 -0.00000000000E+00 -0.15249455932E+04  0.15249455932E+04  0.00000000000E+00 0. -1.
         -6    2    1    2    0  503  0.26586950544E+03 -0.21282292446E+03 -0.70988416613E+02  0.38850977861E+03  0.17297485855E+03 0.  0.
        -24    2    3    3    0    0  0.22525970725E+03 -0.22074906483E+03 -0.97235630486E+02  0.33928594652E+03  0.78664479484E+02 0.  0.
          6    2    1    2  501    0 -0.26586950544E+03  0.21282292446E+03 -0.12670856121E+04  0.13233073792E+04  0.17220998924E+03 0.  0.
         24    2    5    5    0    0 -0.21741735490E+03  0.20142799206E+03 -0.86044917443E+03  0.91360902943E+03  0.80406061203E+02 0.  0.
          5    1    5    5  501    0 -0.48452150538E+02  0.11394932394E+02 -0.40663643764E+03  0.40969834976E+03  0.47000000000E+01 0. -1.
        -13    1    6    6    0    0 -0.10140516930E+03  0.95614054647E+02 -0.28701400869E+03  0.31906440884E+03  0.00000000000E+00 0.  1.
         14    1    6    6    0    0 -0.11601218560E+03  0.10581393741E+03 -0.57343516574E+03  0.59454462058E+03  0.00000000000E+00 0. -1.
         -5    1    3    3    0  503  0.40609798183E+02  0.79261403785E+01  0.26247213873E+02  0.49223832092E+02  0.47000000000E+01 0.  1.
         11    1    4    4    0    0  0.10052062268E+03 -0.49542939099E+02 -0.47371807547E+02  0.12166752462E+03  0.00000000000E+00 0. -1.
        -12    1    4    4    0    0  0.12473908458E+03 -0.17120612573E+03 -0.49863822939E+02  0.21761842190E+03  0.00000000000E+00 0.  1.
</event>
<event>
12    1  0.9966151E-001  0.2431843E+03  0.7818608E-02  0.1117853E+00
         21   -1    0    0  503  502  0.00000000000E+00  0.00000000000E+00  0.16025193145E+03  0.16025193145E+03  0.00000000000E+00 0.  1.
         21   -1    0    0  501  503 -0.00000000000E+00 -0.00000000000E+00 -0.43540627547E+03  0.43540627547E+03  0.00000000000E+00 0. -1.
          6    2    1    2  501    0 -0.15896708990E+03 -0.64406508352E+02 -0.25541028879E+03  0.35266557397E+03  0.17239448209E+03 0.  0.
         24    2    3    3    0    0 -0.73392272397E+02  0.25632318505E+02 -0.77145540941E+02  0.13533989657E+03  0.79511079210E+02 0.  0.
         -6    2    1    2    0  502  0.15896708990E+03  0.64406508352E+02 -0.19744055229E+02  0.24299263294E+03  0.17098788834E+03 0.  0.
        -24    2    5    5    0    0  0.93939490344E+02  0.67879712744E+02 -0.74274157267E+02  0.15792634185E+03  0.77406690688E+02 0.  0.
          5    1    3    3  501    0 -0.85574817503E+02 -0.90038826858E+02 -0.17826474785E+03  0.21732567740E+03  0.47000000000E+01 0. -1.
        -11    1    4    4    0    0 -0.54557746835E+02  0.28642839027E+02 -0.92300176284E+02  0.11097874801E+03  0.00000000000E+00 0.  1.
         12    1    4    4    0    0 -0.18834525561E+02 -0.30105205217E+01  0.15154635343E+02  0.24361148563E+02  0.00000000000E+00 0. -1.
         -5    1    5    5    0  502  0.65027599556E+02 -0.34732043912E+01  0.54530102038E+02  0.85066291097E+02  0.47000000000E+01 0.  1.
         13    1    6    6    0    0  0.65592726982E+02  0.13606827751E+01 -0.46742554491E+02  0.80555097237E+02  0.00000000000E+00 0. -1.
        -14    1    6    6    0    0  0.28346763362E+02  0.66519029969E+02 -0.27531602776E+02  0.77371244610E+02  0.00000000000E+00 0.  1.
</event>
<event>
12    1  0.9966151E-001  0.2364554E+03  0.7818608E-02  0.1122328E+00
         21   -1    0    0  503  502  0.00000000000E+00  0.00000000000E+00  0.62927866370E+03  0.62927866370E+03  0.00000000000E+00 0. -1.
         21   -1    0    0  501  503 -0.00000000000E+00 -0.00000000000E+00 -0.89965083137E+02  0.89965083137E+02  0.00000000000E+00 0. -1.
          6    2    1    2  501    0  0.41668795295E+02  0.15702437525E+03  0.22350432664E+03  0.32472294600E+03  0.17058096232E+03 0.  0.
         24    2    3    3    0    0  0.41956547425E+02  0.34042893459E+02  0.46970292726E+02  0.10952331125E+03  0.82884720193E+02 0.  0.
         -6    2    1    2    0  502 -0.41668795295E+02 -0.15702437525E+03  0.31580925392E+03  0.39452080084E+03  0.17180871487E+03 0.  0.
        -24    2    5    5    0    0  0.26458768544E+02 -0.34183298183E+02  0.72753297950E+02  0.11375473646E+03  0.76016665263E+02 0.  0.
          5    1    3    3  501    0 -0.28775213043E+00  0.12298148180E+03  0.17653403392E+03  0.21519963475E+03  0.47000000000E+01 0. -1.
        -11    1    4    4    0    0  0.34064966798E+02  0.43243371576E+02  0.66628910223E+02  0.86428136771E+02  0.00000000000E+00 0.  1.
         12    1    4    4    0    0  0.78915806271E+01 -0.92004781163E+01 -0.19658617496E+02  0.23095174479E+02  0.00000000000E+00 0. -1.
         -5    1    5    5    0  502 -0.68127563838E+02 -0.12284107707E+03  0.24305595597E+03  0.28076606437E+03  0.47000000000E+01 0.  1.
         11    1    6    6    0    0 -0.32609996171E+01  0.16329076111E+02  0.46770857467E+02  0.49646610694E+02  0.00000000000E+00 0. -1.
        -12    1    6    6    0    0  0.29719768161E+02 -0.50512374293E+02  0.25982440483E+02  0.64108125770E+02  0.00000000000E+00 0.  1.
</event>
<event>
12    1  0.9966151E-001  0.2213691E+03  0.7818608E-02  0.1134533E+00
         21   -1    0    0  503  502  0.00000000000E+00  0.00000000000E+00  0.37231047050E+02  0.37231047050E+02  0.00000000000E+00 0.  1.
         21   -1    0    0  501  503 -0.00000000000E+00 -0.00000000000E+00 -0.23192190836E+04  0.23192190836E+04  0.00000000000E+00 0.  1.
          6    2    1    2  501    0 -0.64660713751E+02 -0.12068027965E+03 -0.35909190443E+03  0.42184270091E+03  0.17395266794E+03 0.  0.
         24    2    3    3    0    0  0.19495633082E+02 -0.80880065905E+02 -0.26661359661E+03  0.29053894947E+03  0.80052523307E+02 0.  0.
         -6    2    1    2    0  502  0.64660713751E+02  0.12068027965E+03 -0.19228961321E+04  0.19346074298E+04  0.16257808736E+03 0.  0.
        -24    2    5    5    0    0  0.55473779178E+02  0.13455071897E+03 -0.11909080549E+04  0.12024152254E+04  0.79744234777E+02 0.  0.
          5    1    3    3  501    0 -0.84156346833E+02 -0.39800213740E+02 -0.92478307817E+02  0.13130375144E+03  0.47000000000E+01 0. -1.
        -11    1    4    4    0    0 -0.82730865708E+01 -0.36552988300E+01  0.23410103588E+01  0.93426709481E+01  0.00000000000E+00 0.  1.
         12    1    4    4    0    0  0.27768719653E+02 -0.77224767075E+02 -0.26895460697E+03  0.28119627852E+03  0.00000000000E+00 0. -1.
         -5    1    5    5    0  502  0.91869345734E+01 -0.13870439325E+02 -0.73198807729E+03  0.73219220437E+03  0.47000000000E+01 0.  1.
         11    1    6    6    0    0  0.71788309414E+02  0.73790513963E+02 -0.71970626546E+03  0.72703212437E+03  0.00000000000E+00 0. -1.
        -12    1    6    6    0    0 -0.16314530236E+02  0.60760205007E+02 -0.47120178939E+03  0.47538310102E+03  0.00000000000E+00 0.  1.
</event>
<event>
12    1  0.9966151E-001  0.2409149E+03  0.7818608E-02  0.1119214E+00
         21   -1    0    0  501  502  0.00000000000E+00  0.00000000000E+00  0.21894956905E+04  0.21894956905E+04  0.00000000000E+00 0. -1.
         21   -1    0    0  502  503 -0.00000000000E+00 -0.00000000000E+00 -0.33405469957E+02  0.33405469957E+02  0.00000000000E+00 0. -1.
         -6    2    1    2    0  503 -0.14061017601E+02 -0.16755910935E+03  0.15834731539E+04  0.16016682777E+04  0.17227964266E+03 0.  0.
        -24    2    3    3    0    0 -0.28938456357E+02 -0.62710412284E+02  0.40595862021E+03  0.41939201788E+03  0.79481024577E+02 0.  0.
          6    2    1    2  501    0  0.14061017601E+02  0.16755910935E+03  0.57261706667E+03  0.62123288280E+03  0.17252890276E+03 0.  0.
         24    2    5    5    0    0 -0.65031861665E+01  0.18879481214E+03  0.53634149905E+03  0.57420259091E+03  0.79753616082E+02 0.  0.
          5    1    5    5  501    0  0.20564203767E+02 -0.21235702788E+02  0.36275567623E+02  0.47030291896E+02  0.47000000000E+01 0. -1.
        -11    1    6    6    0    0  0.27401569944E+01  0.12429627413E+03  0.44474228313E+03  0.46179299542E+03  0.00000000000E+00 0.  1.
         12    1    6    6    0    0 -0.92433431609E+01  0.64498538012E+02  0.91599215924E+02  0.11240959548E+03  0.00000000000E+00 0. -1.
         -5    1    3    3    0  503  0.14877438756E+02 -0.10484869707E+03  0.11775145337E+04  0.11822762598E+04  0.47000000000E+01 0.  1.
         13    1    4    4    0    0 -0.53063019224E+02 -0.44392740989E+02  0.33770477978E+03  0.34471860662E+03  0.00000000000E+00 0. -1.
        -14    1    4    4    0    0  0.24124562867E+02 -0.18317671295E+02  0.68253840433E+02  0.74673411259E+02  0.00000000000E+00 0.  1.
</event>
<event>
12    1  0.9966151E-001  0.1745692E+03  0.7818608E-02  0.1173623E+00
         21   -1    0    0  501  502  0.00000000000E+00  0.00000000000E+00  0.38366817893E+02  0.38366817893E+02  0.00000000000E+00 0.  1.
         21   -1    0    0  502  503 -0.00000000000E+00 -0.00000000000E+00 -0.82766956529E+03  0.82766956529E+03  0.00000000000E+00 0.  1.
         -6    2    1    2    0  503  0.12527492458E+02  0.21531204457E+02 -0.29563300102E+03  0.34241036099E+03  0.17095453545E+03 0.  0.
        -24    2    3    3    0    0  0.52275463402E+02  0.54792383420E+02 -0.25248496801E+03  0.27480821626E+03  0.77691487935E+02 0.  0.
          6    2    1    2  501    0 -0.12527492458E+02 -0.21531204457E+02 -0.49366974638E+03  0.52362602219E+03  0.17278270109E+03 0.  0.
         24    2    5    5    0    0 -0.91928543227E+01  0.37076862186E+02 -0.42075856111E+03  0.42990219265E+03  0.79491673874E+02 0.  0.
          5    1    5    5  501    0 -0.33346381356E+01 -0.58608066644E+02 -0.72911185266E+02  0.93723829542E+02  0.47000000000E+01 0. -1.
        -13    1    6    6    0    0  0.10469268666E+02  0.32271872331E+02 -0.62857976764E+02  0.71429717716E+02  0.00000000000E+00 0.  1.
         14    1    6    6    0    0 -0.19662122989E+02  0.48049898555E+01 -0.35790058435E+03  0.35847247493E+03  0.00000000000E+00 0. -1.
         -5    1    3    3    0  503 -0.39747970944E+02 -0.33261178963E+02 -0.43148033014E+02  0.67602144738E+02  0.47000000000E+01 0.  1.
         11    1    4    4    0    0  0.54602001052E+02  0.11840277035E+02 -0.83744048555E+02  0.10067093100E+03  0.00000000000E+00 0. -1.
        -12    1    4    4    0    0 -0.23265376496E+01  0.42952106385E+02 -0.16874091945E+03  0.17413728526E+03  0.00000000000E+00 0.  1.
</event>
<event>
12    1  0.9966151E-001  0.2787216E+03  0.7818608E-02  0.1096519E+00
         21   -1    0    0  503  502  0.00000000000E+00  0.00000000000E+00  0.10112004191E+04  0.10112004191E+04  0.00000000000E+00 0.  1.
         21   -1    0    0  501  503 -0.00000000000E+00 -0.00000000000E+00 -0.85025350782E+02  0.85025350782E+02  0.00000000000E+00 0.  1.
          6    2    1    2  501    0  0.19716743359E+03 -0.93922392603E+02  0.63527595296E+03  0.69335103688E+03  0.17164996715E+03 0.  0.
         24    2    3    3    0    0  0.21906228403E+03 -0.76336300276E+02  0.59859554401E+03  0.64691616291E+03  0.79802139696E+02 0.  0.
         -6    2    1    2    0  502 -0.19716743359E+03  0.93922392603E+02  0.29089911537E+03  0.40287473302E+03  0.17317431242E+03 0.  0.
        -24    2    5    5    0    0 -0.15460319154E+03  0.79681482395E+02  0.30120428159E+03  0.35658429474E+03  0.78594239849E+02 0.  0.
          5    1    3    3  501    0 -0.21894850444E+02 -0.17586092327E+02  0.36680408955E+02  0.46434873967E+02  0.47000000000E+01 0. -1.
        -13    1    4    4    0    0  0.36786556410E+02  0.85789860098E+01  0.16035825163E+03  0.16474713533E+03  0.00000000000E+00 0.  1.
         14    1    4    4    0    0  0.18227572762E+03 -0.84915286286E+02  0.43823729238E+03  0.48216902758E+03  0.00000000000E+00 0. -1.
         -5    1    5    5    0  502 -0.42564242053E+02  0.14240910208E+02 -0.10305166223E+02  0.46290438278E+02  0.47000000000E+01 0.  1.
         13    1    6    6    0    0 -0.66171502252E+02 -0.58395302664E+01  0.12695988121E+03  0.14328844776E+03  0.00000000000E+00 0. -1.
        -14    1    6    6    0    0 -0.88431689284E+02  0.85521012662E+02  0.17424440039E+03  0.21329584699E+03  0.00000000000E+00 0.  1.
</event>
<event>
12    1  0.9966151E-001  0.4452108E+03  0.7818608E-02  0.1029194E+00
         21   -1    0    0  503  502  0.00000000000E+00  0.00000000000E+00  0.19289741164E+03  0.19289741164E+03  0.00000000000E+00 0. -1.
         21   -1    0    0  501  503 -0.00000000000E+00 -0.00000000000E+00 -0.19331765395E+04  0.19331765395E+04  0.00000000000E+00 0. -1.
          6    2    1    2  501    0 -0.25465462013E+03  0.32138835644E+03 -0.15983755892E+04  0.16592218598E+04  0.17341627605E+03 0.  0.
         24    2    3    3    0    0 -0.24291844787E+03  0.33804439174E+03 -0.15367703119E+04  0.15941644894E+04  0.80087731660E+02 0.  0.
         -6    2    1    2    0  502  0.25465462013E+03 -0.32138835644E+03 -0.14190353862E+03  0.46685209126E+03  0.17226377922E+03 0.  0.
        -24    2    5    5    0    0  0.13031274953E+03 -0.12193591676E+03 -0.12346185545E+03  0.23104631915E+03  0.79308204859E+02 0.  0.
          5    1    3    3  501    0 -0.11736172264E+02 -0.16656035300E+02 -0.61605277331E+02  0.65057370423E+02  0.47000000000E+01 0. -1.
        -13    1    4    4    0    0 -0.20060053510E+03  0.23559004648E+03 -0.10332357081E+04  0.10785727946E+04  0.00000000000E+00 0.  1.
         14    1    4    4    0    0 -0.42317912766E+02  0.10245434525E+03 -0.50353460375E+03  0.51559169483E+03  0.00000000000E+00 0. -1.
         -5    1    5    5    0  502  0.12434187060E+03 -0.19945243968E+03 -0.18441683165E+02  0.23580577210E+03  0.47000000000E+01 0.  1.
         11    1    6    6    0    0  0.12309610309E+03 -0.69213786974E+02 -0.99091127978E+02  0.17251739202E+03  0.00000000000E+00 0. -1.
        -12    1    6    6    0    0  0.72166464383E+01 -0.52722129781E+02 -0.24370727474E+02  0.58528927139E+02  0.00000000000E+00 0.  1.
</event>
<event>
12    1  0.9966151E-001  0.2059194E+03  0.7818608E-02  0.1145884E+00
         21   -1    0    0  501  502  0.00000000000E+00  0.00000000000E+00  0.16965413187E+03  0.16965413187E+03  0.00000000000E+00 0. -1.
         21   -1    0    0  502  503 -0.00000000000E+00 -0.00000000000E+00 -0.24408964104E+03  0.24408964104E+03  0.00000000000E+00 0. -1.
         -6    2    1    2    0  503 -0.44498702458E+02  0.10441316234E+03 -0.30716265456E+02  0.20819775216E+03  0.17181551749E+03 0.  0.
        -24    2    3    3    0    0 -0.56941924546E+02  0.55365141813E+02 -0.78482614238E+02  0.13845353254E+03  0.81866832341E+02 0.  0.
          6    2    1    2  501    0  0.44498702458E+02 -0.10441316234E+03 -0.43719243708E+02  0.20554602075E+03  0.16569716770E+03 0.  0.
         24    2    5    5    0    0  0.20320837284E+02 -0.12234117213E+02  0.22143132943E+02  0.89608588555E+02  0.83527065999E+02 0.  0.
          5    1    5    5  501    0  0.24177865175E+02 -0.92179045131E+02 -0.65862376651E+02  0.11593743219E+03  0.47000000000E+01 0. -1.
        -11    1    6    6    0    0  0.26396538553E+02 -0.45441630580E+02  0.86790189640E+01  0.53263912808E+02  0.00000000000E+00 0.  1.
         12    1    6    6    0    0 -0.60757012698E+01  0.33207513367E+02  0.13464113979E+02  0.36344675748E+02  0.00000000000E+00 0. -1.
         -5    1    3    3    0  503  0.12443222087E+02  0.49048020531E+02  0.47766348782E+02  0.69744219617E+02  0.47000000000E+01 0.  1.
         13    1    4    4    0    0  0.44508729582E+01  0.17366664737E+02  0.12829344359E+02  0.22045484591E+02  0.00000000000E+00 0. -1.
        -14    1    4    4    0    0 -0.61392797504E+02  0.37998477076E+02 -0.91311958598E+02  0.11640804795E+03  0.00000000000E+00 0.  1.
</event>
<event>
12    1  0.9966151E-001  0.2778418E+03  0.7818608E-02  0.1096931E+00
         21   -1    0    0  501  502  0.00000000000E+00  0.00000000000E+00  0.21684685064E+03  0.21684685064E+03  0.00000000000E+00 0. -1.
         21   -1    0    0  502  503 -0.00000000000E+00 -0.00000000000E+00 -0.45739116190E+03  0.45739116190E+03  0.00000000000E+00 0. -1.
         -6    2    1    2    0  503 -0.13363790666E+03 -0.17286171902E+03  0.38946520404E+02  0.28014259388E+03  0.17094670941E+03 0.  0.
        -24    2    3    3    0    0 -0.57803161822E+02 -0.11318985369E+02  0.10812598685E+02  0.99420235358E+02  0.79360859131E+02 0.  0.
          6    2    1    2  501    0  0.13363790666E+03  0.17286171902E+03 -0.27949083166E+03  0.39409541866E+03  0.17162695018E+03 0.  0.
         24    2    5    5    0    0  0.16857036041E+01  0.59140182290E+02 -0.13412604006E+03  0.16716594846E+03  0.80338390230E+02 0.  0.
          5    1    5    5  501    0  0.13195220306E+03  0.11372153673E+03 -0.14536479160E+03  0.22692947020E+03  0.47000000000E+01 0. -1.
        -13    1    6    6    0    0  0.23548319554E+02  0.52174717707E+02 -0.13229433353E+03  0.14414754665E+03  0.00000000000E+00 0.  1.
         14    1    6    6    0    0 -0.21862615950E+02  0.69654645837E+01 -0.18317065301E+01  0.23018401809E+02  0.00000000000E+00 0. -1.
         -5    1    3    3    0  503 -0.75834744838E+02 -0.16154273365E+03  0.28133921719E+02  0.18072235853E+03  0.47000000000E+01 0.  1.
         13    1    4    4    0    0 -0.33386661743E+02 -0.43042353079E+02 -0.82280616124E+01  0.55090964221E+02  0.00000000000E+00 0. -1.
        -14    1    4    4    0    0 -0.24416500079E+02  0.31723367710E+02  0.19040660297E+02  0.44329271137E+02  0.00000000000E+00 0.  1.
</event>
<event>
12    1  0.9966151E-001  0.1990886E+03  0.7818608E-02  0.1150872E+00
         21   -1    0    0  501  502  0.00000000000E+00  0.00000000000E+00  0.53701690870E+03  0.53701690870E+03  0.00000000000E+00 0.  1.
         21   -1    0    0  502  503 -0.00000000000E+00 -0.00000000000E+00 -0.82030540410E+02  0.82030540410E+02  0.00000000000E+00 0.  1.
         -6    2    1    2    0  503  0.14311083831E+02  0.97518399487E+02  0.32829079538E+03  0.38306435013E+03  0.17102281910E+03 0.  0.
        -24    2    3    3    0    0  0.47454891645E+02  0.10288921022E+03  0.31888566915E+03  0.34788049014E+03  0.80589137681E+02 0.  0.
          6    2    1    2  501    0 -0.14311083831E+02 -0.97518399487E+02  0.12669557291E+03  0.23598309898E+03  0.17297863870E+03 0.  0.
         24    2    5    5    0    0 -0.13945217570E+02 -0.10716285933E+03  0.28011301597E+02  0.13671666523E+03  0.78920631149E+02 0.  0.
          5    1    5    5  501    0 -0.36586626028E+00  0.96444598451E+01  0.98684271315E+02  0.99266433747E+02  0.47000000000E+01 0. -1.
        -13    1    6    6    0    0  0.74085236328E+01  0.71475557321E+01  0.17045622766E+02  0.19912986487E+02  0.00000000000E+00 0.  1.
         14    1    6    6    0    0 -0.21353741203E+02 -0.11431041506E+03  0.10965678832E+02  0.11680367874E+03  0.00000000000E+00 0. -1.
         -5    1    3    3    0  503 -0.33143807814E+02 -0.53708107291E+01  0.94051262229E+01  0.35183859987E+02  0.47000000000E+01 0.  1.
         11    1    4    4    0    0 -0.71496799449E+01  0.33208415227E+02  0.28631481056E+02  0.44426101254E+02  0.00000000000E+00 0. -1.
        -12    1    4    4    0    0  0.54604571590E+02  0.69680794989E+02  0.29025418810E+03  0.30345438889E+03  0.00000000000E+00 0.  1.
</event>
<event>
12    1  0.9966151E-001  0.1795192E+03  0.7818608E-02  0.1169002E+00
         21   -1    0    0  501  502  0.00000000000E+00  0.00000000000E+00  0.87093647828E+03  0.87093647828E+03  0.00000000000E+00 0.  1.
         21   -1    0    0  502  503 -0.00000000000E+00 -0.00000000000E+00 -0.87495743837E+02  0.87495743837E+02  0.00000000000E+00 0.  1.
         -6    2    1    2    0  503 -0.74947175463E+01 -0.37825078077E+02  0.26845018483E+02  0.18151531519E+03  0.17532896883E+03 0.  0.
        -24    2    3    3    0    0  0.41487798741E+02 -0.65312038602E+02  0.48171968689E+02  0.12125132341E+03  0.79965273901E+02 0.  0.
          6    2    1    2  501    0  0.74947175463E+01  0.37825078077E+02  0.75659571596E+03  0.77691690692E+03  0.17226693105E+03 0.  0.
         24    2    5    5    0    0 -0.57100807732E+02 -0.53421666157E+01  0.39043523188E+03  0.40257537436E+03  0.79612943430E+02 0.  0.
          5    1    5    5  501    0  0.64595525278E+02  0.43167244693E+02  0.36616048408E+03  0.37434153256E+03  0.47000000000E+01 0. -1.
        -13    1    6    6    0    0  0.60160913014E+01 -0.26084328409E+02  0.17776267220E+03  0.17976694126E+03  0.00000000000E+00 0.  1.
         14    1    6    6    0    0 -0.63116899033E+02  0.20742161793E+02  0.21267255967E+03  0.22280843309E+03  0.00000000000E+00 0. -1.
         -5    1    3    3    0  503 -0.48982516287E+02  0.27486960525E+02 -0.21326950206E+02  0.60263991784E+02  0.47000000000E+01 0.  1.
         13    1    4    4    0    0  0.41358678206E+02 -0.11341796160E+02  0.51692594589E+02  0.67166218729E+02  0.00000000000E+00 0. -1.
        -14    1    4    4    0    0  0.12912053457E+00 -0.53970242442E+02 -0.35206258992E+01  0.54085104679E+02  0.00000000000E+00 0.  1.
</event>
<event>
12    1  0.9966151E-001  0.2333892E+03  0.7818608E-02  0.1124367E+00
         21   -1    0    0  503  502  0.00000000000E+00  0.00000000000E+00  0.26906040024E+03  0.26906040024E+03  0.00000000000E+00 0.  1.
         21   -1    0    0  501  503 -0.00000000000E+00 -0.00000000000E+00 -0.23396224242E+03  0.23396224242E+03  0.00000000000E+00 0.  1.
          6    2    1    2  501    0  0.24706055035E+01 -0.15631130843E+03  0.11050225356E+03  0.25775479047E+03  0.17259042539E+03 0.  0.
         24    2    3    3    0    0  0.37031288777E+01 -0.21421792518E+01  0.44301513743E+02  0.89902869257E+02  0.78112737024E+02 0.  0.
         -6    2    1    2    0  502 -0.24706055035E+01  0.15631130843E+03 -0.75404095742E+02  0.24526785218E+03  0.17329516042E+03 0.  0.
        -24    2    5    5    0    0 -0.90443093030E+01  0.97483859734E+02  0.25487270957E+02  0.12819932449E+03  0.78743656124E+02 0.  0.
          5    1    3    3  501    0 -0.12325233742E+01 -0.15416912917E+03  0.66200739818E+02  0.16785192122E+03  0.47000000000E+01 0. -1.
        -13    1    4    4    0    0  0.29891042204E+02  0.10395004827E+02  0.51078858505E+02  0.60088104609E+02  0.00000000000E+00 0.  1.
         14    1    4    4    0    0 -0.26187913326E+02 -0.12537184079E+02 -0.67773447616E+01  0.29814764648E+02  0.00000000000E+00 0. -1.
         -5    1    5    5    0  502  0.65737037995E+01  0.58827448691E+02 -0.10089136670E+03  0.11706852769E+03  0.47000000000E+01 0.  1.
         13    1    6    6    0    0 -0.12125329498E+02  0.47222094555E+02 -0.26776883527E+02  0.55623298365E+02  0.00000000000E+00 0. -1.
        -14    1    6    6    0    0  0.30810201952E+01  0.50261765179E+02  0.52264154484E+02  0.72576026126E+02  0.00000000000E+00 0.  1.
</event>
<event>
12    1  0.9966151E-001  0.5134879E+03  0.7818608E-02  0.1010339E+00
         21   -1    0    0  503  502  0.00000000000E+00  0.00000000000E+00  0.19669412404E+04  0.19669412404E+04  0.00000000000E+00 0.  1.
         21   -1    0    0  501  503 -0.00000000000E+00 -0.00000000000E+00 -0.21924190671E+03  0.21924190671E+03  0.00000000000E+00 0.  1.
          6    2    1    2  501    0 -0.10466352668E+03 -0.47197269196E+03  0.15554194672E+04  0.16378753845E+04  0.17202726690E+03 0.  0.
         24    2    3    3    0    0 -0.12555084267E+03 -0.25519759734E+03  0.84182199886E+03  0.89177139820E+03  0.75519011432E+02 0.  0.
         -6    2    1    2    0  502  0.10466352668E+03  0.47197269196E+03  0.19227986647E+03  0.54830776254E+03  0.17308142489E+03 0.  0.
        -24    2    5    5    0    0  0.64127681026E+02  0.45340323264E+03  0.15808218843E+03  0.49192025696E+03  0.85490994087E+02 0.  0.
          5    1    3    3  501    0  0.20887315996E+02 -0.21677509462E+03  0.71359746834E+03  0.74610398634E+03  0.47000000000E+01 0. -1.
        -11    1    4    4    0    0 -0.89480772182E+02 -0.17825624449E+03  0.68448878685E+03  0.71295651804E+03  0.00000000000E+00 0.  1.
         12    1    4    4    0    0 -0.36070070492E+02 -0.76941352850E+02  0.15733321201E+03  0.17881488016E+03  0.00000000000E+00 0. -1.
         -5    1    5    5    0  502  0.40535845652E+02  0.18569459319E+02  0.34197678042E+02  0.56387505580E+02  0.47000000000E+01 0.  1.
         13    1    6    6    0    0 -0.20054681764E+02  0.93804563260E+02  0.22752649357E+02  0.98585847878E+02  0.00000000000E+00 0. -1.
        -14    1    6    6    0    0  0.84182362791E+02  0.35959866938E+03  0.13532953907E+03  0.39333440909E+03  0.00000000000E+00 0.  1.
</event>
<event>
12    1  0.9966151E-001  0.2990868E+03  0.7818608E-02  0.1085709E+00
         21   -1    0    0  501  502  0.00000000000E+00  0.00000000000E+00  0.84811986944E+03  0.84811986944E+03  0.00000000000E+00 0.  1.
         21   -1    0    0  502  503 -0.00000000000E+00 -0.00000000000E+00 -0.15935749756E+03  0.15935749756E+03  0.00000000000E+00 0.  1.
         -6    2    1    2    0  503 -0.24357697289E+03 -0.25871684231E+02  0.63735708223E+03  0.70400508612E+03  0.17146435561E+03 0.  0.
        -24    2    3    3    0    0 -0.18548569697E+03  0.33369165515E+02  0.35707239396E+03  0.41165996286E+03  0.80279421419E+02 0.  0.
          6    2    1    2  501    0  0.24357697289E+03  0.25871684231E+02  0.51405289646E+02  0.30347228088E+03  0.17162119825E+03 0.  0.
         24    2    5    5    0    0  0.12203097480E+03  0.58323814809E+01  0.92156430000E+02  0.17363488739E+03  0.82040788908E+02 0.  0.
          5    1    5    5  501    0  0.12154599809E+03  0.20039302750E+02 -0.40751140355E+02  0.12983739349E+03  0.47000000000E+01 0. -1.
        -13    1    6    6    0    0 -0.20572860061E+01  0.80347764980E-01 -0.11600392711E+02  0.11781680377E+02  0.00000000000E+00 0.  1.
         14    1    6    6    0    0  0.12408826080E+03  0.57520337160E+01  0.10375682271E+03  0.16185320701E+03  0.00000000000E+00 0. -1.
         -5    1    3    3    0  503 -0.58091275924E+02 -0.59240849746E+02  0.28028468827E+03  0.29234512327E+03  0.47000000000E+01 0.  1.
         11    1    4    4    0    0 -0.75236505988E+02 -0.15599774186E+02  0.19521352261E+03  0.20979085823E+03  0.00000000000E+00 0. -1.
        -12    1    4    4    0    0 -0.11024919098E+03  0.48968939701E+02  0.16185887135E+03  0.20186910463E+03  0.00000000000E+00 0.  1.
</event>
<event>
12    1  0.9966151E-001  0.3570997E+03  0.7818608E-02  0.1059741E+00
         21   -1    0    0  501  502  0.00000000000E+00  0.00000000000E+00  0.13819524660E+03  0.13819524660E+03  0.00000000000E+00 0.  1.
         21   -1    0    0  502  503 -0.00000000000E+00 -0.00000000000E+00 -0.14217874881E+04  0.14217874881E+04  0.00000000000E+00 0.  1.
         -6    2    1    2    0  503 -0.14674741763E+03 -0.27628241322E+03 -0.17965028260E+03  0.39972069068E+03  0.17215002203E+03 0.  0.
        -24    2    3    3    0    0 -0.11459859500E+03 -0.20959414629E+03 -0.19873974558E+03  0.32312193520E+03  0.88587552191E+02 0.  0.
          6    2    1    2  501    0  0.14674741763E+03  0.27628241322E+03 -0.11039419589E+04  0.11602620440E+04  0.17220158459E+03 0.  0.
         24    2    5    5    0    0  0.28381974090E+02  0.80473787378E+02 -0.52589422803E+03  0.53856061621E+03  0.78747897409E+02 0.  0.
          5    1    5    5  501    0  0.11836544354E+03  0.19580862585E+03 -0.57804773085E+03  0.62170142780E+03  0.47000000000E+01 0. -1.
        -13    1    6    6    0    0 -0.12084663629E+02 -0.10384386746E+02 -0.95759060463E+02  0.97075600662E+02  0.00000000000E+00 0.  1.
         14    1    6    6    0    0  0.40466637719E+02  0.90858174124E+02 -0.43013516757E+03  0.44148501555E+03  0.00000000000E+00 0. -1.
         -5    1    3    3    0  503 -0.32148822633E+02 -0.66688266937E+02  0.19089462983E+02  0.76598755478E+02  0.47000000000E+01 0.  1.
         11    1    4    4    0    0 -0.11337705308E+03 -0.21112245027E+03 -0.16880860585E+03  0.29312691889E+03  0.00000000000E+00 0. -1.
        -12    1    4    4    0    0 -0.12215419175E+01  0.15283039813E+01 -0.29931139731E+02  0.29995016308E+02  0.00000000000E+00 0.  1.
</event>
<event>
12    1  0.9966151E-001  0.1782246E+03  0.7818608E-02  0.1169699E+00
         21   -1    0    0  501  502  0.00000000000E+00  0.00000000000E+00  0.97689898679E+03  0.97689898679E+03  0.00000000000E+00 0.  1.
         21   -1    0    0  502  503 -0.00000000000E+00 -0.00000000000E+00 -0.62815761300E+02  0.62815761300E+02  0.00000000000E+00 0.  1.
         -6    2    1    2    0  503 -0.19306676084E+02  0.41544153409E+02  0.81838433175E+03  0.83742216125E+03  0.17153511968E+03 0.  0.
        -24    2    3    3    0    0  0.32249056114E+02  0.62102654415E+02  0.68218909695E+03  0.69027639180E+03  0.78757804524E+02 0.  0.
          6    2    1    2  501    0  0.19306676084E+02 -0.41544153409E+02  0.95698893746E+02  0.20229258684E+03  0.17223631441E+03 0.  0.
         24    2    5    5    0    0  0.76461333938E+02 -0.30860543998E+01  0.54541413649E+02  0.12190783417E+03  0.77658836653E+02 0.  0.
          5    1    5    5  501    0 -0.57154657854E+02 -0.38458099009E+02  0.41157480097E+02  0.80384752669E+02  0.47000000000E+01 0. -1.
        -13    1    6    6    0    0 -0.89189790323E+01  0.18821748633E+02  0.11923881410E+02  0.23999694925E+02  0.00000000000E+00 0.  1.
         14    1    6    6    0    0  0.85380312970E+02 -0.21907803033E+02  0.42617532238E+02  0.97908139246E+02  0.00000000000E+00 0. -1.
         -5    1    3    3    0  503 -0.51555732198E+02 -0.20558501006E+02  0.13619523480E+03  0.14714576945E+03  0.47000000000E+01 0.  1.
         11    1    4    4    0    0 -0.73950863293E+01  0.48418071142E+02  0.18677948294E+03  0.19309472329E+03  0.00000000000E+00 0. -1.
        -12    1    4    4    0    0  0.39644142443E+02  0.13684583273E+02  0.49540961401E+03  0.49718166851E+03  0.00000000000E+00 0.  1.
</event>
<event>
12    1  0.9966151E-001  0.2965145E+03  0.7818608E-02  0.1087100E+00
         21   -1    0    0  503  502  0.00000000000E+00  0.00000000000E+00  0.99834729679E+03  0.99834729679E+03  0.00000000000E+00 0.  1.
         21   -1    0    0  501  503 -0.00000000000E+00 -0.00000000000E+00 -0.99442274204E+02  0.99442274204E+02  0.00000000000E+00 0. -1.
          6    2    1    2  501    0 -0.11514881169E+02  0.24100204728E+03  0.26128330432E+03  0.39459519861E+03  0.17094392756E+03 0.  0.
         24    2    3    3    0    0 -0.61689259222E+02  0.21731394685E+03  0.22093674888E+03  0.32583089937E+03  0.79509821899E+02 0.  0.
         -6    2    1    2    0  502  0.11514881169E+02 -0.24100204728E+03  0.63762171827E+03  0.70319437238E+03  0.17235512890E+03 0.  0.
        -24    2    5    5    0    0 -0.53524054786E+01 -0.17272319990E+03  0.27986664707E+03  0.33856128649E+03  0.80227504875E+02 0.  0.
          5    1    3    3  501    0  0.50174378052E+02  0.23688100434E+02  0.40346555436E+02  0.68764299245E+02  0.47000000000E+01 0. -1.
        -13    1    4    4    0    0 -0.10189063367E+02  0.92421581660E+02  0.43057676762E+02  0.10246721084E+03  0.00000000000E+00 0.  1.
         14    1    4    4    0    0 -0.51500195855E+02  0.12489236519E+03  0.17787907212E+03  0.22336368853E+03  0.00000000000E+00 0. -1.
         -5    1    5    5    0  502  0.16867286648E+02 -0.68278847385E+02  0.35775507120E+03  0.36463308590E+03  0.47000000000E+01 0.  1.
         13    1    6    6    0    0  0.19778405691E+02 -0.14361081767E+03  0.17729703831E+03  0.22901854091E+03  0.00000000000E+00 0. -1.
        -14    1    6    6    0    0 -0.25130811170E+02 -0.29112382224E+02  0.10256960875E+03  0.10954274558E+03  0.00000000000E+00 0.  1.
</event>
<event>
12    1  0.9966151E-001  0.2684168E+03  0.7818608E-02  0.1102741E+00
         21   -1    0    0  501  502  0.00000000000E+00  0.00000000000E+00  0.30883517275E+03  0.30883517275E+03  0.00000000000E+00 0.  1.
         21   -1    0    0  502  503 -0.00000000000E+00 -0.00000000000E+00 -0.24638198608E+03  0.24638198608E+03  0.00000000000E+00 0.  1.
         -6    2    1    2    0  503  0.36448725510E+02  0.20302109083E+03 -0.40147319515E+02  0.27140259938E+03  0.17175998013E+03 0.  0.
        -24    2    3    3    0    0  0.62659176919E+02  0.49732204745E+02 -0.15071234970E+02  0.11381018086E+03  0.79537101426E+02 0.  0.
          6    2    1    2  501    0 -0.36448725510E+02 -0.20302109083E+03  0.10260050618E+03  0.28381455945E+03  0.16576419207E+03 0.  0.
         24    2    5    5    0    0 -0.51375209479E+02 -0.20551268707E+03  0.53791439156E+02  0.23249767139E+03  0.79289164324E+02 0.  0.
          5    1    5    5  501    0  0.14926483969E+02  0.24915962489E+01  0.48809067026E+02  0.51316888053E+02  0.47000000000E+01 0. -1.
        -11    1    6    6    0    0 -0.60508542582E+02 -0.90520572235E+02  0.41370974076E+02  0.11647667242E+03  0.00000000000E+00 0.  1.
         12    1    6    6    0    0  0.91333331032E+01 -0.11499211484E+03  0.12420465080E+02  0.11602099897E+03  0.00000000000E+00 0. -1.
         -5    1    3    3    0  503 -0.26210451409E+02  0.15328888608E+03 -0.25076084544E+02  0.15759241852E+03  0.47000000000E+01 0.  1.
         13    1    4    4    0    0  0.17978147326E+02  0.23984789451E+02  0.32101544629E+02  0.43920303663E+02  0.00000000000E+00 0. -1.
        -14    1    4    4    0    0  0.44681029593E+02  0.25747415293E+02 -0.47172779599E+02  0.69889877199E+02  0.00000000000E+00 0.  1.
</event>
<event>
12    1  0.9966151E-001  0.2083629E+03  0.7818608E-02  0.1142916E+00
         21   -1    0    0  503  502  0.00000000000E+00  0.00000000000E+00  0.10628442490E+03  0.10628442490E+03  0.00000000000E+00 0.  1.
         21   -1    0    0  501  503 -0.00000000000E+00 -0.00000000000E+00 -0.42408766276E+03  0.42408766276E+03  0.00000000000E+00 0.  1.
          6    2    1    2  501    0  0.26309425373E+02 -0.11401956404E+03 -0.10719624035E+03  0.23411135648E+03  0.17211753671E+03 0.  0.
         24    2    3    3    0    0  0.27452466005E+02 -0.34583992843E+01 -0.87915715660E+02  0.12177745098E+03  0.79592563037E+02 0.  0.
         -6    2    1    2    0  502 -0.26309425373E+02  0.11401956404E+03 -0.21060699751E+03  0.29626073118E+03  0.17240204927E+03 0.  0.
        -24    2    5    5    0    0  0.17082230947E+02  0.96698462135E+02 -0.62549951562E+02  0.14093579672E+03  0.79422963705E+02 0.  0.
          5    1    3    3  501    0 -0.11430406318E+01 -0.11056116476E+03 -0.19280524689E+02  0.11233390551E+03  0.47000000000E+01 0. -1.
        -11    1    4    4    0    0 -0.27024105831E+02 -0.31354413241E+00 -0.44421542121E+02  0.51996865390E+02  0.00000000000E+00 0.  1.
         12    1    4    4    0    0  0.54476571836E+02 -0.31448551519E+01 -0.43494173538E+02  0.69780585586E+02  0.00000000000E+00 0. -1.
         -5    1    5    5    0  502 -0.43391656320E+02  0.17321101905E+02 -0.14805704595E+03  0.15532493446E+03  0.47000000000E+01 0.  1.
         13    1    6    6    0    0  0.42881151812E+02  0.31548974191E+02 -0.42303003099E+02  0.67997610432E+02  0.00000000000E+00 0. -1.
        -14    1    6    6    0    0 -0.25798920865E+02  0.65149487943E+02 -0.20246948463E+02  0.72938186289E+02  0.00000000000E+00 0.  1.
</event>
<event>
12    1  0.9966151E-001  0.2475887E+03  0.7818608E-02  0.1115045E+00
         21   -1    0    0  503  502  0.00000000000E+00  0.00000000000E+00  0.29821057261E+03  0.29821057261E+03  0.00000000000E+00 0.  1.
         21   -1    0    0  501  503 -0.00000000000E+00 -0.00000000000E+00 -0.48867014296E+03  0.48867014296E+03  0.00000000000E+00 0.  1.
          6    2    1    2  501    0  0.61727028695E+01 -0.17716027835E+03  0.20469684883E+03  0.32124909165E+03  0.17284765686E+03 0.  0.
         24    2    3    3    0    0 -0.29171690466E+02 -0.24853945874E+02  0.92493192469E+02  0.12874403833E+03  0.80940290360E+02 0.  0.
         -6    2    1    2    0  502 -0.61727028695E+01  0.17716027835E+03 -0.39515641918E+03  0.46563162392E+03  0.17099809089E+03 0.  0.
        -24    2    5    5    0    0 -0.45286877753E+02  0.16553645529E+03 -0.34544784735E+03  0.40114857147E+03  0.11014872596E+03 0.  0.
          5    1    3    3  501    0  0.35344393336E+02 -0.15230633247E+03  0.11220365637E+03  0.19250505332E+03  0.47000000000E+01 0. -1.
        -11    1    4    4    0    0 -0.44151601899E+02 -0.44157677822E+02  0.79431419140E+02  0.10103769003E+03  0.00000000000E+00 0.  1.
         12    1    4    4    0    0  0.14979911433E+02  0.19303731948E+02  0.13061773329E+02  0.27706348301E+02  0.00000000000E+00 0. -1.
         -5    1    5    5    0  502  0.39114174884E+02  0.11623823059E+02 -0.49708571837E+02  0.64483052451E+02  0.47000000000E+01 0.  1.
         11    1    6    6    0    0  0.36746109044E+02  0.53292018486E+02 -0.10227547839E+03  0.12103961849E+03  0.00000000000E+00 0. -1.
        -12    1    6    6    0    0 -0.82032986797E+02  0.11224443680E+03 -0.24317236896E+03  0.28010895298E+03  0.00000000000E+00 0.  1.
</event>
<event>
12    1  0.9966151E-001  0.2002555E+03  0.7818608E-02  0.1149971E+00
         21   -1    0    0  503  502  0.00000000000E+00  0.00000000000E+00  0.14087577796E+04  0.14087577796E+04  0.00000000000E+00 0. -1.
         21   -1    0    0  501  503 -0.00000000000E+00 -0.00000000000E+00 -0.28778242380E+02  0.28778242380E+02  0.00000000000E+00 0. -1.
          6    2    1    2  501    0  0.88361832798E+02  0.43967811397E+02  0.79117202055E+03  0.81560630744E+03  0.17181239971E+03 0.  0.
         24    2    3    3    0    0  0.67345487053E+02  0.31514540672E+02  0.23573638139E+03  0.25961385246E+03  0.79367058526E+02 0.  0.
         -6    2    1    2    0  502 -0.88361832798E+02 -0.43967811397E+02  0.58880751671E+03  0.62192971458E+03  0.17424493167E+03 0.  0.
        -24    2    5    5    0    0 -0.40090170570E+02 -0.38383413352E+02  0.13809557483E+03  0.16858141203E+03  0.79175731742E+02 0.  0.
          5    1    3    3  501    0  0.21016345745E+02  0.12453270726E+02  0.55543563916E+03  0.55599245498E+03  0.47000000000E+01 0. -1.
        -11    1    4    4    0    0  0.13615983641E+02 -0.17886891063E+02  0.14752393667E+02  0.26888082887E+02  0.00000000000E+00 0.  1.
         12    1    4    4    0    0  0.53729503412E+02  0.49401431735E+02  0.22098398772E+03  0.23272576958E+03  0.00000000000E+00 0. -1.
         -5    1    5    5    0  502 -0.48271662228E+02 -0.55843980451E+01  0.45071194188E+03  0.45334830255E+03  0.47000000000E+01 0.  1.
         11    1    6    6    0    0 -0.31143632869E+02  0.15576632203E+02  0.87088162486E+02  0.93791819388E+02  0.00000000000E+00 0. -1.
        -12    1    6    6    0    0 -0.89465377014E+01 -0.53960045555E+02  0.51007412346E+02  0.74789592641E+02  0.00000000000E+00 0.  1.
</event>
<event>
12    1  0.9966151E-001  0.2202857E+03  0.7818608E-02  0.1133759E+00
         21   -1    0    0  501  502  0.00000000000E+00  0.00000000000E+00  0.15278367679E+03  0.15278367679E+03  0.00000000000E+00 0.  1.
         21   -1    0    0  502  503 -0.00000000000E+00 -0.00000000000E+00 -0.10891509920E+04  0.10891509920E+04  0.00000000000E+00 0.  1.
         -6    2    1    2    0  503 -0.98096101869E+01  0.13664941341E+03  0.54837469503E+02  0.22654671400E+03  0.17189233528E+03 0.  0.
        -24    2    3    3    0    0 -0.13381752728E+02  0.41691720476E+01  0.45511416209E+02  0.93607480429E+02  0.80589193353E+02 0.  0.
          6    2    1    2  501    0  0.98096101869E+01 -0.13664941341E+03 -0.99120478472E+03  0.10153879548E+04  0.17250067499E+03 0.  0.
         24    2    5    5    0    0 -0.31783507945E+02 -0.15043367559E+03 -0.85366349811E+03  0.87095911806E+03  0.78663429893E+02 0.  0.
          5    1    5    5  501    0  0.41593118132E+02  0.13784262187E+02 -0.13754128662E+03  0.14442883675E+03  0.47000000000E+01 0. -1.
        -11    1    6    6    0    0  0.19454468775E+02 -0.95528062631E+02 -0.49825325574E+03  0.50770108722E+03  0.00000000000E+00 0.  1.
         12    1    6    6    0    0 -0.51237976720E+02 -0.54905612963E+02 -0.35541024236E+03  0.36325803084E+03  0.00000000000E+00 0. -1.
         -5    1    3    3    0  503  0.35721425413E+01  0.13248024136E+03  0.93260532946E+01  0.13293923357E+03  0.47000000000E+01 0.  1.
         11    1    4    4    0    0  0.46271122206E+01  0.16104647667E+02 -0.19141942683E+02  0.25439807658E+02  0.00000000000E+00 0. -1.
        -12    1    4    4    0    0 -0.18008864949E+02 -0.11935475620E+02  0.64653358892E+02  0.68167672771E+02  0.00000000000E+00 0.  1.
</event>
<event>
12    1  0.9966151E-001  0.2731505E+03  0.7818608E-02  0.1099584E+00
         21   -1    0    0  503  502  0.00000000000E+00  0.00000000000E+00  0.23689359834E+03  0.23689359834E+03  0.00000000000E+00 0. -1.
         21   -1    0    0  501  503 -0.00000000000E+00 -0.00000000000E+00 -0.37790471750E+03  0.37790471750E+03  0.00000000000E+00 0. -1.
          6    2    1    2  501    0  0.17060522614E+03 -0.12472113014E+03  0.55788966654E+02  0.27813607750E+03  0.17200513166E+03 0.  0.
         24    2    3    3    0    0  0.17934613136E+03 -0.63137453524E+02  0.22784036576E+02  0.20756435470E+03  0.80077937966E+02 0.  0.
         -6    2    1    2    0  502 -0.17060522614E+03  0.12472113014E+03 -0.19680008582E+03  0.33666223834E+03  0.17305977423E+03 0.  0.
        -24    2    5    5    0    0 -0.11328314204E+03  0.13402593703E+03 -0.85827099134E+02  0.21132471590E+03  0.80596665808E+02 0.  0.
          5    1    3    3  501    0 -0.87409052162E+01 -0.61583676614E+02  0.33004930078E+02  0.70571722798E+02  0.47000000000E+01 0. -1.
        -13    1    4    4    0    0  0.59109152982E+02 -0.18206228096E+02  0.46056286960E+02  0.77113813784E+02  0.00000000000E+00 0.  1.
         14    1    4    4    0    0  0.12023697838E+03 -0.44931225428E+02 -0.23272250384E+02  0.13045054092E+03  0.00000000000E+00 0. -1.
         -5    1    5    5    0  502 -0.57322084104E+02 -0.93048068883E+01 -0.11097298668E+03  0.12533752244E+03  0.47000000000E+01 0.  1.
         11    1    6    6    0    0 -0.48606375188E+02  0.46940257597E+02  0.78137384791E+01  0.68022216968E+02  0.00000000000E+00 0. -1.
        -12    1    6    6    0    0 -0.64676766849E+02  0.87085679429E+02 -0.93640837613E+02  0.14330249893E+03  0.00000000000E+00 0.  1.
</event>
<event>
12    1  0.9966151E-001  0.1813790E+03  0.7818608E-02  0.1167242E+00
         21   -1    0    0  503  502  0.00000000000E+00  0.00000000000E+00  0.72944474583E+03  0.72944474583E+03  0.00000000000E+00 0.  1.
         21   -1    0    0  501  503 -0.00000000000E+00 -0.00000000000E+00 -0.68657801748E+02  0.68657801748E+02  0.00000000000E+00 0.  1.
          6    2    1    2  501    0  0.54249218401E+02 -0.27993745264E+02  0.56987672952E+03  0.59804499123E+03  0.17079724007E+03 0.  0.
         24    2    3    3    0    0  0.98927053410E+02  0.23962895149E+01  0.36613888538E+03  0.38721125984E+03  0.77990847304E+02 0.  0.
         -6    2    1    2    0  502 -0.54249218401E+02  0.27993745264E+02  0.90910214568E+02  0.20005755635E+03  0.16742679376E+03 0.  0.
        -24    2    5    5    0    0  0.17062956019E+02  0.58202932317E+02  0.56404422431E+02  0.11514135711E+03  0.79983419838E+02 0.  0.
          5    1    3    3  501    0 -0.44677835010E+02 -0.30390034779E+02  0.20373784414E+03  0.21083373139E+03  0.47000000000E+01 0. -1.
        -11    1    4    4    0    0  0.70222531066E+02 -0.38930916823E+01  0.11823133848E+03  0.13756819920E+03  0.00000000000E+00 0.  1.
         12    1    4    4    0    0  0.28704522345E+02  0.62893811972E+01  0.24790754689E+03  0.24964306064E+03  0.00000000000E+00 0. -1.
         -5    1    5    5    0  502 -0.71312174420E+02 -0.30209187053E+02  0.34505792137E+02  0.84916199243E+02  0.47000000000E+01 0.  1.
         13    1    6    6    0    0  0.13569816203E+02 -0.98401913407E+00 -0.16361212425E+02  0.21279038452E+02  0.00000000000E+00 0. -1.
        -14    1    6    6    0    0  0.34931398168E+01  0.59186951451E+02  0.72765634856E+02  0.93862318657E+02  0.00000000000E+00 0.  1.
</event>
<event>
12    1  0.9966151E-001  0.2044267E+03  0.7818608E-02  0.1146830E+00
         21   -1    0    0  503  502  0.00000000000E+00  0.00000000000E+00  0.27732911281E+03  0.27732911281E+03  0.00000000000E+00 0.  1.
         21   -1    0    0  501  503 -0.00000000000E+00 -0.00000000000E+00 -0.25468579757E+03  0.25468579757E+03  0.00000000000E+00 0.  1.
          6    2    1    2  501    0  0.10676336706E+03  0.30312167403E+02 -0.16094153896E+03  0.25725376308E+03  0.16721266584E+03 0.  0.
         24    2    3    3    0    0  0.85847702187E+02  0.67949069387E+02 -0.69102185831E+02  0.15571284418E+03  0.86512853122E+02 0.  0.
         -6    2    1    2    0  502 -0.10676336706E+03 -0.30312167403E+02  0.18358485420E+03  0.27476114730E+03  0.17167715438E+03 0.  0.
        -24    2    5    5    0    0 -0.13994282979E+03  0.77617672196E+01  0.13497843653E+03  0.20451034600E+03  0.62936973641E+02 0.  0.
          5    1    3    3  501    0  0.20915664874E+02 -0.37636901983E+02 -0.91839353131E+02  0.10154091890E+03  0.47000000000E+01 0. -1.
        -13    1    4    4    0    0  0.74648170617E+02  0.56400106331E+02 -0.89676039656E+02  0.12959596236E+03  0.00000000000E+00 0.  1.
         14    1    4    4    0    0  0.11199531570E+02  0.11548963056E+02  0.20573853826E+02  0.26116881825E+02  0.00000000000E+00 0. -1.
         -5    1    5    5    0  502  0.33179462734E+02 -0.38073934623E+02  0.48606417668E+02  0.70250801302E+02  0.47000000000E+01 0.  1.
         11    1    6    6    0    0 -0.10922250645E+03  0.70014953040E+01  0.13498564923E+03  0.17378061558E+03  0.00000000000E+00 0. -1.
        -12    1    6    6    0    0 -0.30720323344E+02  0.76027191566E+00 -0.72127016371E-02  0.30729730422E+02  0.00000000000E+00 0.  1.
</event>
<event>
12    1  0.9966151E-001  0.1816267E+03  0.7818608E-02  0.1167344E+00
         21   -1    0    0  503  502  0.00000000000E+00  0.00000000000E+00  0.15024097553E+02  0.15024097553E+02  0.00000000000E+00 0.  1.
         21   -1    0    0  501  503 -0.00000000000E+00 -0.00000000000E+00 -0.23829836641E+04  0.23829836641E+04  0.00000000000E+00 0.  1.
          6    2    1    2  501    0  0.84790024588E+00 -0.45268616401E+02 -0.15796712148E+04  0.15900784307E+04  0.17589287239E+03 0.  0.
         24    2    3    3    0    0  0.59963793674E+02 -0.64429764861E+02 -0.11448914979E+04  0.11508548764E+04  0.77094445088E+02 0.  0.
         -6    2    1    2    0  502 -0.84790024588E+00  0.45268616401E+02 -0.78828835181E+03  0.80792933095E+03  0.17117625899E+03 0.  0.
        -24    2    5    5    0    0 -0.38076841082E+02  0.35472631418E+02 -0.22608087667E+03  0.24438581847E+03  0.76835617167E+02 0.  0.
          5    1    3    3  501    0 -0.59115893428E+02  0.19161148461E+02 -0.43477971687E+03  0.43922355432E+03  0.47000000000E+01 0. -1.
        -13    1    4    4    0    0  0.52314087241E+02 -0.55553261255E+02 -0.49408654850E+03  0.49994444289E+03  0.00000000000E+00 0.  1.
         14    1    4    4    0    0  0.76497064334E+01 -0.88765036061E+01 -0.65080494940E+03  0.65091043354E+03  0.00000000000E+00 0. -1.
         -5    1    5    5    0  502  0.37228940836E+02  0.97959849826E+01 -0.56220747514E+03  0.56354351248E+03  0.47000000000E+01 0.  1.
         11    1    6    6    0    0 -0.26086910092E+02 -0.13363416896E+02 -0.29930073553E+02  0.41891730594E+02  0.00000000000E+00 0. -1.
        -12    1    6    6    0    0 -0.11989930989E+02  0.48836048314E+02 -0.19615080312E+03  0.20249408787E+03  0.00000000000E+00 0.  1.
</event>
<event>
12    1  0.9966151E-001  0.1767525E+03  0.7818608E-02  0.1171603E+00
         21   -1    0    0  501  502  0.00000000000E+00  0.00000000000E+00  0.52484290941E+02  0.52484290941E+02  0.00000000000E+00 0.  1.
         21   -1    0    0  502  503 -0.00000000000E+00 -0.00000000000E+00 -0.66505043336E+03  0.66505043336E+03  0.00000000000E+00 0.  1.
         -6    2    1    2    0  503 -0.37732530435E+02 -0.71210520531E+00 -0.42733383202E+03  0.46150258929E+03  0.17013578396E+03 0.  0.
        -24    2    3    3    0    0 -0.72786856505E+02  0.41342674864E+02 -0.23840282499E+03  0.26474277195E+03  0.79029646904E+02 0.  0.
          6    2    1    2  501    0  0.37732530435E+02  0.71210520531E+00 -0.18523231039E+03  0.25603213500E+03  0.17267656006E+03 0.  0.
         24    2    5    5    0    0  0.53113623226E+02  0.56082355074E+02 -0.15603526356E+03  0.19140241947E+03  0.79508459828E+02 0.  0.
          5    1    5    5  501    0 -0.15381092791E+02 -0.55370249868E+02 -0.29197046835E+02  0.64629715533E+02  0.47000000000E+01 0. -1.
        -11    1    6    6    0    0 -0.31277708581E+01  0.49817720514E+02 -0.47019631425E+02  0.68574295236E+02  0.00000000000E+00 0.  1.
         12    1    6    6    0    0  0.56241394084E+02  0.62646345598E+01 -0.10901563213E+03  0.12282812424E+03  0.00000000000E+00 0. -1.
         -5    1    3    3    0  503  0.35054326070E+02 -0.42054780070E+02 -0.18893100703E+03  0.19675981735E+03  0.47000000000E+01 0.  1.
         11    1    4    4    0    0  0.12406781448E+02  0.71188235904E+01 -0.83176087472E+02  0.84397081717E+02  0.00000000000E+00 0. -1.
        -12    1    4    4    0    0 -0.85193637953E+02  0.34223851274E+02 -0.15522673752E+03  0.18034569023E+03  0.00000000000E+00 0.  1.
</event>
<event>
12    1  0.9966151E-001  0.3960355E+03  0.7818608E-02  0.1045175E+00
         21   -1    0    0  501  502  0.00000000000E+00  0.00000000000E+00  0.17294719434E+03  0.17294719434E+03  0.00000000000E+00 0.  1.
         21   -1    0    0  502  503 -0.00000000000E+00 -0.00000000000E+00 -0.11008145350E+04  0.11008145350E+04  0.00000000000E+00 0. -1.
         -6    2    1    2    0  503 -0.34276155791E+03 -0.98034350451E+02 -0.19645296813E+03  0.44208361358E+03  0.17247589182E+03 0.  0.
        -24    2    3    3    0    0 -0.11068790130E+03 -0.64922073068E+02 -0.28955763969E+02  0.15393086172E+03  0.79934891355E+02 0.  0.
          6    2    1    2  501    0  0.34276155791E+03  0.98034350451E+02 -0.73141437251E+03  0.83167811573E+03  0.17211997105E+03 0.  0.
         24    2    5    5    0    0  0.92957962419E+02  0.32979351183E+02 -0.15379849634E+03  0.19898847646E+03  0.78826492403E+02 0.  0.
          5    1    5    5  501    0  0.24980359549E+03  0.65054999268E+02 -0.57761587616E+03  0.63268963927E+03  0.47000000000E+01 0. -1.
        -11    1    6    6    0    0  0.47110805405E+02  0.57397397309E+02 -0.93587897865E+02  0.11946791967E+03  0.00000000000E+00 0.  1.
         12    1    6    6    0    0  0.45847157013E+02 -0.24418046125E+02 -0.60210598480E+02  0.79520556789E+02  0.00000000000E+00 0. -1.
         -5    1    3    3    0  503 -0.23207365660E+03 -0.33112277383E+02 -0.16749720416E+03  0.28815275186E+03  0.47000000000E+01 0.  1.
         13    1    4    4    0    0 -0.54966425230E+02 -0.73434675999E+02 -0.32840371279E+02  0.97429202641E+02  0.00000000000E+00 0. -1.
        -14    1    4    4    0    0 -0.55721476075E+02  0.85126029309E+01  0.38846073096E+01  0.56501659078E+02  0.00000000000E+00 0.  1.
</event>
<event>
12    1  0.9966151E-001  0.2093378E+03  0.7818608E-02  0.1142422E+00
         21   -1    0    0  503  502  0.00000000000E+00  0.00000000000E+00  0.11076457047E+03  0.11076457047E+03  0.00000000000E+00 0.  1.
         21   -1    0    0  501  503 -0.00000000000E+00 -0.00000000000E+00 -0.39292078852E+03  0.39292078852E+03  0.00000000000E+00 0.  1.
          6    2    1    2  501    0  0.11967509123E+03  0.51313770141E+01 -0.13352288283E+03  0.24829555119E+03  0.17167953287E+03 0.  0.
         24    2    3    3    0    0  0.48986398813E+02  0.68763118231E+02 -0.71782922572E+02  0.13480633399E+03  0.76758882309E+02 0.  0.
         -6    2    1    2    0  502 -0.11967509123E+03 -0.51313770141E+01 -0.14863333522E+03  0.25538980781E+03  0.16965738150E+03 0.  0.
        -24    2    5    5    0    0  0.46365344189E+01  0.16434990968E+02 -0.55118842397E+02  0.98273485072E+02  0.79548631048E+02 0.  0.
          5    1    3    3  501    0  0.70688692421E+02 -0.63631741216E+02 -0.61739960263E+02  0.11348921720E+03  0.47000000000E+01 0. -1.
        -11    1    4    4    0    0  0.14951535748E+02  0.20659102909E+02 -0.71464857765E+02  0.75878671902E+02  0.00000000000E+00 0.  1.
         12    1    4    4    0    0  0.34034863065E+02  0.48104015321E+02 -0.31806480714E+00  0.58927662088E+02  0.00000000000E+00 0. -1.
         -5    1    5    5    0  502 -0.12431162565E+03 -0.21566367982E+02 -0.93514492827E+02  0.15711632273E+03  0.47000000000E+01 0.  1.
         11    1    6    6    0    0 -0.36339587789E+02  0.27520857381E+01 -0.35325593216E+02  0.50754676166E+02  0.00000000000E+00 0. -1.
        -12    1    6    6    0    0  0.40976122208E+02  0.13682905230E+02 -0.19793249180E+02  0.47518808906E+02  0.00000000000E+00 0.  1.
</event>
<event>
12    1  0.9966151E-001  0.1063947E+04  0.7818608E-02  0.9241103E-01
         21   -1    0    0  501  502  0.00000000000E+00  0.00000000000E+00  0.12325714512E+04  0.12325714512E+04  0.00000000000E+00 0. -1.
         21   -1    0    0  502  503 -0.00000000000E+00 -0.00000000000E+00 -0.91850796342E+03  0.91850796342E+03  0.00000000000E+00 0.  1.
         -6    2    1    2    0  503  0.45594129462E+03  0.94569509979E+03  0.17503124815E+03  0.10780865210E+04  0.17150196229E+03 0.  0.
        -24    2    3    3    0    0  0.37122731492E+03  0.70454961048E+03  0.75773436451E+02  0.80385703947E+03  0.79023118475E+02 0.  0.
          6    2    1    2  501    0 -0.45594129462E+03 -0.94569509979E+03  0.13903223959E+03  0.10729928936E+04  0.17251695584E+03 0.  0.
         24    2    5    5    0    0 -0.30164745436E+03 -0.48484845101E+03  0.10224510598E+03  0.58558997395E+03  0.79952165220E+02 0.  0.
          5    1    5    5  501    0 -0.15429384026E+03 -0.46084664878E+03  0.36787133611E+02  0.48740291960E+03  0.47000000000E+01 0. -1.
        -13    1    6    6    0    0 -0.15922058105E+03 -0.32779118939E+03  0.71283294956E+02  0.37132137753E+03  0.00000000000E+00 0.  1.
         14    1    6    6    0    0 -0.14242687332E+03 -0.15705726162E+03  0.30961811027E+02  0.21426859642E+03  0.00000000000E+00 0. -1.
         -5    1    3    3    0  503  0.84713979701E+02  0.24114548931E+03  0.99257811697E+02  0.27422948156E+03  0.47000000000E+01 0.  1.
         11    1    4    4    0    0  0.88793733577E+02  0.15327919695E+03 -0.15247989181E+02  0.17779578317E+03  0.00000000000E+00 0. -1.
        -12    1    4    4    0    0  0.28243358134E+03  0.55127041353E+03  0.91021425632E+02  0.62606125629E+03  0.00000000000E+00 0.  1.
</event>
<event>
12    1  0.9966151E-001  0.5388644E+03  0.7818608E-02  0.1004106E+00
         21   -1    0    0  503  502  0.00000000000E+00  0.00000000000E+00  0.89007787698E+03  0.89007787698E+03  0.00000000000E+00 0.  1.
         21   -1    0    0  501  503 -0.00000000000E+00 -0.00000000000E+00 -0.34522696270E+03  0.34522696270E+03  0.00000000000E+00 0. -1.
          6    2    1    2  501    0  0.38646536391E+03  0.33385376623E+03  0.12749904614E+03  0.55372032132E+03  0.17186149291E+03 0.  0.
         24    2    3    3    0    0  0.37889558282E+03  0.34519817016E+03  0.10892113421E+03  0.53019956670E+03  0.80772072461E+02 0.  0.
         -6    2    1    2    0  502 -0.38646536391E+03 -0.33385376623E+03  0.41735186815E+03  0.68158451837E+03  0.17193329843E+03 0.  0.
        -24    2    5    5    0    0 -0.30557578462E+03 -0.33122900734E+03  0.34648257382E+03  0.57390647847E+03  0.78925639854E+02 0.  0.
          5    1    3    3  501    0  0.75697810903E+01 -0.11344403929E+02  0.18577911925E+02  0.23520754617E+02  0.47000000000E+01 0. -1.
        -13    1    4    4    0    0  0.16465948761E+03  0.17611335886E+03  0.87316407728E+02  0.25642312120E+03  0.00000000000E+00 0.  1.
         14    1    4    4    0    0  0.21423609521E+03  0.16908481130E+03  0.21604726486E+02  0.27377644550E+03  0.00000000000E+00 0. -1.
         -5    1    5    5    0  502 -0.80889579291E+02 -0.26247588868E+01  0.70869294328E+02  0.10767803990E+03  0.47000000000E+01 0.  1.
         11    1    6    6    0    0 -0.15556671290E+03 -0.13038821819E+03  0.11837845607E+03  0.23497988949E+03  0.00000000000E+00 0. -1.
        -12    1    6    6    0    0 -0.15000907172E+03 -0.20084078916E+03  0.22810411774E+03  0.33892658898E+03  0.00000000000E+00 0.  1.
</event>
<event>
12    1  0.9966151E-001  0.2105626E+03  0.7818608E-02  0.1141175E+00
         21   -1    0    0  503  502  0.00000000000E+00  0.00000000000E+00  0.97767327818E+03  0.97767327818E+03  0.00000000000E+00 0. -1.
         21   -1    0    0  501  503 -0.00000000000E+00 -0.00000000000E+00 -0.51041162308E+02  0.51041162308E+02  0.00000000000E+00 0. -1.
          6    2    1    2  501    0 -0.73080038018E+02 -0.96390686644E+02  0.63623227410E+03  0.67017022488E+03  0.17235071013E+03 0.  0.
         24    2    3    3    0    0 -0.11009427081E+03 -0.77234728967E+02  0.38353612489E+03  0.41401707153E+03  0.78893755151E+02 0.  0.
         -6    2    1    2    0  502  0.73080038018E+02  0.96390686644E+02  0.29039984178E+03  0.35854421561E+03  0.17201752822E+03 0.  0.
        -24    2    5    5    0    0  0.44305157247E+02  0.85896000045E+02  0.30053167750E+03  0.32594243184E+03  0.81105547942E+02 0.  0.
          5    1    3    3  501    0  0.37014232797E+02 -0.19155957677E+02  0.25269614921E+03  0.25615315335E+03  0.47000000000E+01 0. -1.
        -13    1    4    4    0    0 -0.28488920346E+02  0.48536697980E+01  0.28498350185E+02  0.40587346012E+02  0.00000000000E+00 0.  1.
         14    1    4    4    0    0 -0.81605350468E+02 -0.82088398765E+02  0.35503777470E+03  0.37342972552E+03  0.00000000000E+00 0. -1.
         -5    1    5    5    0  502  0.28774880770E+02  0.10494686599E+02 -0.10131835725E+02  0.32601783775E+02  0.47000000000E+01 0.  1.
         11    1    6    6    0    0  0.29444754979E+02  0.11511022760E+01  0.29969063331E+02  0.42029315830E+02  0.00000000000E+00 0. -1.
        -12    1    6    6    0    0  0.14860402268E+02  0.84744897769E+02  0.27056261417E+03  0.28391311601E+03  0.00000000000E+00 0.  1.
</event>
<event>
12    1  0.9966151E-001  0.2623226E+03  0.7818608E-02  0.1105772E+00
         21   -1    0    0  501  502  0.00000000000E+00  0.00000000000E+00  0.16937860150E+04  0.16937860150E+04  0.00000000000E+00 0. -1.
         21   -1    0    0  502  503 -0.00000000000E+00 -0.00000000000E+00 -0.49913212633E+02  0.49913212633E+02  0.00000000000E+00 0.  1.
         -6    2    1    2    0  503  0.72162485819E+02 -0.18395634333E+03  0.44540507288E+03  0.51685856019E+03  0.17236511156E+03 0.  0.
        -24    2    3    3    0    0  0.44794293758E+02 -0.75913160127E+02  0.35146700858E+03  0.37102030287E+03  0.79735001038E+02 0.  0.
          6    2    1    2  501    0 -0.72162485819E+02  0.18395634333E+03  0.11984677295E+04  0.12268406675E+04  0.17252757479E+03 0.  0.
         24    2    5    5    0    0 -0.79127778865E+02  0.10306151394E+03  0.10125903647E+04  0.10239491361E+04  0.79055080195E+02 0.  0.
          5    1    5    5  501    0  0.69652930466E+01  0.80894829391E+02  0.18587736481E+03  0.20289153131E+03  0.47000000000E+01 0. -1.
        -11    1    6    6    0    0 -0.53622170722E+02  0.20270209380E+02  0.57608559587E+03  0.57893076646E+03  0.00000000000E+00 0.  1.
         12    1    6    6    0    0 -0.25505608143E+02  0.82791304555E+02  0.43650476882E+03  0.44501836968E+03  0.00000000000E+00 0. -1.
         -5    1    3    3    0  503  0.27368192061E+02 -0.10804318320E+03  0.93938064300E+02  0.14583825732E+03  0.47000000000E+01 0.  1.
         13    1    4    4    0    0  0.27415314070E+02 -0.85376175789E+02  0.21240021429E+03  0.23055268784E+03  0.00000000000E+00 0. -1.
        -14    1    4    4    0    0  0.17378979688E+02  0.94630156618E+01  0.13906679428E+03  0.14046761503E+03  0.00000000000E+00 0.  1.
</event>
<event>
12    1  0.9966151E-001  0.2515045E+03  0.7818608E-02  0.1112382E+00
         21   -1    0    0  501  502  0.00000000000E+00  0.00000000000E+00  0.29004758033E+03  0.29004758033E+03  0.00000000000E+00 0. -1.
         21   -1    0    0  502  503 -0.00000000000E+00 -0.00000000000E+00 -0.22031035393E+03  0.22031035393E+03  0.00000000000E+00 0. -1.
         -6    2    1    2    0  503  0.13171692110E+03  0.12820181447E+03  0.61273966664E+02  0.25871107114E+03  0.17144056346E+03 0.  0.
        -24    2    3    3    0    0  0.89297771906E+02  0.26137602573E+02  0.79831726972E+02  0.14653724158E+03  0.80267005699E+02 0.  0.
          6    2    1    2  501    0 -0.13171692110E+03 -0.12820181447E+03  0.84632597340E+01  0.25164686313E+03  0.17166672485E+03 0.  0.
         24    2    5    5    0    0 -0.95942989672E+02 -0.11934559518E+03 -0.52256455982E+02  0.18046273101E+03  0.79922660947E+02 0.  0.
          5    1    5    5  501    0 -0.35773931431E+02 -0.88562192866E+01  0.60719715716E+02  0.71184132127E+02  0.47000000000E+01 0. -1.
        -13    1    6    6    0    0 -0.82561559629E+02 -0.78685443334E+02 -0.14942366035E+01  0.11406157488E+03  0.00000000000E+00 0.  1.
         14    1    6    6    0    0 -0.13381430043E+02 -0.40660151851E+02 -0.50762219379E+02  0.66401156125E+02  0.00000000000E+00 0. -1.
         -5    1    3    3    0  503  0.42419149196E+02  0.10206421190E+03 -0.18557760307E+02  0.11217382955E+03  0.47000000000E+01 0.  1.
         11    1    4    4    0    0  0.67818258445E+02  0.37987000396E+02  0.90917599452E+02  0.11961746640E+03  0.00000000000E+00 0. -1.
        -12    1    4    4    0    0  0.21479513461E+02 -0.11849397823E+02 -0.11085872481E+02  0.26919775184E+02  0.00000000000E+00 0.  1.
</event>
<event>
12    1  0.9966151E-001  0.1992549E+03  0.7818608E-02  0.1151742E+00
         21   -1    0    0  501  502  0.00000000000E+00  0.00000000000E+00  0.31535333670E+03  0.31535333670E+03  0.00000000000E+00 0. -1.
         21   -1    0    0  502  503 -0.00000000000E+00 -0.00000000000E+00 -0.15360697709E+03  0.15360697709E+03  0.00000000000E+00 0. -1.
         -6    2    1    2    0  503  0.88880599244E+02  0.70975722567E+01 -0.24590194688E+02  0.20076649547E+03  0.17819195149E+03 0.  0.
        -24    2    3    3    0    0  0.15371202830E+02  0.68600485667E+02 -0.23544350472E+02  0.10480075414E+03  0.74071324538E+02 0.  0.
          6    2    1    2  501    0 -0.88880599244E+02 -0.70975722567E+01  0.18633655429E+03  0.26819381833E+03  0.17104524626E+03 0.  0.
         24    2    5    5    0    0  0.18264119170E+02 -0.16425074514E+02  0.44451955483E+02  0.90091818443E+02  0.74412353022E+02 0.  0.
          5    1    5    5  501    0 -0.10714471841E+03  0.93275022573E+01  0.14188459881E+03  0.17810199988E+03  0.47000000000E+01 0. -1.
        -11    1    6    6    0    0  0.45509683358E+02 -0.96620911109E+01  0.40615590367E+02  0.61758509251E+02  0.00000000000E+00 0.  1.
         12    1    6    6    0    0 -0.27245564189E+02 -0.67629834032E+01  0.38363651157E+01  0.28333309192E+02  0.00000000000E+00 0. -1.
         -5    1    3    3    0  503  0.73509396414E+02 -0.61502913410E+02 -0.10458442160E+01  0.95965741331E+02  0.47000000000E+01 0.  1.
         13    1    4    4    0    0  0.37249033825E+02  0.10026859939E+02 -0.18545937777E+01  0.38619528211E+02  0.00000000000E+00 0. -1.
        -14    1    4    4    0    0 -0.21877830995E+02  0.58573625727E+02 -0.21689756695E+02  0.66181225928E+02  0.00000000000E+00 0.  1.
</event>
<event>
12    1  0.9966151E-001  0.4256389E+03  0.7818608E-02  0.1035339E+00
         21   -1    0    0  501  502  0.00000000000E+00  0.00000000000E+00  0.17837017890E+03  0.17837017890E+03  0.00000000000E+00 0.  1.
         21   -1    0    0  502  503 -0.00000000000E+00 -0.00000000000E+00 -0.11384197834E+04  0.11384197834E+04  0.00000000000E+00 0.  1.
         -6    2    1    2    0  503  0.28257819474E+03 -0.26578150067E+03 -0.69804375700E+03  0.81697443651E+03  0.17231338014E+03 0.  0.
        -24    2    3    3    0    0  0.23023782575E+03 -0.27414493733E+03 -0.56331656400E+03  0.67211944753E+03  0.79082851458E+02 0.  0.
          6    2    1    2  501    0 -0.28257819474E+03  0.26578150067E+03 -0.26200584750E+03  0.49981552580E+03  0.17515208666E+03 0.  0.
         24    2    5    5    0    0 -0.19193318542E+03  0.14417660449E+03 -0.85554947685E+02  0.26708976758E+03  0.79950321610E+02 0.  0.
          5    1    5    5  501    0 -0.90645009317E+02  0.12160489618E+03 -0.17645089982E+03  0.23272575821E+03  0.47000000000E+01 0. -1.
        -13    1    6    6    0    0 -0.11342040062E+03  0.42296368212E+02 -0.63142207789E+02  0.13652878248E+03  0.00000000000E+00 0.  1.
         14    1    6    6    0    0 -0.78512784801E+02  0.10188023628E+03 -0.22412739896E+02  0.13056098511E+03  0.00000000000E+00 0. -1.
         -5    1    3    3    0  503  0.52340368983E+02  0.83634366597E+01 -0.13472719300E+03  0.14485498897E+03  0.47000000000E+01 0.  1.
         13    1    4    4    0    0  0.17485724812E+03 -0.14913947928E+03 -0.34606574612E+03  0.41542645816E+03  0.00000000000E+00 0. -1.
        -14    1    4    4    0    0  0.55380577636E+02 -0.12500545805E+03 -0.21725081788E+03  0.25669298937E+03  0.00000000000E+00 0.  1.
</event>
<event>
12    1  0.9966151E-001  0.1793651E+03  0.7818608E-02  0.1168529E+00
         21   -1    0    0  501  502  0.00000000000E+00  0.00000000000E+00  0.12831472671E+03  0.12831472671E+03  0.00000000000E+00 0.  1.
         21   -1    0    0  502  503 -0.00000000000E+00 -0.00000000000E+00 -0.34594170993E+03  0.34594170993E+03  0.00000000000E+00 0.  1.
         -6    2    1    2    0  503  0.28003720027E+02  0.42345026347E+02  0.16100533026E+02  0.17963736587E+03  0.17156062037E+03 0.  0.
        -24    2    3    3    0    0  0.51754341511E+02  0.73649740737E+02  0.46710431074E+02  0.12960604546E+03  0.80703571618E+02 0.  0.
          6    2    1    2  501    0 -0.28003720027E+02 -0.42345026347E+02 -0.23372751624E+03  0.29461907076E+03  0.17203062348E+03 0.  0.
         24    2    5    5    0    0  0.33393772176E+02 -0.39677790753E+02 -0.20706028255E+03  0.22746255546E+03  0.78586146549E+02 0.  0.
          5    1    5    5  501    0 -0.61397492203E+02 -0.26672355943E+01 -0.26667233698E+02  0.67156515303E+02  0.47000000000E+01 0. -1.
        -11    1    6    6    0    0  0.11500522823E+02  0.21234576987E+02 -0.95294835506E+02  0.98307044300E+02  0.00000000000E+00 0.  1.
         12    1    6    6    0    0  0.21893249353E+02 -0.60912367740E+02 -0.11176544704E+03  0.12915551116E+03  0.00000000000E+00 0. -1.
         -5    1    3    3    0  503 -0.23750621484E+02 -0.31304714390E+02 -0.30609898048E+02  0.50031320415E+02  0.47000000000E+01 0.  1.
         11    1    4    4    0    0  0.45715947082E+02  0.89913648102E+02  0.29323357010E+02  0.10504413929E+03  0.00000000000E+00 0. -1.
        -12    1    4    4    0    0  0.60383944288E+01 -0.16263907366E+02  0.17387074064E+02  0.24561906167E+02  0.00000000000E+00 0.  1.
</event>
<event>
12    1  0.9966151E-001  0.2386549E+03  0.7818608E-02  0.1120875E+00
         21   -1    0    0  503  502  0.00000000000E+00  0.00000000000E+00  0.39854417394E+03  0.39854417394E+03  0.00000000000E+00 0. -1.
         21   -1    0    0  501  503 -0.00000000000E+00 -0.00000000000E+00 -0.33833699750E+03  0.33833699750E+03  0.00000000000E+00 0. -1.
          6    2    1    2  501    0  0.14457512306E+03 -0.77487210991E+02 -0.25040689500E+03  0.34517048792E+03  0.17185115243E+03 0.  0.
         24    2    3    3    0    0  0.41660302670E+02 -0.51825913401E+02 -0.43928237558E+02  0.11299493273E+03  0.80104048889E+02 0.  0.
         -6    2    1    2    0  502 -0.14457512306E+03  0.77487210991E+02  0.31061407143E+03  0.39171068352E+03  0.17334913941E+03 0.  0.
        -24    2    5    5    0    0 -0.12205244485E+03  0.80504812315E+01  0.12408658264E+03  0.19135269254E+03  0.79099705490E+02 0.  0.
          5    1    3    3  501    0  0.10291482039E+03 -0.25661297590E+02 -0.20647865744E+03  0.23217555519E+03  0.47000000000E+01 0. -1.
        -13    1    4    4    0    0  0.51175988148E+02 -0.62219324780E+01 -0.41200915508E+01  0.51717205658E+02  0.00000000000E+00 0.  1.
         14    1    4    4    0    0 -0.95156854777E+01 -0.45603980923E+02 -0.39808146008E+02  0.61277727069E+02  0.00000000000E+00 0. -1.
         -5    1    5    5    0  502 -0.22522678214E+02  0.69436729760E+02  0.18652748880E+03  0.20035799098E+03  0.47000000000E+01 0.  1.
         11    1    6    6    0    0  0.88001533121E+01  0.25652194488E+00 -0.24710160626E+01  0.91440922024E+01  0.00000000000E+00 0. -1.
        -12    1    6    6    0    0 -0.13085259816E+03  0.77939592866E+01  0.12655759870E+03  0.18220860033E+03  0.00000000000E+00 0.  1.
</event>
<event>
12    1  0.9966151E-001  0.2051306E+03  0.7818608E-02  0.1147801E+00
         21   -1    0    0  503  502  0.00000000000E+00  0.00000000000E+00  0.33375271831E+03  0.33375271831E+03  0.00000000000E+00 0.  1.
         21   -1    0    0  501  503 -0.00000000000E+00 -0.00000000000E+00 -0.12897884808E+03  0.12897884808E+03  0.00000000000E+00 0.  1.
          6    2    1    2  501    0 -0.24968470928E+02  0.86654300602E+02  0.16807965093E+03  0.26519676258E+03  0.18424484111E+03 0.  0.
         24    2    3    3    0    0 -0.55435422225E+02  0.65738894541E+02  0.30792585714E+02  0.12294516292E+03  0.82296059797E+02 0.  0.
         -6    2    1    2    0  502  0.24968470928E+02 -0.86654300602E+02  0.36694219300E+02  0.19753480381E+03  0.17187536365E+03 0.  0.
        -24    2    5    5    0    0  0.71992319506E+02 -0.60664016481E+02 -0.13135592847E+02  0.12410567210E+03  0.79791334651E+02 0.  0.
          5    1    3    3  501    0  0.30466951298E+02  0.20915406061E+02  0.13728706521E+03  0.14225159966E+03  0.47000000000E+01 0. -1.
        -11    1    4    4    0    0 -0.44699218346E+02  0.24845194162E+02  0.54282802487E+02  0.74578324194E+02  0.00000000000E+00 0.  1.
         12    1    4    4    0    0 -0.10736203880E+02  0.40893700379E+02 -0.23490216774E+02  0.48366838728E+02  0.00000000000E+00 0. -1.
         -5    1    5    5    0  502 -0.47023848579E+02 -0.25990284121E+02  0.49829812148E+02  0.73429131702E+02  0.47000000000E+01 0.  1.
         11    1    6    6    0    0  0.33035675781E+02  0.15917032639E+02  0.25765922765E+01  0.36760666888E+02  0.00000000000E+00 0. -1.
        -12    1    6    6    0    0  0.38956643726E+02 -0.76581049121E+02 -0.15712185124E+02  0.87345005216E+02  0.00000000000E+00 0.  1.
</event>
<event>
12    1  0.9966151E-001  0.2720572E+03  0.7818608E-02  0.1100216E+00
         21   -1    0    0  501  502  0.00000000000E+00  0.00000000000E+00  0.31768856520E+03  0.31768856520E+03  0.00000000000E+00 0.  1.
         21   -1    0    0  502  503 -0.00000000000E+00 -0.00000000000E+00 -0.23256576749E+03  0.23256576749E+03  0.00000000000E+00 0.  1.
         -6    2    1    2    0  503  0.38455221896E+02 -0.20684572515E+03  0.33752329031E+02  0.27338965173E+03  0.17128550392E+03 0.  0.
        -24    2    3    3    0    0  0.30569009880E+01 -0.21864415460E+03  0.18597613767E+02  0.23284338858E+03  0.77817487670E+02 0.  0.
          6    2    1    2  501    0 -0.38455221896E+02  0.20684572515E+03  0.51370468680E+02  0.27686468097E+03  0.17248527012E+03 0.  0.
         24    2    5    5    0    0 -0.69105568946E+02  0.15682229774E+03  0.86637095053E+02  0.20825264121E+03  0.80587614444E+02 0.  0.
          5    1    5    5  501    0  0.30650347051E+02  0.50023427410E+02 -0.35266626373E+02  0.68612039759E+02  0.47000000000E+01 0. -1.
        -11    1    6    6    0    0 -0.76159359876E+02  0.96629146179E+02  0.33153789199E+02  0.12742297174E+03  0.00000000000E+00 0.  1.
         12    1    6    6    0    0  0.70537909291E+01  0.60193151564E+02  0.53483305854E+02  0.80829669471E+02  0.00000000000E+00 0. -1.
         -5    1    3    3    0  503  0.35398320908E+02  0.11798429442E+02  0.15154715264E+02  0.40546263146E+02  0.47000000000E+01 0.  1.
         13    1    4    4    0    0  0.16514834384E+02 -0.98499788399E+02 -0.27283477294E+02  0.10353422720E+03  0.00000000000E+00 0. -1.
        -14    1    4    4    0    0 -0.13457933396E+02 -0.12014436620E+03  0.45881091061E+02  0.12930916138E+03  0.00000000000E+00 0.  1.
</event>
<event>
12    1  0.9966151E-001  0.1979382E+03  0.7818608E-02  0.1151914E+00
         21   -1    0    0  501  502  0.00000000000E+00  0.00000000000E+00  0.84398059076E+02  0.84398059076E+02  0.00000000000E+00 0. -1.
         21   -1    0    0  502  503 -0.00000000000E+00 -0.00000000000E+00 -0.46165119490E+03  0.46165119490E+03  0.00000000000E+00 0. -1.
         -6    2    1    2    0  503  0.79279258094E+02  0.50977503549E+02 -0.17142279592E+03  0.26184980185E+03  0.17405641941E+03 0.  0.
        -24    2    3    3    0    0  0.20946081321E+02 -0.13188510292E+02 -0.15150305594E+03  0.17274916838E+03  0.79223885853E+02 0.  0.
          6    2    1    2  501    0 -0.79279258094E+02 -0.50977503549E+02 -0.20583033991E+03  0.28419945212E+03  0.17181179566E+03 0.  0.
         24    2    5    5    0    0 -0.31095436208E+02 -0.87871263565E+02 -0.71579547071E+02  0.13679458247E+03  0.70006007751E+02 0.  0.
          5    1    5    5  501    0 -0.48183821886E+02  0.36893760016E+02 -0.13425079284E+03  0.14740486965E+03  0.47000000000E+01 0. -1.
        -11    1    6    6    0    0 -0.97283535318E+01 -0.45137481763E+02  0.50931016288E+01  0.46453985906E+02  0.00000000000E+00 0.  1.
         12    1    6    6    0    0 -0.21367082676E+02 -0.42733781802E+02 -0.76672648699E+02  0.90340596565E+02  0.00000000000E+00 0. -1.
         -5    1    3    3    0  503  0.58333176773E+02  0.64166013841E+02 -0.19919739975E+02  0.89100633474E+02  0.47000000000E+01 0.  1.
         13    1    4    4    0    0 -0.14637533508E+02 -0.18086901658E+02 -0.76707817660E+01  0.24499679420E+02  0.00000000000E+00 0. -1.
        -14    1    4    4    0    0  0.35583614828E+02  0.48983913660E+01 -0.14383227418E+03  0.14824948896E+03  0.00000000000E+00 0.  1.
</event>
<event>
12    1  0.9966151E-001  0.2071689E+03  0.7818608E-02  0.1143899E+00
         21   -1    0    0  501  502  0.00000000000E+00  0.00000000000E+00  0.26908784224E+03  0.26908784224E+03  0.00000000000E+00 0.  1.
         21   -1    0    0  502  503 -0.00000000000E+00 -0.00000000000E+00 -0.20442437634E+03  0.20442437634E+03  0.00000000000E+00 0.  1.
         -6    2    1    2    0  503  0.72625972500E+02 -0.89537868513E+02  0.14367787609E+03  0.25211558102E+03  0.17212603619E+03 0.  0.
        -24    2    3    3    0    0  0.83282662291E+02 -0.47477135185E+02  0.16216043146E+03  0.20471974599E+03  0.80150412725E+02 0.  0.
          6    2    1    2  501    0 -0.72625972500E+02  0.89537868513E+02 -0.79014410198E+02  0.22139663756E+03  0.17170216168E+03 0.  0.
         24    2    5    5    0    0 -0.93900245252E+01  0.81664016200E+02 -0.13242504134E+02  0.12969703945E+03  0.99442315058E+02 0.  0.
          5    1    5    5  501    0 -0.63235947975E+02  0.78738523129E+01 -0.65771906064E+02  0.91699598111E+02  0.47000000000E+01 0. -1.
        -11    1    6    6    0    0 -0.52877704863E+02  0.46893033676E+02  0.56471455031E+01  0.70900624337E+02  0.00000000000E+00 0.  1.
         12    1    6    6    0    0  0.43487680338E+02  0.34770982524E+02 -0.18889649637E+02  0.58796415115E+02  0.00000000000E+00 0. -1.
         -5    1    3    3    0  503 -0.10656689791E+02 -0.42060733329E+02 -0.18482555373E+02  0.47395835034E+02  0.47000000000E+01 0.  1.
         11    1    4    4    0    0  0.53110206062E+02 -0.62096688087E+02  0.73397269230E+02  0.10983556705E+03  0.00000000000E+00 0. -1.
        -12    1    4    4    0    0  0.30172456230E+02  0.14619552902E+02  0.88763162234E+02  0.94884178933E+02  0.00000000000E+00 0.  1.
</event>
<event>
12    1  0.9966151E-001  0.1781153E+03  0.7818608E-02  0.1169796E+00
         21   -1    0    0  503  502  0.00000000000E+00  0.00000000000E+00  0.12194358391E+03  0.12194358391E+03  0.00000000000E+00 0. -1.
         21   -1    0    0  501  503 -0.00000000000E+00 -0.00000000000E+00 -0.27831321981E+03  0.27831321981E+03  0.00000000000E+00 0. -1.
          6    2    1    2  501    0  0.19415121503E+02 -0.39367252477E+02 -0.25916856500E+02  0.17999095940E+03  0.17262194097E+03 0.  0.
         24    2    3    3    0    0  0.13292568780E+02 -0.82877988128E+02 -0.10348420000E+02  0.13313868108E+03  0.10282687053E+03 0.  0.
         -6    2    1    2    0  502 -0.19415121503E+02  0.39367252477E+02 -0.13045277940E+03  0.22026584432E+03  0.17196623799E+03 0.  0.
        -24    2    5    5    0    0 -0.75265643445E+02  0.46351855256E+02 -0.10596176714E+03  0.15870315141E+03  0.78392490722E+02 0.  0.
          5    1    3    3  501    0  0.61225527228E+01  0.43510735652E+02 -0.15568436500E+02  0.46852278321E+02  0.47000000000E+01 0. -1.
        -11    1    4    4    0    0  0.82635896466E+01 -0.20028231450E+02 -0.52837943912E+02  0.57107488875E+02  0.00000000000E+00 0.  1.
         12    1    4    4    0    0  0.50289791332E+01 -0.62849756679E+02  0.42489523911E+02  0.76031192204E+02  0.00000000000E+00 0. -1.
         -5    1    5    5    0  502  0.55850521942E+02 -0.69846027788E+01 -0.24491012258E+02  0.61562692913E+02  0.47000000000E+01 0.  1.
         11    1    6    6    0    0 -0.22169666889E+01 -0.30533395285E+00 -0.61031591773E+02  0.61072607317E+02  0.00000000000E+00 0. -1.
        -12    1    6    6    0    0 -0.73048676756E+02  0.46657189208E+02 -0.44930175372E+02  0.97630544092E+02  0.00000000000E+00 0.  1.
</event>
<event>
12    1  0.9966151E-001  0.1773736E+03  0.7818608E-02  0.1170936E+00
         21   -1    0    0  503  502  0.00000000000E+00  0.00000000000E+00  0.49950112637E+02  0.49950112637E+02  0.00000000000E+00 0. -1.
         21   -1    0    0  501  503 -0.00000000000E+00 -0.00000000000E+00 -0.11230361629E+04  0.11230361629E+04  0.00000000000E+00 0. -1.
          6    2    1    2  501    0  0.42697680840E+01 -0.45593265286E+02 -0.14279883861E+03  0.22594051306E+03  0.16899890643E+03 0.  0.
         24    2    3    3    0    0 -0.18005069787E+02  0.24146366950E+02 -0.12308501910E+03  0.14997664410E+03  0.80223701459E+02 0.  0.
         -6    2    1    2    0  502 -0.42697680840E+01  0.45593265286E+02 -0.93028721167E+03  0.94704576249E+03  0.17136044849E+03 0.  0.
        -24    2    5    5    0    0 -0.48846965117E+02  0.76603684220E+02 -0.58128927339E+03  0.59381719131E+03  0.80420687021E+02 0.  0.
          5    1    3    3  501    0  0.22274837871E+02 -0.69739632237E+02 -0.19713819515E+02  0.75963868955E+02  0.47000000000E+01 0. -1.
        -11    1    4    4    0    0 -0.45277816403E+02  0.25727974261E+02 -0.10502701456E+03  0.11722919050E+03  0.00000000000E+00 0.  1.
         12    1    4    4    0    0  0.27272746616E+02 -0.15816073103E+01 -0.18058004532E+02  0.32747453601E+02  0.00000000000E+00 0. -1.
         -5    1    5    5    0  502  0.44577197033E+02 -0.31010418934E+02 -0.34899793827E+03  0.35322857118E+03  0.47000000000E+01 0.  1.
         13    1    6    6    0    0 -0.73474610406E+01  0.85260506341E+01 -0.32980430862E+03  0.32999630408E+03  0.00000000000E+00 0. -1.
        -14    1    6    6    0    0 -0.41499504076E+02  0.68077633586E+02 -0.25148496477E+03  0.26382088723E+03  0.00000000000E+00 0.  1.
</event>
<event>
12    1  0.9966151E-001  0.2572464E+03  0.7818608E-02  0.1108994E+00
         21   -1    0    0  501  502  0.00000000000E+00  0.00000000000E+00  0.23092611799E+03  0.23092611799E+03  0.00000000000E+00 0.  1.
         21   -1    0    0  502  503 -0.00000000000E+00 -0.00000000000E+00 -0.45800941870E+03  0.45800941870E+03  0.00000000000E+00 0.  1.
         -6    2    1    2    0  503 -0.18726284646E+03  0.38458242175E+02 -0.32528547552E+03  0.41471235334E+03  0.17213159318E+03 0.  0.
        -24    2    3    3    0    0 -0.18310244999E+02  0.11328411526E+02 -0.15369306664E+03  0.17233443760E+03  0.74926641929E+02 0.  0.
          6    2    1    2  501    0  0.18726284646E+03 -0.38458242175E+02  0.98202174808E+02  0.27422318335E+03  0.17031816432E+03 0.  0.
         24    2    5    5    0    0  0.12052415345E+03 -0.63300763728E+01  0.12835126035E+03  0.19411494694E+03  0.81488803890E+02 0.  0.
          5    1    5    5  501    0  0.66738693010E+02 -0.32128165802E+02 -0.30149085544E+02  0.80108236416E+02  0.47000000000E+01 0. -1.
        -11    1    6    6    0    0  0.31758287032E+02  0.17305551818E+02 -0.13751848207E+00  0.36167524525E+02  0.00000000000E+00 0.  1.
         12    1    6    6    0    0  0.88765866416E+02 -0.23635628191E+02  0.12848877883E+03  0.15794742241E+03  0.00000000000E+00 0. -1.
         -5    1    3    3    0  503 -0.16895260146E+03  0.27129830649E+02 -0.17159240889E+03  0.24237791574E+03  0.47000000000E+01 0.  1.
         11    1    4    4    0    0 -0.17361723029E+02  0.42851342844E+02 -0.85444438026E+02  0.97151525977E+02  0.00000000000E+00 0. -1.
        -12    1    4    4    0    0 -0.94852196984E+00 -0.31522931317E+02 -0.68248628612E+02  0.75182911624E+02  0.00000000000E+00 0.  1.
</event>
<event>
12    1  0.9966151E-001  0.2190890E+03  0.7818608E-02  0.1134869E+00
         21   -1    0    0  503  502  0.00000000000E+00  0.00000000000E+00  0.12686535474E+04  0.12686535474E+04  0.00000000000E+00 0. -1.
         21   -1    0    0  501  503 -0.00000000000E+00 -0.00000000000E+00 -0.58913807807E+02  0.58913807807E+02  0.00000000000E+00 0. -1.
          6    2    1    2  501    0 -0.12262594440E+03 -0.54078232555E+02  0.10059705903E+04  0.10295517461E+04  0.17331587320E+03 0.  0.
         24    2    3    3    0    0 -0.11387452869E+03  0.25870588207E+00  0.46013247171E+03  0.48092579716E+03  0.81241957409E+02 0.  0.
         -6    2    1    2    0  502  0.12262594440E+03  0.54078232555E+02  0.20376914924E+03  0.29801560904E+03  0.17125962622E+03 0.  0.
        -24    2    5    5    0    0  0.37270832435E+02 -0.15129105077E+02  0.15144755759E+03  0.17621745768E+03  0.80611568155E+02 0.  0.
          5    1    3    3  501    0 -0.87514157127E+01 -0.54336938437E+02  0.54583811862E+03  0.54862594898E+03  0.47000000000E+01 0. -1.
        -11    1    4    4    0    0 -0.85433686150E+02  0.15880888539E+02  0.42200785459E+03  0.43086163288E+03  0.00000000000E+00 0.  1.
         12    1    4    4    0    0 -0.28440842537E+02 -0.15622182657E+02  0.38124617119E+02  0.50064164286E+02  0.00000000000E+00 0. -1.
         -5    1    5    5    0  502  0.85355111966E+02  0.69207337632E+02  0.52321591642E+02  0.12179815135E+03  0.47000000000E+01 0.  1.
         11    1    6    6    0    0 -0.24841977826E+02  0.22408634749E+01  0.52221039628E+02  0.57872120328E+02  0.00000000000E+00 0. -1.
        -12    1    6    6    0    0  0.62112810261E+02 -0.17369968552E+02  0.99226517966E+02  0.11834533736E+03  0.00000000000E+00 0.  1.
</event>
<event>
12    1  0.9966151E-001  0.2476231E+03  0.7818608E-02  0.1114880E+00
         21   -1    0    0  503  502  0.00000000000E+00  0.00000000000E+00  0.88788129122E+02  0.88788129122E+02  0.00000000000E+00 0.  1.
         21   -1    0    0  501  503 -0.00000000000E+00 -0.00000000000E+00 -0.12395301890E+04  0.12395301890E+04  0.00000000000E+00 0.  1.
          6    2    1    2  501    0  0.15120123420E+02  0.17897239941E+03 -0.13320224014E+03  0.28117614569E+03  0.17046245992E+03 0.  0.
         24    2    3    3    0    0  0.40563284420E+01  0.18357906855E+03 -0.15756643740E+03  0.25362014693E+03  0.76014923022E+02 0.  0.
         -6    2    1    2    0  502 -0.15120123420E+02 -0.17897239941E+03 -0.10175398198E+04  0.10471421725E+04  0.16988144884E+03 0.  0.
        -24    2    5    5    0    0  0.43038685079E+02 -0.16045553408E+03 -0.69839650816E+03  0.72218084453E+03  0.78671359268E+02 0.  0.
          5    1    3    3  501    0  0.11063794978E+02 -0.46066691404E+01  0.24364197254E+02  0.27555998761E+02  0.47000000000E+01 0. -1.
        -13    1    4    4    0    0 -0.19390250727E+02  0.12313226946E+03 -0.13785851082E+03  0.18585614494E+03  0.00000000000E+00 0.  1.
         14    1    4    4    0    0  0.23446579169E+02  0.60446799095E+02 -0.19707926572E+02  0.67764001987E+02  0.00000000000E+00 0. -1.
         -5    1    5    5    0  502 -0.58158808499E+02 -0.18516865330E+02 -0.31914331161E+03  0.32496132793E+03  0.47000000000E+01 0.  1.
         11    1    6    6    0    0  0.49086828130E+02 -0.16738567864E+03 -0.66981002068E+03  0.69215095602E+03  0.00000000000E+00 0. -1.
        -12    1    6    6    0    0 -0.60481430507E+01  0.69301445566E+01 -0.28586487478E+02  0.30029888515E+02  0.00000000000E+00 0.  1.
</event>
<event>
12    1  0.9966151E-001  0.4595765E+03  0.7818608E-02  0.1024966E+00
         21   -1    0    0  503  502  0.00000000000E+00  0.00000000000E+00  0.46961701407E+03  0.46961701407E+03  0.00000000000E+00 0.  1.
         21   -1    0    0  501  503 -0.00000000000E+00 -0.00000000000E+00 -0.44930102679E+03  0.44930102679E+03  0.00000000000E+00 0.  1.
          6    2    1    2  501    0  0.41819621443E+03 -0.79062575958E+02 -0.33776187827E+01  0.45873118699E+03  0.17112547713E+03 0.  0.
         24    2    3    3    0    0  0.11294504216E+03  0.38254264455E+01 -0.29143739327E+02  0.14134391238E+03  0.79734105551E+02 0.  0.
         -6    2    1    2    0  502 -0.41819621443E+03  0.79062575958E+02  0.23693606062E+02  0.46018685387E+03  0.17341161674E+03 0.  0.
        -24    2    5    5    0    0 -0.16419746931E+03  0.84888010817E+02 -0.20549007969E+02  0.20225508554E+03  0.79486317002E+02 0.  0.
          5    1    3    3  501    0  0.30525117227E+03 -0.82888002404E+02  0.25766120544E+02  0.31738727461E+03  0.47000000000E+01 0. -1.
        -13    1    4    4    0    0  0.36030095132E+02  0.39317643904E+02 -0.69881353506E+01  0.53785489801E+02  0.00000000000E+00 0.  1.
         14    1    4    4    0    0  0.76914947027E+02 -0.35492217459E+02 -0.22155603976E+02  0.87558422576E+02  0.00000000000E+00 0. -1.
         -5    1    5    5    0  502 -0.25399874513E+03 -0.58254348587E+01  0.44242614032E+02  0.25793176833E+03  0.47000000000E+01 0.  1.
         11    1    6    6    0    0 -0.10078310151E+03  0.10423890234E+02 -0.24954422953E+02  0.10434852305E+03  0.00000000000E+00 0. -1.
        -12    1    6    6    0    0 -0.63414367794E+02  0.74464120583E+02  0.44054149838E+01  0.97906562487E+02  0.00000000000E+00 0.  1.
</event>
<event>
12    1  0.9966151E-001  0.4099984E+03  0.7818608E-02  0.1040432E+00
         21   -1    0    0  501  502  0.00000000000E+00  0.00000000000E+00  0.64595758210E+03  0.64595758210E+03  0.00000000000E+00 0. -1.
         21   -1    0    0  502  503 -0.00000000000E+00 -0.00000000000E+00 -0.32156271132E+03  0.32156271132E+03  0.00000000000E+00 0. -1.
         -6    2    1    2    0  503  0.95884992547E+02  0.35877247272E+03  0.37436664708E+03  0.55520183916E+03  0.17374428562E+03 0.  0.
        -24    2    3    3    0    0  0.10622307723E+02  0.65306026170E+02  0.89064369879E+02  0.13709687620E+03  0.80531863303E+02 0.  0.
          6    2    1    2  501    0 -0.95884992547E+02 -0.35877247272E+03 -0.49971776290E+02  0.41231845426E+03  0.17203985096E+03 0.  0.
         24    2    5    5    0    0 -0.11877241908E+03 -0.33399464282E+03 -0.73683158349E+02  0.37082032434E+03  0.80119886116E+02 0.  0.
          5    1    5    5  501    0  0.22887426529E+02 -0.24777829902E+02  0.23711382059E+02  0.41498129921E+02  0.47000000000E+01 0. -1.
        -11    1    6    6    0    0 -0.10920405520E+03 -0.31142579688E+03 -0.44971357051E+02  0.33306752407E+03  0.00000000000E+00 0.  1.
         12    1    6    6    0    0 -0.95683638785E+01 -0.22568845942E+02 -0.28711801298E+02  0.37752800271E+02  0.00000000000E+00 0. -1.
         -5    1    3    3    0  503  0.85262684824E+02  0.29346644655E+03  0.28530227720E+03  0.41810496296E+03  0.47000000000E+01 0.  1.
         11    1    4    4    0    0  0.27650522209E+02  0.42191284688E+02  0.79698408735E+01  0.51070287307E+02  0.00000000000E+00 0. -1.
        -12    1    4    4    0    0 -0.17028214486E+02  0.23114741481E+02  0.81094529005E+02  0.86026588895E+02  0.00000000000E+00 0.  1.
</event>
<event>
12    1  0.9966151E-001  0.2194215E+03  0.7818608E-02  0.1134483E+00
         21   -1    0    0  501  502  0.00000000000E+00  0.00000000000E+00  0.15052180054E+03  0.15052180054E+03  0.00000000000E+00 0. -1.
         21   -1    0    0  502  503 -0.00000000000E+00 -0.00000000000E+00 -0.86135744467E+03  0.86135744467E+03  0.00000000000E+00 0. -1.
         -6    2    1    2    0  503 -0.47538154855E+02 -0.12661738776E+03  0.46484567330E+02  0.22341257036E+03  0.17164067859E+03 0.  0.
        -24    2    3    3    0    0 -0.54705735663E+02 -0.14609972196E+03  0.12191479305E+01  0.17339273676E+03  0.75668411961E+02 0.  0.
          6    2    1    2  501    0  0.47538154855E+02  0.12661738776E+03 -0.75732021146E+03  0.78846667485E+03  0.17278297259E+03 0.  0.
         24    2    5    5    0    0  0.78161478803E+02  0.85937030182E+02 -0.68801255121E+03  0.70233699802E+03  0.80134875294E+02 0.  0.
          5    1    5    5  501    0 -0.30623323948E+02  0.40680357574E+02 -0.69307660248E+02  0.86129676831E+02  0.47000000000E+01 0. -1.
        -13    1    6    6    0    0  0.57409178572E+00  0.48871744473E+02 -0.35736829317E+03  0.36069498742E+03  0.00000000000E+00 0.  1.
         14    1    6    6    0    0  0.77587387017E+02  0.37065285709E+02 -0.33064425804E+03  0.34164201060E+03  0.00000000000E+00 0. -1.
         -5    1    3    3    0  503  0.71675808081E+01  0.19482334200E+02  0.45265419399E+02  0.50019833605E+02  0.47000000000E+01 0.  1.
         13    1    4    4    0    0  0.15979520383E+02 -0.57926293366E+02 -0.43478901889E+01  0.60247030498E+02  0.00000000000E+00 0. -1.
        -14    1    4    4    0    0 -0.70685256046E+02 -0.88173428590E+02  0.55670381194E+01  0.11314570626E+03  0.00000000000E+00 0.  1.
</event>
<event>
12    1  0.9966151E-001  0.1970650E+03  0.7818608E-02  0.1152708E+00
         21   -1    0    0  501  502  0.00000000000E+00  0.00000000000E+00  0.35243237967E+02  0.35243237967E+02  0.00000000000E+00 0. -1.
         21   -1    0    0  502  503 -0.00000000000E+00 -0.00000000000E+00 -0.11921826942E+04  0.11921826942E+04  0.00000000000E+00 0. -1.
         -6    2    1    2    0  503 -0.51353573375E+02 -0.80736706261E+02 -0.39572080526E+03  0.44111274299E+03  0.16979367207E+03 0.  0.
        -24    2    3    3    0    0  0.26431377905E+02 -0.80362607383E+02 -0.26166796107E+03  0.28605503234E+03  0.78743845945E+02 0.  0.
          6    2    1    2  501    0  0.51353573375E+02  0.80736706261E+02 -0.76121865099E+03  0.78631318919E+03  0.17227591722E+03 0.  0.
         24    2    5    5    0    0  0.95624263460E+02  0.22703638387E+02 -0.46890172570E+03  0.48498445546E+03  0.75376645652E+02 0.  0.
          5    1    5    5  501    0 -0.44270690086E+02  0.58033067874E+02 -0.29231692528E+03  0.30132873373E+03  0.47000000000E+01 0. -1.
        -13    1    6    6    0    0 -0.27404622741E+01  0.22292633451E+02 -0.13643649914E+03  0.13827288214E+03  0.00000000000E+00 0.  1.
         14    1    6    6    0    0  0.98364725734E+02  0.41100493626E+00 -0.33246522657E+03  0.34671157332E+03  0.00000000000E+00 0. -1.
         -5    1    3    3    0  503 -0.77784951280E+02 -0.37409887805E+00 -0.13405284420E+03  0.15505771065E+03  0.47000000000E+01 0.  1.
         11    1    4    4    0    0  0.76803932842E+00 -0.93749216211E+01  0.37392835124E+01  0.10122315990E+02  0.00000000000E+00 0. -1.
        -12    1    4    4    0    0  0.25663338577E+02 -0.70987685762E+02 -0.26540724458E+03  0.27593271635E+03  0.00000000000E+00 0.  1.
</event>
<event>
12    1  0.9966151E-001  0.5769132E+03  0.7818608E-02  0.9954516E-01
         21   -1    0    0  501  502  0.00000000000E+00  0.00000000000E+00  0.27247290819E+03  0.27247290819E+03  0.00000000000E+00 0. -1.
         21   -1    0    0  502  503 -0.00000000000E+00 -0.00000000000E+00 -0.12376081680E+04  0.12376081680E+04  0.00000000000E+00 0. -1.
         -6    2    1    2    0  503  0.87526208142E+02  0.54365895640E+03 -0.39627368228E+03  0.69990120042E+03  0.17205511065E+03 0.  0.
        -24    2    3    3    0    0  0.25369179235E+02  0.19073265825E+03 -0.21075556965E+03  0.29634261944E+03  0.79865485552E+02 0.  0.
          6    2    1    2  501    0 -0.87526208142E+02 -0.54365895640E+03 -0.56886157753E+03  0.81017987577E+03  0.17193614725E+03 0.  0.
         24    2    5    5    0    0 -0.82775522534E+02 -0.52992953903E+03 -0.57757279194E+03  0.79260030890E+03  0.83353561481E+02 0.  0.
          5    1    5    5  501    0 -0.47506856076E+01 -0.13729417371E+02  0.87112144070E+01  0.17579566876E+02  0.47000000000E+01 0. -1.
        -13    1    6    6    0    0 -0.71699683050E+02 -0.34514100583E+03 -0.32512083954E+03  0.47954845298E+03  0.00000000000E+00 0.  1.
         14    1    6    6    0    0 -0.11075839484E+02 -0.18478853320E+03 -0.25245195240E+03  0.31305185592E+03  0.00000000000E+00 0. -1.
         -5    1    3    3    0  503  0.62157028906E+02  0.35292629815E+03 -0.18551811263E+03  0.40355858098E+03  0.47000000000E+01 0.  1.
         13    1    4    4    0    0  0.35294940406E+02  0.33567202373E+02 -0.69001689657E+02  0.84461370276E+02  0.00000000000E+00 0. -1.
        -14    1    4    4    0    0 -0.99257611703E+01  0.15716545588E+03 -0.14175387999E+03  0.21188124917E+03  0.00000000000E+00 0.  1.
</event>
<event>
12    1  0.9966151E-001  0.1885718E+03  0.7818608E-02  0.1160244E+00
         21   -1    0    0  503  502  0.00000000000E+00  0.00000000000E+00  0.34466674365E+03  0.34466674365E+03  0.00000000000E+00 0. -1.
         21   -1    0    0  501  503 -0.00000000000E+00 -0.00000000000E+00 -0.10592526813E+03  0.10592526813E+03  0.00000000000E+00 0.  1.
          6    2    1    2  501    0  0.44765716879E+02  0.52510189719E+02  0.76697382114E+02  0.20357259776E+03  0.17549366000E+03 0.  0.
         24    2    3    3    0    0 -0.20721453832E+02  0.79920038162E+02  0.56556082055E+02  0.12962916473E+03  0.82392589366E+02 0.  0.
         -6    2    1    2    0  502 -0.44765716879E+02 -0.52510189719E+02  0.16204409340E+03  0.24701941402E+03  0.17320223228E+03 0.  0.
        -24    2    5    5    0    0 -0.44812023207E+02 -0.62527124221E+02  0.18836225429E+03  0.21846986562E+03  0.79567484906E+02 0.  0.
          5    1    3    3  501    0  0.65487170711E+02 -0.27409848443E+02  0.20141300059E+02  0.73943433025E+02  0.47000000000E+01 0. -1.
        -13    1    4    4    0    0 -0.25467926401E+02  0.96163826194E+02  0.51180366286E+02  0.11187281456E+03  0.00000000000E+00 0.  1.
         14    1    4    4    0    0  0.47464725693E+01 -0.16243788032E+02  0.53757157688E+01  0.17756350174E+02  0.00000000000E+00 0. -1.
         -5    1    5    5    0  502  0.46306327597E-01  0.10016934503E+02 -0.26318160894E+02  0.28549548401E+02  0.47000000000E+01 0.  1.
         11    1    6    6    0    0  0.22308354885E+02 -0.21430602934E+02  0.67371765408E+02  0.74134258032E+02  0.00000000000E+00 0. -1.
        -12    1    6    6    0    0 -0.67120378092E+02 -0.41096521287E+02  0.12099048888E+03  0.14433560759E+03  0.00000000000E+00 0.  1.
</event>
<event>
12    1  0.9966151E-001  0.1772212E+03  0.7818608E-02  0.1170643E+00
         21   -1    0    0  503  502  0.00000000000E+00  0.00000000000E+00  0.82385488434E+02  0.82385488434E+02  0.00000000000E+00 0. -1.
         21   -1    0    0  501  503 -0.00000000000E+00 -0.00000000000E+00 -0.38023286599E+03  0.38023286599E+03  0.00000000000E+00 0. -1.
          6    2    1    2  501    0 -0.35430425702E+02 -0.88676592761E+01 -0.14581530374E+03  0.22949825318E+03  0.17341682433E+03 0.  0.
         24    2    3    3    0    0  0.12640242600E+02 -0.57182377335E+02 -0.49296181407E+02  0.11124795885E+03  0.80724189910E+02 0.  0.
         -6    2    1    2    0  502  0.35430425702E+02  0.88676592761E+01 -0.15203207381E+03  0.23312010125E+03  0.17290829850E+03 0.  0.
        -24    2    5    5    0    0  0.33845713432E+02 -0.43302624017E+02 -0.15308959749E+03  0.18070390024E+03  0.78719915759E+02 0.  0.
          5    1    3    3  501    0 -0.48070668301E+02  0.48314718059E+02 -0.96519122336E+02  0.11825029433E+03  0.47000000000E+01 0. -1.
        -13    1    4    4    0    0  0.56525736573E+00 -0.59603179733E+02 -0.67003562297E+02  0.89679071754E+02  0.00000000000E+00 0.  1.
         14    1    4    4    0    0  0.12074985234E+02  0.24208023982E+01  0.17707380890E+02  0.21568887098E+02  0.00000000000E+00 0. -1.
         -5    1    5    5    0  502  0.15847122698E+01  0.52170283293E+02  0.10575236745E+01  0.52416201009E+02  0.47000000000E+01 0.  1.
         13    1    6    6    0    0 -0.14914258640E+02  0.12357746426E+02 -0.16880063445E+02  0.25692130107E+02  0.00000000000E+00 0. -1.
        -14    1    6    6    0    0  0.48759972072E+02 -0.55660370444E+02 -0.13620953404E+03  0.15501177013E+03  0.00000000000E+00 0.  1.
</event>
<event>
12    1  0.9966151E-001  0.1908752E+03  0.7818608E-02  0.1158427E+00
         21   -1    0    0  501  502  0.00000000000E+00  0.00000000000E+00  0.45016846069E+03  0.45016846069E+03  0.00000000000E+00 0. -1.
         21   -1    0    0  502  503 -0.00000000000E+00 -0.00000000000E+00 -0.12457271053E+03  0.12457271053E+03  0.00000000000E+00 0. -1.
         -6    2    1    2    0  503 -0.58639585924E+02 -0.57128184112E+02  0.33650800067E+03  0.38687333940E+03  0.17242713175E+03 0.  0.
        -24    2    3    3    0    0 -0.58789151509E+02 -0.57563426840E+01  0.88787750704E+02  0.13383875539E+03  0.80871799487E+02 0.  0.
          6    2    1    2  501    0  0.58639585924E+02  0.57128184112E+02 -0.10912250513E+02  0.18786783183E+03  0.16873948728E+03 0.  0.
         24    2    5    5    0    0 -0.16124564971E+01  0.13470174360E+02  0.46674953187E+02  0.93662171373E+02  0.80062509816E+02 0.  0.
          5    1    5    5  501    0  0.60252042421E+02  0.43658009752E+02 -0.57587203699E+02  0.94205660453E+02  0.47000000000E+01 0. -1.
        -11    1    6    6    0    0  0.37512142046E+02 -0.51233932485E+01  0.20603308987E+02  0.43103437223E+02  0.00000000000E+00 0.  1.
         12    1    6    6    0    0 -0.39124598543E+02  0.18593567608E+02  0.26071644199E+02  0.50558734150E+02  0.00000000000E+00 0. -1.
         -5    1    3    3    0  503  0.14956558548E+00 -0.51371841428E+02  0.24772024997E+03  0.25303458401E+03  0.47000000000E+01 0.  1.
         11    1    4    4    0    0 -0.56557031627E+02 -0.29239104973E+02  0.29775334272E+02  0.70286510918E+02  0.00000000000E+00 0. -1.
        -12    1    4    4    0    0 -0.22321198822E+01  0.23482762289E+02  0.59012416432E+02  0.63552244469E+02  0.00000000000E+00 0.  1.
</event>
<event>
12    1  0.9966151E-001  0.4481168E+03  0.7818608E-02  0.1028352E+00
         21   -1    0    0  503  502  0.00000000000E+00  0.00000000000E+00  0.18553423965E+04  0.18553423965E+04  0.00000000000E+00 0.  1.
         21   -1    0    0  501  503 -0.00000000000E+00 -0.00000000000E+00 -0.11479127975E+03  0.11479127975E+03  0.00000000000E+00 0. -1.
          6    2    1    2  501    0  0.39841368156E+03  0.10703424823E+03  0.11087304025E+04  0.11955330910E+04  0.17270342865E+03 0.  0.
         24    2    3    3    0    0  0.16159582993E+03  0.10705917885E+03  0.56489928551E+03  0.60235767908E+03  0.78413587855E+02 0.  0.
         -6    2    1    2    0  502 -0.39841368156E+03 -0.10703424823E+03  0.63182071423E+03  0.77460058523E+03  0.17498245559E+03 0.  0.
        -24    2    5    5    0    0 -0.83435828272E+02 -0.48448948568E+01  0.13335977404E+03  0.17615333534E+03  0.79121158833E+02 0.  0.
          5    1    3    3  501    0  0.23681785164E+03 -0.24930626355E-01  0.54383111697E+03  0.59317541188E+03  0.47000000000E+01 0. -1.
        -11    1    4    4    0    0  0.13338103623E+03  0.62523265358E+02  0.32640964923E+03  0.35811020461E+03  0.00000000000E+00 0.  1.
         12    1    4    4    0    0  0.28214793690E+02  0.44535913495E+02  0.23848963628E+03  0.24424747447E+03  0.00000000000E+00 0. -1.
         -5    1    5    5    0  502 -0.31497785329E+03 -0.10218935337E+03  0.49846094019E+03  0.59844724989E+03  0.47000000000E+01 0.  1.
         11    1    6    6    0    0  0.15744964230E+02 -0.77377575066E+00  0.16379344651E+02  0.22732917954E+02  0.00000000000E+00 0. -1.
        -12    1    6    6    0    0 -0.99180792502E+02 -0.40711191062E+01  0.11698042939E+03  0.15342041739E+03  0.00000000000E+00 0.  1.
</event>
<event>
12    1  0.9966151E-001  0.1810367E+03  0.7818608E-02  0.1167074E+00
         21   -1    0    0  501  502  0.00000000000E+00  0.00000000000E+00  0.84136493489E+02  0.84136493489E+02  0.00000000000E+00 0. -1.
         21   -1    0    0  502  503 -0.00000000000E+00 -0.00000000000E+00 -0.15047404825E+04  0.15047404825E+04  0.00000000000E+00 0. -1.
         -6    2    1    2    0  503  0.17477697686E+02 -0.43212188763E+02 -0.25075743900E+02  0.18165512012E+03  0.17377291665E+03 0.  0.
        -24    2    3    3    0    0  0.61545067950E+02  0.10920840376E+02  0.12795471227E+02  0.10210238980E+03  0.79712695201E+02 0.  0.
          6    2    1    2  501    0 -0.17477697686E+02  0.43212188763E+02 -0.13955282451E+04  0.14072218558E+04  0.17493286013E+03 0.  0.
         24    2    5    5    0    0  0.10361638049E+02  0.36251073018E+01 -0.12695844951E+04  0.12722178418E+04  0.81073682457E+02 0.  0.
          5    1    5    5  501    0 -0.27839335734E+02  0.39587081461E+02 -0.12594375000E+03  0.13500401401E+03  0.47000000000E+01 0. -1.
        -13    1    6    6    0    0 -0.12641125297E+02  0.31368039541E+01 -0.33851462439E+02  0.36270636845E+02  0.00000000000E+00 0.  1.
         14    1    6    6    0    0  0.23002763346E+02  0.48830334766E+00 -0.12357330326E+04  0.12359472050E+04  0.00000000000E+00 0. -1.
         -5    1    3    3    0  503 -0.44067370264E+02 -0.54133029139E+02 -0.37871215127E+02  0.79552730317E+02  0.47000000000E+01 0.  1.
         13    1    4    4    0    0 -0.11043860596E+02  0.24929395528E+02  0.14104257737E+01  0.27302580815E+02  0.00000000000E+00 0. -1.
        -14    1    4    4    0    0  0.72588928546E+02 -0.14008555152E+02  0.11385045453E+02  0.74799808989E+02  0.00000000000E+00 0.  1.
</event>
<event>
12    1  0.9966151E-001  0.2464465E+03  0.7818608E-02  0.1116369E+00
         21   -1    0    0  501  502  0.00000000000E+00  0.00000000000E+00  0.29677246041E+03  0.29677246041E+03  0.00000000000E+00 0.  1.
         21   -1    0    0  502  503 -0.00000000000E+00 -0.00000000000E+00 -0.61027139865E+03  0.61027139865E+03  0.00000000000E+00 0.  1.
         -6    2    1    2    0  503  0.10964409156E+01  0.17663681208E+03  0.21534327831E+03  0.32359724724E+03  0.16474430291E+03 0.  0.
        -24    2    3    3    0    0 -0.84811781559E+01  0.19086674895E+03  0.22221281525E+03  0.30453150760E+03  0.82818220335E+02 0.  0.
          6    2    1    2  501    0 -0.10964409156E+01 -0.17663681208E+03 -0.52884221656E+03  0.58344661182E+03  0.17185486105E+03 0.  0.
         24    2    5    5    0    0  0.37418310365E+02 -0.13300203407E+03 -0.23960942828E+03  0.28837869467E+03  0.81608347612E+02 0.  0.
          5    1    5    5  501    0 -0.38514751280E+02 -0.43634778008E+02 -0.28923278828E+03  0.29506791715E+03  0.47000000000E+01 0. -1.
        -13    1    6    6    0    0 -0.85160288059E+01  0.51859824096E+01 -0.40442146409E+02  0.41653143535E+02  0.00000000000E+00 0.  1.
         14    1    6    6    0    0  0.45934339171E+02 -0.13818801648E+03 -0.19916728187E+03  0.24672555113E+03  0.00000000000E+00 0. -1.
         -5    1    3    3    0  503  0.95776190715E+01 -0.14229936870E+02 -0.68695369386E+01  0.19065739644E+02  0.47000000000E+01 0.  1.
         11    1    4    4    0    0 -0.26680254114E+02  0.25539558915E+02  0.17798201983E+02  0.40998549035E+02  0.00000000000E+00 0. -1.
        -12    1    4    4    0    0  0.18199075958E+02  0.16532719003E+03  0.20441461327E+03  0.26353295856E+03  0.00000000000E+00 0.  1.
</event>
<event>
12    1  0.9966151E-001  0.1806613E+03  0.7818608E-02  0.1169242E+00
         21   -1    0    0  501  502  0.00000000000E+00  0.00000000000E+00  0.12886044426E+03  0.12886044426E+03  0.00000000000E+00 0. -1.
         21   -1    0    0  502  503 -0.00000000000E+00 -0.00000000000E+00 -0.27680874863E+03  0.27680874863E+03  0.00000000000E+00 0. -1.
         -6    2    1    2    0  503  0.18101664324E+01  0.12404273378E+02 -0.14472398725E+03  0.22497910463E+03  0.17179470985E+03 0.  0.
        -24    2    3    3    0    0  0.17262791801E+02  0.55123274323E+02 -0.33144504240E+02  0.10441473302E+03  0.80419518508E+02 0.  0.
          6    2    1    2  501    0 -0.18101664324E+01 -0.12404273378E+02 -0.32243171192E+01  0.18069008827E+03  0.18022588349E+03 0.  0.
         24    2    5    5    0    0  0.36903399787E+02 -0.75002675722E+02 -0.12562264793E+02  0.10634906694E+03  0.64537208349E+02 0.  0.
          5    1    5    5  501    0 -0.38713566219E+02  0.62598402345E+02  0.93379476741E+01  0.74341021329E+02  0.47000000000E+01 0. -1.
        -13    1    6    6    0    0  0.37678589518E+02 -0.42939591281E+02  0.20112400028E+02  0.60563959929E+02  0.00000000000E+00 0.  1.
         14    1    6    6    0    0 -0.77518973126E+00 -0.32063084441E+02 -0.32674664821E+02  0.45785107013E+02  0.00000000000E+00 0. -1.
         -5    1    3    3    0  503 -0.15452625369E+02 -0.42719000946E+02 -0.11157948301E+03  0.12056437161E+03  0.47000000000E+01 0.  1.
         11    1    4    4    0    0 -0.17718321130E+02  0.40540910863E+02 -0.46543669562E+02  0.64216956745E+02  0.00000000000E+00 0. -1.
        -12    1    4    4    0    0  0.34981112931E+02  0.14582363460E+02  0.13399165322E+02  0.40197776273E+02  0.00000000000E+00 0.  1.
</event>
<event>
12    1  0.9966151E-001  0.5112725E+03  0.7818608E-02  0.1010924E+00
         21   -1    0    0  501  502  0.00000000000E+00  0.00000000000E+00  0.87871125451E+03  0.87871125451E+03  0.00000000000E+00 0.  1.
         21   -1    0    0  502  503 -0.00000000000E+00 -0.00000000000E+00 -0.34776237306E+03  0.34776237306E+03  0.00000000000E+00 0.  1.
         -6    2    1    2    0  503  0.45526118318E+03  0.15646730559E+03  0.49979137045E+03  0.71497619614E+03  0.17220564578E+03 0.  0.
        -24    2    3    3    0    0  0.32233886603E+03  0.53010914399E+02  0.27647777011E+03  0.43522162268E+03  0.79154291619E+02 0.  0.
          6    2    1    2  501    0 -0.45526118318E+03 -0.15646730559E+03  0.31157510996E+02  0.51149743143E+03  0.17004137507E+03 0.  0.
         24    2    5    5    0    0 -0.10050111658E+03 -0.18960912921E+02 -0.47711103699E+01  0.12929896373E+03  0.78964978785E+02 0.  0.
          5    1    5    5  501    0 -0.35476006659E+03 -0.13750639267E+03  0.35928621366E+02  0.38219846769E+03  0.47000000000E+01 0. -1.
        -13    1    6    6    0    0  0.11503432406E+02  0.64115759151E+01  0.48964281918E+01  0.14050347749E+02  0.00000000000E+00 0.  1.
         14    1    6    6    0    0 -0.11200454899E+03 -0.25372488836E+02 -0.96675385618E+01  0.11524861598E+03  0.00000000000E+00 0. -1.
         -5    1    3    3    0  503  0.13292231714E+03  0.10345639119E+03  0.22331360034E+03  0.27975457346E+03  0.47000000000E+01 0.  1.
         13    1    4    4    0    0  0.18539032478E+03  0.60995415310E+02  0.12978805259E+03  0.23438206375E+03  0.00000000000E+00 0. -1.
        -14    1    4    4    0    0  0.13694854125E+03 -0.79845009103E+01  0.14668971752E+03  0.20083955893E+03  0.00000000000E+00 0.  1.
</event>
<event>
12    1  0.9966151E-001  0.2045714E+03  0.7818608E-02  0.1146176E+00
         21   -1    0    0  501  502  0.00000000000E+00  0.00000000000E+00  0.10263813231E+03  0.10263813231E+03  0.00000000000E+00 0. -1.
         21   -1    0    0  502  503 -0.00000000000E+00 -0.00000000000E+00 -0.43541885481E+03  0.43541885481E+03  0.00000000000E+00 0. -1.
         -6    2    1    2    0  503 -0.83658195370E+02 -0.66386541482E+02 -0.95357109641E+02  0.22465718415E+03  0.17312424870E+03 0.  0.
        -24    2    3    3    0    0 -0.96782304108E+02  0.83628663310E+01 -0.59755847416E+02  0.14069733618E+03  0.82390698420E+02 0.  0.
          6    2    1    2  501    0  0.83658195370E+02  0.66386541482E+02 -0.23742361285E+03  0.31339980297E+03  0.17448093884E+03 0.  0.
         24    2    5    5    0    0  0.71691071805E+02 -0.15421609413E+02 -0.18866742970E+03  0.21730068229E+03  0.79036394665E+02 0.  0.
          5    1    5    5  501    0  0.11967123565E+02  0.81808150895E+02 -0.48756183153E+02  0.96099120677E+02  0.47000000000E+01 0. -1.
        -11    1    6    6    0    0  0.31808278814E+02  0.24942614775E+02 -0.34921151438E+02  0.53417108221E+02  0.00000000000E+00 0.  1.
         12    1    6    6    0    0  0.39882792991E+02 -0.40364224188E+02 -0.15374627826E+03  0.16388357407E+03  0.00000000000E+00 0. -1.
         -5    1    3    3    0  503  0.13124108737E+02 -0.74749407813E+02 -0.35601262226E+02  0.83959847967E+02  0.47000000000E+01 0.  1.
         11    1    4    4    0    0 -0.65004964755E+02  0.17726153700E+02  0.54088991478E+01  0.67595252480E+02  0.00000000000E+00 0. -1.
        -12    1    4    4    0    0 -0.31777339353E+02 -0.93632873688E+01 -0.65164746564E+02  0.73102083701E+02  0.00000000000E+00 0.  1.
</event>
<event>
12    1  0.9966151E-001  0.2840141E+03  0.7818608E-02  0.1095500E+00
         21   -1    0    0  503  502  0.00000000000E+00  0.00000000000E+00  0.71802428464E+02  0.71802428464E+02  0.00000000000E+00 0.  1.
         21   -1    0    0  501  503 -0.00000000000E+00 -0.00000000000E+00 -0.12897614102E+04  0.12897614102E+04  0.00000000000E+00 0.  1.
          6    2    1    2  501    0  0.20691006746E+03  0.13226836563E+02 -0.31316660942E+03  0.41324257185E+03  0.17236407024E+03 0.  0.
         24    2    3    3    0    0  0.78255695693E+02  0.43098335753E+02 -0.76184438641E+02  0.14189981240E+03  0.79687311503E+02 0.  0.
         -6    2    1    2    0  502 -0.20691006746E+03 -0.13226836563E+02 -0.90479237233E+03  0.94832126683E+03  0.19410631849E+03 0.  0.
        -24    2    5    5    0    0 -0.75117316382E+02  0.54008593138E+02 -0.56589156200E+03  0.57850268768E+03  0.76632632449E+02 0.  0.
          5    1    3    3  501    0  0.12865437177E+03 -0.29871499191E+02 -0.23698217078E+03  0.27134275945E+03  0.47000000000E+01 0. -1.
        -13    1    4    4    0    0  0.24396604258E+02  0.75876239074E+01  0.15432626703E+02  0.29848489121E+02  0.00000000000E+00 0.  1.
         14    1    4    4    0    0  0.53859091435E+02  0.35510711846E+02 -0.91617065343E+02  0.11205132328E+03  0.00000000000E+00 0. -1.
         -5    1    5    5    0  502 -0.13179275108E+03 -0.67235429700E+02 -0.33890081032E+03  0.36981857915E+03  0.47000000000E+01 0.  1.
         11    1    6    6    0    0 -0.88942362551E+02  0.40504239742E+02 -0.51216012838E+03  0.52140131799E+03  0.00000000000E+00 0. -1.
        -12    1    6    6    0    0  0.13825046169E+02  0.13504353395E+02 -0.53731433620E+02  0.57101369695E+02  0.00000000000E+00 0.  1.
</event>
<event>
12    1  0.9966151E-001  0.2142891E+03  0.7818608E-02  0.1138245E+00
         21   -1    0    0  501  502  0.00000000000E+00  0.00000000000E+00  0.14290056688E+03  0.14290056688E+03  0.00000000000E+00 0.  1.
         21   -1    0    0  502  503 -0.00000000000E+00 -0.00000000000E+00 -0.45669586327E+03  0.45669586327E+03  0.00000000000E+00 0.  1.
         -6    2    1    2    0  503  0.11007774732E+03 -0.64642201360E+02 -0.32029586127E+03  0.38536901511E+03  0.17211657215E+03 0.  0.
        -24    2    3    3    0    0  0.39034156382E+01 -0.46627598705E+02 -0.85807573815E+02  0.12729080687E+03  0.81551457218E+02 0.  0.
          6    2    1    2  501    0 -0.11007774732E+03  0.64642201360E+02  0.65005648797E+01  0.21422741503E+03  0.17191685012E+03 0.  0.
         24    2    5    5    0    0 -0.44800742011E+02  0.84503714624E+02  0.48000283126E+02  0.13422814162E+03  0.81025814113E+02 0.  0.
          5    1    5    5  501    0 -0.65277005312E+02 -0.19861513265E+02 -0.41499718246E+02  0.79999273410E+02  0.47000000000E+01 0. -1.
        -13    1    6    6    0    0 -0.12994067718E+01  0.77975475427E+02  0.15439802242E+02  0.79500004524E+02  0.00000000000E+00 0.  1.
         14    1    6    6    0    0 -0.43501335239E+02  0.65282391970E+01  0.32560480884E+02  0.54728137096E+02  0.00000000000E+00 0. -1.
         -5    1    3    3    0  503  0.10617433169E+03 -0.18014602655E+02 -0.23448828746E+03  0.25807820825E+03  0.47000000000E+01 0.  1.
         11    1    4    4    0    0  0.32617885865E+02 -0.54816134305E+02 -0.53024272924E+02  0.82947625509E+02  0.00000000000E+00 0. -1.
        -12    1    4    4    0    0 -0.28714470227E+02  0.81885356002E+01 -0.32783300891E+02  0.44343181359E+02  0.00000000000E+00 0.  1.
</event>
<event>
12    1  0.9966151E-001  0.2764731E+03  0.7818608E-02  0.1097826E+00
         21   -1    0    0  501  502  0.00000000000E+00  0.00000000000E+00  0.20589860694E+04  0.20589860694E+04  0.00000000000E+00 0.  1.
         21   -1    0    0  502  503 -0.00000000000E+00 -0.00000000000E+00 -0.38612529427E+02  0.38612529427E+02  0.00000000000E+00 0. -1.
         -6    2    1    2    0  503 -0.13161812225E+03 -0.16935050578E+03  0.12312021360E+04  0.12618621404E+04  0.17445468672E+03 0.  0.
        -24    2    3    3    0    0 -0.12002667607E+03 -0.16760058959E+03  0.12294705994E+04  0.12491141189E+04  0.78687779690E+02 0.  0.
          6    2    1    2  501    0  0.13161812225E+03  0.16935050578E+03  0.78917140399E+03  0.83573645847E+03  0.17222368950E+03 0.  0.
         24    2    5    5    0    0  0.27423887827E+01  0.10100974334E+03  0.39488533622E+03  0.41530452851E+03  0.79579731698E+02 0.  0.
          5    1    5    5  501    0  0.12887573346E+03  0.68340762438E+02  0.39428606777E+03  0.42043192996E+03  0.47000000000E+01 0. -1.
        -13    1    6    6    0    0  0.17177324794E+02  0.10970472250E+03  0.35624041764E+03  0.37314530921E+03  0.00000000000E+00 0.  1.
         14    1    6    6    0    0 -0.14434936012E+02 -0.86949791589E+01  0.38644918576E+02  0.42159219300E+02  0.00000000000E+00 0. -1.
         -5    1    3    3    0  503 -0.11591446182E+02 -0.17499161876E+01  0.17315365492E+01  0.12748021418E+02  0.47000000000E+01 0.  1.
         11    1    4    4    0    0 -0.38881886432E+02 -0.65528033105E+02  0.26068454942E+03  0.27159189701E+03  0.00000000000E+00 0. -1.
        -12    1    4    4    0    0 -0.81144789634E+02 -0.10207255648E+03  0.96878605001E+03  0.97752222193E+03  0.00000000000E+00 0.  1.
</event>
<event>
12    1  0.9966151E-001  0.1980591E+03  0.7818608E-02  0.1151453E+00
         21   -1    0    0  501  502  0.00000000000E+00  0.00000000000E+00  0.53254505454E+02  0.53254505454E+02  0.00000000000E+00 0.  1.
         21   -1    0    0  502  503 -0.00000000000E+00 -0.00000000000E+00 -0.74162963313E+03  0.74162963313E+03  0.00000000000E+00 0.  1.
         -6    2    1    2    0  503  0.97721080778E+02  0.11635694473E+02 -0.30818490260E+03  0.36634049085E+03  0.17187967312E+03 0.  0.
        -24    2    3    3    0    0  0.11957034263E+03  0.27245810313E+02 -0.16483452976E+03  0.22042104268E+03  0.79847434771E+02 0.  0.
          6    2    1    2  501    0 -0.97721080778E+02 -0.11635694473E+02 -0.38019022508E+03  0.42854364773E+03  0.17152332714E+03 0.  0.
         24    2    5    5    0    0 -0.45743088521E+02  0.59247381390E+02 -0.21484224776E+03  0.24122529379E+03  0.80185837840E+02 0.  0.
          5    1    5    5  501    0 -0.51977992257E+02 -0.70883075863E+02 -0.16534797731E+03  0.18731835394E+03  0.47000000000E+01 0. -1.
        -13    1    6    6    0    0  0.16453338877E+01 -0.69873488967E+01  0.36464526165E+01  0.80515082370E+01  0.00000000000E+00 0.  1.
         14    1    6    6    0    0 -0.47388422409E+02  0.66234730287E+02 -0.21848870038E+03  0.23317378555E+03  0.00000000000E+00 0. -1.
         -5    1    3    3    0  503 -0.21849261854E+02 -0.15610115840E+02 -0.14335037284E+03  0.14591944817E+03  0.47000000000E+01 0.  1.
         11    1    4    4    0    0  0.32421454399E+02 -0.79988490770E+01 -0.10205509038E+03  0.10737957797E+03  0.00000000000E+00 0. -1.
        -12    1    4    4    0    0  0.87148888234E+02  0.35244659390E+02 -0.62779439374E+02  0.11304146471E+03  0.00000000000E+00 0.  1.
</event>
<event>
12    1  0.9966151E-001  0.1810407E+03  0.7818608E-02  0.1168768E+00
         21   -1    0    0  503  502  0.00000000000E+00  0.00000000000E+00  0.85597834223E+02  0.85597834223E+02  0.00000000000E+00 0.  1.
         21   -1    0    0  501  503 -0.00000000000E+00 -0.00000000000E+00 -0.39854780928E+03  0.39854780928E+03  0.00000000000E+00 0.  1.
          6    2    1    2  501    0 -0.13364044840E+02 -0.51272631516E+02 -0.90739904997E+02  0.20250789811E+03  0.17311336748E+03 0.  0.
         24    2    3    3    0    0  0.37088976029E+02 -0.27215733089E+02  0.32677300013E+01  0.93037504329E+02  0.80802295029E+02 0.  0.
         -6    2    1    2    0  502  0.13364044840E+02  0.51272631516E+02 -0.22221007006E+03  0.28163774539E+03  0.16472711968E+03 0.  0.
        -24    2    5    5    0    0  0.14560301746E+02 -0.32207480726E+02 -0.91187472109E+02  0.12620489383E+03  0.79769643072E+02 0.  0.
          5    1    3    3  501    0 -0.50453020869E+02 -0.24056898428E+02 -0.94007634999E+02  0.10947039378E+03  0.47000000000E+01 0. -1.
        -11    1    4    4    0    0  0.20658998844E+02 -0.48335207397E+02  0.25336989364E+02  0.58352802309E+02  0.00000000000E+00 0.  1.
         12    1    4    4    0    0  0.16429977185E+02  0.21119474308E+02 -0.22069259363E+02  0.34684702020E+02  0.00000000000E+00 0. -1.
         -5    1    5    5    0  502 -0.11962569064E+01  0.83480112242E+02 -0.13102259795E+03  0.15543285156E+03  0.47000000000E+01 0.  1.
         11    1    6    6    0    0  0.45115769576E+02 -0.18830048069E+02 -0.73976213013E+02  0.88670646025E+02  0.00000000000E+00 0. -1.
        -12    1    6    6    0    0 -0.30555467829E+02 -0.13377432657E+02 -0.17211259096E+02  0.37534247807E+02  0.00000000000E+00 0.  1.
</event>
<event>
12    1  0.9966151E-001  0.2672404E+03  0.7818608E-02  0.1103830E+00
         21   -1    0    0  503  502  0.00000000000E+00  0.00000000000E+00  0.18089327806E+03  0.18089327806E+03  0.00000000000E+00 0.  1.
         21   -1    0    0  501  503 -0.00000000000E+00 -0.00000000000E+00 -0.43504532749E+03  0.43504532749E+03  0.00000000000E+00 0. -1.
          6    2    1    2  501    0  0.33650541671E+02 -0.19281619033E+03 -0.21452594585E+02  0.26158500921E+03  0.17220935229E+03 0.  0.
         24    2    3    3    0    0  0.20810204566E+02 -0.17193713912E+03 -0.67022141559E+02  0.20962846344E+03  0.97245466746E+02 0.  0.
         -6    2    1    2    0  502 -0.33650541671E+02  0.19281619033E+03 -0.23269945485E+03  0.35435359633E+03  0.18195327076E+03 0.  0.
        -24    2    5    5    0    0 -0.38203059119E+02  0.61100684487E+02 -0.18537274736E+03  0.21424075918E+03  0.79644711414E+02 0.  0.
          5    1    3    3  501    0  0.12840337105E+02 -0.20879051217E+02  0.45569546975E+02  0.51956545768E+02  0.47000000000E+01 0. -1.
        -13    1    4    4    0    0  0.11958286426E+02 -0.11954373212E+02  0.20883933236E+02  0.26870919607E+02  0.00000000000E+00 0.  1.
         14    1    4    4    0    0  0.88519181406E+01 -0.15998276591E+03 -0.87906074795E+02  0.18275754383E+03  0.00000000000E+00 0. -1.
         -5    1    5    5    0  502  0.45525174481E+01  0.13171550585E+03 -0.47326707483E+02  0.14011283716E+03  0.47000000000E+01 0.  1.
         13    1    6    6    0    0 -0.51132818817E+02  0.46255973361E+02 -0.74011109979E+02  0.10115248209E+03  0.00000000000E+00 0. -1.
        -14    1    6    6    0    0  0.12929759698E+02  0.14844711127E+02 -0.11136163738E+03  0.11308827709E+03  0.00000000000E+00 0.  1.
</event>
<event>
12    1  0.9966151E-001  0.2021709E+03  0.7818608E-02  0.1148279E+00
         21   -1    0    0  503  502  0.00000000000E+00  0.00000000000E+00  0.17217072688E+03  0.17217072688E+03  0.00000000000E+00 0.  1.
         21   -1    0    0  501  503 -0.00000000000E+00 -0.00000000000E+00 -0.25147656002E+03  0.25147656002E+03  0.00000000000E+00 0.  1.
          6    2    1    2  501    0  0.74286442471E+02  0.74799873281E+02 -0.93072154735E+02  0.22100824605E+03  0.17049551975E+03 0.  0.
         24    2    3    3    0    0  0.51882709070E+02  0.11068120667E+03 -0.34936874214E+02  0.14895827591E+03  0.77626269853E+02 0.  0.
         -6    2    1    2    0  502 -0.74286442471E+02 -0.74799873281E+02  0.13766321593E+02  0.20263904086E+03  0.17250963072E+03 0.  0.
        -24    2    5    5    0    0 -0.90551700320E+02 -0.10442815604E+03 -0.11672462329E+02  0.16007596437E+03  0.79895042324E+02 0.  0.
          5    1    3    3  501    0  0.22403733401E+02 -0.35881333388E+02 -0.58135280521E+02  0.72049970141E+02  0.47000000000E+01 0. -1.
        -13    1    4    4    0    0 -0.20392448300E+02  0.30812151737E+02 -0.11775369667E+02  0.38780149215E+02  0.00000000000E+00 0.  1.
         14    1    4    4    0    0  0.72275157370E+02  0.79869054931E+02 -0.23161504548E+02  0.11017812669E+03  0.00000000000E+00 0. -1.
         -5    1    5    5    0  502  0.16265257849E+02  0.29628282762E+02  0.25438783923E+02  0.42563076484E+02  0.47000000000E+01 0.  1.
         13    1    6    6    0    0 -0.42987677205E+02 -0.71249074930E+02  0.30224610836E+02  0.88531904815E+02  0.00000000000E+00 0. -1.
        -14    1    6    6    0    0 -0.47564023115E+02 -0.33179081112E+02 -0.41897073165E+02  0.71544059559E+02  0.00000000000E+00 0.  1.
</event>
<event>
12    1  0.9966151E-001  0.5002234E+03  0.7818608E-02  0.1013772E+00
         21   -1    0    0  501  502  0.00000000000E+00  0.00000000000E+00  0.27860466363E+03  0.27860466363E+03  0.00000000000E+00 0.  1.
         21   -1    0    0  502  503 -0.00000000000E+00 -0.00000000000E+00 -0.92829100727E+03  0.92829100727E+03  0.00000000000E+00 0.  1.
         -6    2    1    2    0  503  0.45866732204E+03  0.97907335046E+02 -0.43637711598E+03  0.66381358595E+03  0.17395956708E+03 0.  0.
        -24    2    3    3    0    0  0.19840631253E+03  0.10905844123E+03 -0.20592873595E+03  0.31597930631E+03  0.78596878216E+02 0.  0.
          6    2    1    2  501    0 -0.45866732204E+03 -0.97907335046E+02 -0.21330922766E+03  0.54308208495E+03  0.17168507747E+03 0.  0.
         24    2    5    5    0    0 -0.42610831308E+03 -0.70171222899E+02 -0.14617404599E+03  0.46334123218E+03  0.82619312040E+02 0.  0.
          5    1    5    5  501    0 -0.32559008958E+02 -0.27736112147E+02 -0.67135181676E+02  0.79740852767E+02  0.47000000000E+01 0. -1.
        -13    1    6    6    0    0 -0.32650134951E+01 -0.82259257481E+00 -0.14775946146E+02  0.15154720591E+02  0.00000000000E+00 0.  1.
         14    1    6    6    0    0 -0.42284329959E+03 -0.69348630325E+02 -0.13139809984E+03  0.44818651159E+03  0.00000000000E+00 0. -1.
         -5    1    3    3    0  503  0.26026100951E+03 -0.11151106184E+02 -0.23044838003E+03  0.34783427964E+03  0.47000000000E+01 0.  1.
         13    1    4    4    0    0  0.12250029632E+03  0.66847474397E+02 -0.17489538583E+03  0.22374830372E+03  0.00000000000E+00 0. -1.
        -14    1    4    4    0    0  0.75906016213E+02  0.42210966834E+02 -0.31033350122E+02  0.92231002587E+02  0.00000000000E+00 0.  1.
</event>
<event>
12    1  0.9966151E-001  0.1867547E+03  0.7818608E-02  0.1161682E+00
         21   -1    0    0  501  502  0.00000000000E+00  0.00000000000E+00  0.19179073456E+03  0.19179073456E+03  0.00000000000E+00 0.  1.
         21   -1    0    0  502  503 -0.00000000000E+00 -0.00000000000E+00 -0.42840790961E+03  0.42840790961E+03  0.00000000000E+00 0.  1.
         -6    2    1    2    0  503 -0.71838625991E+02  0.18506247134E+02  0.11731291314E+03  0.22054398624E+03  0.17138862538E+03 0.  0.
        -24    2    3    3    0    0 -0.60595408446E+02  0.71035395235E+02  0.49330398702E+02  0.13377167723E+03  0.82119075082E+02 0.  0.
          6    2    1    2  501    0  0.71838625991E+02 -0.18506247134E+02 -0.35393008818E+03  0.39965465793E+03  0.17015895192E+03 0.  0.
         24    2    5    5    0    0  0.72924860231E+02 -0.26884140377E+02 -0.36693465447E+03  0.38345040713E+03  0.79701830811E+02 0.  0.
          5    1    5    5  501    0 -0.10862342408E+01  0.83778932431E+01  0.13004566280E+02  0.16204250805E+02  0.47000000000E+01 0. -1.
        -11    1    6    6    0    0 -0.91395098470E+01  0.53913081049E+01 -0.66315704433E+01  0.12512976060E+02  0.00000000000E+00 0.  1.
         12    1    6    6    0    0  0.82064370078E+02 -0.32275448482E+02 -0.36030308402E+03  0.37093743107E+03  0.00000000000E+00 0. -1.
         -5    1    3    3    0  503 -0.11243217545E+02 -0.52529148101E+02  0.67982514439E+02  0.86772309007E+02  0.47000000000E+01 0.  1.
         13    1    4    4    0    0 -0.63443339559E+01 -0.13343935178E+02  0.27336678834E+02  0.31074188470E+02  0.00000000000E+00 0. -1.
        -14    1    4    4    0    0 -0.54251074490E+02  0.84379330413E+02  0.21993719868E+02  0.10269748876E+03  0.00000000000E+00 0.  1.
</event>
<event>
12    1  0.9966151E-001  0.2160985E+03  0.7818608E-02  0.1136956E+00
         21   -1    0    0  503  502  0.00000000000E+00  0.00000000000E+00  0.23555659583E+03  0.23555659583E+03  0.00000000000E+00 0.  1.
         21   -1    0    0  501  503 -0.00000000000E+00 -0.00000000000E+00 -0.27056344616E+03  0.27056344616E+03  0.00000000000E+00 0.  1.
          6    2    1    2  501    0 -0.18416417132E+02 -0.13010749355E+03  0.11391045932E+03  0.24367974100E+03  0.17069592595E+03 0.  0.
         24    2    3    3    0    0 -0.53256019749E+02 -0.13249246460E+03  0.55716736017E+02  0.17564970771E+03  0.85778833823E+02 0.  0.
         -6    2    1    2    0  502  0.18416417132E+02  0.13010749355E+03 -0.14891730964E+03  0.26244030099E+03  0.17155588644E+03 0.  0.
        -24    2    5    5    0    0 -0.17429185102E+02  0.18177535981E+02 -0.11514819103E+03  0.14006519742E+03  0.75663427907E+02 0.  0.
          5    1    3    3  501    0  0.34839602617E+02  0.23849710494E+01  0.58193723302E+02  0.68030033288E+02  0.47000000000E+01 0. -1.
        -13    1    4    4    0    0 -0.50523652739E+02 -0.14438694104E+03  0.57283821108E+02  0.16334523069E+03  0.00000000000E+00 0.  1.
         14    1    4    4    0    0 -0.27323670101E+01  0.11894476436E+02 -0.15670850911E+01  0.12304477025E+02  0.00000000000E+00 0. -1.
         -5    1    5    5    0  502  0.35845602234E+02  0.11192995757E+03 -0.33769118613E+02  0.12237510357E+03  0.47000000000E+01 0.  1.
         11    1    6    6    0    0 -0.11555518081E+02 -0.27069065041E+02 -0.69729007382E+02  0.75686185997E+02  0.00000000000E+00 0. -1.
        -12    1    6    6    0    0 -0.58736670208E+01  0.45246601022E+02 -0.45419183647E+02  0.64379011421E+02  0.00000000000E+00 0.  1.
</event>
<event>
12    1  0.9966151E-001  0.3798704E+03  0.7818608E-02  0.1051001E+00
         21   -1    0    0  501  502  0.00000000000E+00  0.00000000000E+00  0.53999519634E+03  0.53999519634E+03  0.00000000000E+00 0. -1.
         21   -1    0    0  502  503 -0.00000000000E+00 -0.00000000000E+00 -0.27231543703E+03  0.27231543703E+03  0.00000000000E+00 0. -1.
         -6    2    1    2    0  503 -0.31320849235E+03  0.12797065597E+03  0.77561114667E+02  0.38770771555E+03  0.17270060137E+03 0.  0.
        -24    2    3    3    0    0 -0.10749491225E+03  0.94405135858E+02  0.73393636014E+02  0.17917911066E+03  0.79063531746E+02 0.  0.
          6    2    1    2  501    0  0.31320849235E+03 -0.12797065597E+03  0.19011864465E+03  0.42460291783E+03  0.17223963049E+03 0.  0.
         24    2    5    5    0    0  0.32877581175E+03 -0.12269607724E+03  0.19075701917E+03  0.40749560547E+03  0.80725252273E+02 0.  0.
          5    1    5    5  501    0 -0.15567319396E+02 -0.52745787304E+01 -0.63837452428E+00  0.17107312354E+02  0.47000000000E+01 0. -1.
        -11    1    6    6    0    0  0.13518845890E+03 -0.86931061040E+02  0.10971849181E+03  0.19460492347E+03  0.00000000000E+00 0.  1.
         12    1    6    6    0    0  0.19358735284E+03 -0.35765016202E+02  0.81038527356E+02  0.21289068200E+03  0.00000000000E+00 0. -1.
         -5    1    3    3    0  503 -0.20571358010E+03  0.33565520115E+02  0.41674786527E+01  0.20852860489E+03  0.47000000000E+01 0.  1.
         13    1    4    4    0    0  0.12847094371E+02  0.69146085251E+01  0.82243304608E+01  0.16748112024E+02  0.00000000000E+00 0. -1.
        -14    1    4    4    0    0 -0.12034200662E+03  0.87490527333E+02  0.65169305554E+02  0.16243099863E+03  0.00000000000E+00 0.  1.
</event>
<event>
12    1  0.9966151E-001  0.2322426E+03  0.7818608E-02  0.1125087E+00
         21   -1    0    0  503  502  0.00000000000E+00  0.00000000000E+00  0.13511815487E+03  0.13511815487E+03  0.00000000000E+00 0. -1.
         21   -1    0    0  501  503 -0.00000000000E+00 -0.00000000000E+00 -0.49709936566E+03  0.49709936566E+03  0.00000000000E+00 0. -1.
          6    2    1    2  501    0  0.12706956501E+02  0.15556056600E+03 -0.32136808369E+03  0.39645054735E+03  0.17185760049E+03 0.  0.
         24    2    3    3    0    0 -0.13566200170E+02  0.66658398534E+02 -0.62987370450E+02  0.12190263329E+03  0.79154654227E+02 0.  0.
         -6    2    1    2    0  502 -0.12706956501E+02 -0.15556056600E+03 -0.40613127098E+02  0.23576697318E+03  0.17197698425E+03 0.  0.
        -24    2    5    5    0    0 -0.43154604305E+02 -0.12527833085E+03 -0.82020038081E+02  0.17592806193E+03  0.81648124740E+02 0.  0.
          5    1    3    3  501    0  0.26273156671E+02  0.88902167468E+02 -0.25838071324E+03  0.27454791406E+03  0.47000000000E+01 0. -1.
        -11    1    4    4    0    0 -0.66416514221E+01  0.84140728938E+02 -0.58124060435E+02  0.10248014540E+03  0.00000000000E+00 0.  1.
         12    1    4    4    0    0 -0.69245487477E+01 -0.17482330404E+02 -0.48633100154E+01  0.19422487895E+02  0.00000000000E+00 0. -1.
         -5    1    5    5    0  502  0.30447647803E+02 -0.30282235152E+02  0.41406910983E+02  0.59838911251E+02  0.47000000000E+01 0.  1.
         11    1    6    6    0    0 -0.33528733450E+01 -0.28892633530E+01  0.14433750228E+02  0.15097110586E+02  0.00000000000E+00 0. -1.
        -12    1    6    6    0    0 -0.39801730960E+02 -0.12238906750E+03 -0.96453788309E+02  0.16083095134E+03  0.00000000000E+00 0.  1.
</event>
<event>
12    1  0.9966151E-001  0.2288576E+03  0.7818608E-02  0.1127570E+00
         21   -1    0    0  503  502  0.00000000000E+00  0.00000000000E+00  0.76762442864E+02  0.76762442864E+02  0.00000000000E+00 0.  1.
         21   -1    0    0  501  503 -0.00000000000E+00 -0.00000000000E+00 -0.71760195035E+03  0.71760195035E+03  0.00000000000E+00 0.  1.
          6    2    1    2  501    0  0.12174711807E+03 -0.90103303789E+02 -0.22932546134E+03  0.32349327660E+03  0.17063635800E+03 0.  0.
         24    2    3    3    0    0  0.42712292593E+02 -0.95423186219E+02 -0.19741103787E+03  0.23796301755E+03  0.82008264480E+02 0.  0.
         -6    2    1    2    0  502 -0.12174711807E+03  0.90103303789E+02 -0.41151404615E+03  0.47087111662E+03  0.17156582463E+03 0.  0.
        -24    2    5    5    0    0 -0.14124229701E+03  0.53199598332E+02 -0.24267842929E+03  0.29688979291E+03  0.80443429619E+02 0.  0.
          5    1    3    3  501    0  0.79034825474E+02  0.53198824299E+01 -0.31914423471E+02  0.85530259044E+02  0.47000000000E+01 0. -1.
        -13    1    4    4    0    0  0.18309571697E+02 -0.16125280041E+01 -0.95742558527E+02  0.97490913298E+02  0.00000000000E+00 0.  1.
         14    1    4    4    0    0  0.24402720896E+02 -0.93810658215E+02 -0.10166847934E+03  0.14047210425E+03  0.00000000000E+00 0. -1.
         -5    1    5    5    0  502  0.19495178939E+02  0.36903705457E+02 -0.16883561686E+03  0.17398132371E+03  0.47000000000E+01 0.  1.
         11    1    6    6    0    0 -0.12064216510E+03  0.74169938844E+02 -0.20240054016E+03  0.24702568790E+03  0.00000000000E+00 0. -1.
        -12    1    6    6    0    0 -0.20600131906E+02 -0.20970340512E+02 -0.40277889131E+02  0.49864105011E+02  0.00000000000E+00 0.  1.
</event>
<event>
12    1  0.9966151E-001  0.1971440E+03  0.7818608E-02  0.1152377E+00
         21   -1    0    0  503  502  0.00000000000E+00  0.00000000000E+00  0.54061506940E+03  0.54061506940E+03  0.00000000000E+00 0.  1.
         21   -1    0    0  501  503 -0.00000000000E+00 -0.00000000000E+00 -0.11049115539E+03  0.11049115539E+03  0.00000000000E+00 0.  1.
          6    2    1    2  501    0  0.92085693538E+02  0.14720160338E+02  0.40868516680E+03  0.45375030510E+03  0.17369316550E+03 0.  0.
         24    2    3    3    0    0  0.11685629928E+02  0.20132848429E+02  0.33272130599E+03  0.34290777910E+03  0.79626578322E+02 0.  0.
         -6    2    1    2    0  502 -0.92085693538E+02 -0.14720160338E+02  0.21438747215E+02  0.19735591969E+03  0.17260730309E+03 0.  0.
        -24    2    5    5    0    0  0.13102352665E+02 -0.31646344099E+02 -0.41368644912E+01  0.87687224637E+02  0.80614967447E+02 0.  0.
          5    1    3    3  501    0  0.80400063610E+02 -0.54126880912E+01  0.75963860805E+02  0.11084252600E+03  0.47000000000E+01 0. -1.
        -13    1    4    4    0    0 -0.19862751355E+02 -0.20542010766E+02  0.78788543085E+02  0.83810128381E+02  0.00000000000E+00 0.  1.
         14    1    4    4    0    0  0.31548381283E+02  0.40674859195E+02  0.25393276291E+03  0.25909765072E+03  0.00000000000E+00 0. -1.
         -5    1    5    5    0  502 -0.10518804620E+03  0.16926183761E+02  0.25575611706E+02  0.10966869505E+03  0.47000000000E+01 0.  1.
         11    1    6    6    0    0 -0.28110174144E+02  0.38968848954E+01  0.12163971863E+02  0.30876039477E+02  0.00000000000E+00 0. -1.
        -12    1    6    6    0    0  0.41212526810E+02 -0.35543228995E+02 -0.16300836354E+02  0.56811185160E+02  0.00000000000E+00 0.  1.
</event>
<event>
12    1  0.9966151E-001  0.2219358E+03  0.7818608E-02  0.1133631E+00
         21   -1    0    0  503  502  0.00000000000E+00  0.00000000000E+00  0.77255980935E+03  0.77255980935E+03  0.00000000000E+00 0. -1.
         21   -1    0    0  501  503 -0.00000000000E+00 -0.00000000000E+00 -0.10688971798E+03  0.10688971798E+03  0.00000000000E+00 0. -1.
          6    2    1    2  501    0  0.10925396270E+03 -0.64432978730E+02  0.50529868616E+02  0.22761539228E+03  0.18211936214E+03 0.  0.
         24    2    3    3    0    0 -0.11524991165E+02 -0.22473716334E+02  0.48968690573E+02  0.99659686370E+02  0.83043525237E+02 0.  0.
         -6    2    1    2    0  502 -0.10925396270E+03  0.64432978730E+02  0.61514022276E+03  0.65183413505E+03  0.17436229192E+03 0.  0.
        -24    2    5    5    0    0 -0.51697063011E+02  0.10328057573E+03  0.47005867598E+03  0.49092211651E+03  0.81913991263E+02 0.  0.
          5    1    3    3  501    0  0.12077895387E+03 -0.41959262396E+02  0.15611780438E+01  0.12795570591E+03  0.47000000000E+01 0. -1.
        -13    1    4    4    0    0 -0.33216563220E+02  0.12169134162E+01 -0.80644996593E+01  0.34203173904E+02  0.00000000000E+00 0.  1.
         14    1    4    4    0    0  0.21691572054E+02 -0.23690629750E+02  0.57033190232E+02  0.65456512466E+02  0.00000000000E+00 0. -1.
         -5    1    5    5    0  502 -0.57556899694E+02 -0.38847597001E+02  0.14508154678E+03  0.16091201854E+03  0.47000000000E+01 0.  1.
         11    1    6    6    0    0 -0.56637277227E+02  0.23024075926E+02  0.19665131654E+03  0.20593598408E+03  0.00000000000E+00 0. -1.
        -12    1    6    6    0    0  0.49402142155E+01  0.80256499804E+02  0.27340735944E+03  0.28498613242E+03  0.00000000000E+00 0.  1.
</event>
<event>
12    1  0.9966151E-001  0.1865154E+03  0.7818608E-02  0.1161989E+00
         21   -1    0    0  503  502  0.00000000000E+00  0.00000000000E+00  0.23496276362E+03  0.23496276362E+03  0.00000000000E+00 0. -1.
         21   -1    0    0  501  503 -0.00000000000E+00 -0.00000000000E+00 -0.57122335704E+03  0.57122335704E+03  0.00000000000E+00 0. -1.
          6    2    1    2  501    0 -0.14280917394E+02  0.67860997899E+02  0.17947111816E+03  0.25776364632E+03  0.17153179144E+03 0.  0.
         24    2    3    3    0    0 -0.31611986915E+02  0.95115559879E+02  0.18488022244E+03  0.22468003212E+03  0.79083074918E+02 0.  0.
         -6    2    1    2    0  502  0.14280917394E+02 -0.67860997899E+02 -0.51573171158E+03  0.54842247433E+03  0.17314431086E+03 0.  0.
        -24    2    5    5    0    0 -0.92784418799E+00 -0.51599529642E+01 -0.44352066996E+03  0.45147273479E+03  0.84199522386E+02 0.  0.
          5    1    3    3  501    0  0.17331069522E+02 -0.27254561980E+02 -0.54091042798E+01  0.33083614201E+02  0.47000000000E+01 0. -1.
        -11    1    4    4    0    0  0.27952928852E+01  0.19682320179E+02 -0.22485707231E+01  0.20006585422E+02  0.00000000000E+00 0.  1.
         12    1    4    4    0    0 -0.34407279801E+02  0.75433239699E+02  0.18712879316E+03  0.20467344670E+03  0.00000000000E+00 0. -1.
         -5    1    5    5    0  502  0.15208761582E+02 -0.62701044935E+02 -0.72211041620E+02  0.96949739538E+02  0.47000000000E+01 0.  1.
         11    1    6    6    0    0  0.34285644925E+02  0.17795542362E+02 -0.27925317757E+03  0.28191226287E+03  0.00000000000E+00 0. -1.
        -12    1    6    6    0    0 -0.35213489113E+02 -0.22955495326E+02 -0.16426749239E+03  0.16956047192E+03  0.00000000000E+00 0.  1.
</event>
<event>
12    1  0.9966151E-001  0.1725806E+03  0.7818608E-02  0.1175894E+00
         21   -1    0    0  503  502  0.00000000000E+00  0.00000000000E+00  0.56926071234E+03  0.56926071234E+03  0.00000000000E+00 0.  1.
         21   -1    0    0  501  503 -0.00000000000E+00 -0.00000000000E+00 -0.53910194204E+02  0.53910194204E+02  0.00000000000E+00 0.  1.
          6    2    1    2  501    0  0.62433634820E+01 -0.78588169440E+01  0.19360920980E+03  0.25936187110E+03  0.17228846005E+03 0.  0.
         24    2    3    3    0    0  0.62156946824E+02  0.26242535496E+02  0.13876999390E+03  0.17381270020E+03  0.80009917103E+02 0.  0.
         -6    2    1    2    0  502 -0.62433634820E+01  0.78588169440E+01  0.32174130833E+03  0.36380903544E+03  0.16952523173E+03 0.  0.
        -24    2    5    5    0    0 -0.21641137538E+02  0.64808117663E+02  0.24737191087E+03  0.26876582644E+03  0.79835933195E+02 0.  0.
          5    1    3    3  501    0 -0.55913583342E+02 -0.34101352440E+02  0.54839215903E+02  0.85549170898E+02  0.47000000000E+01 0. -1.
        -11    1    4    4    0    0 -0.49310972174E+01  0.10543101524E+02  0.86627686853E+02  0.87406114426E+02  0.00000000000E+00 0.  1.
         12    1    4    4    0    0  0.67088044042E+02  0.15699433972E+02  0.52142307048E+02  0.86406585772E+02  0.00000000000E+00 0. -1.
         -5    1    5    5    0  502  0.15397774056E+02 -0.56949300719E+02  0.74369397460E+02  0.95043208999E+02  0.47000000000E+01 0.  1.
         13    1    6    6    0    0 -0.33326510209E+02 -0.36109734225E+01  0.56886755432E+02  0.66028769149E+02  0.00000000000E+00 0. -1.
        -14    1    6    6    0    0  0.11685372671E+02  0.68419091086E+02  0.19048515544E+03  0.20273705730E+03  0.00000000000E+00 0.  1.
</event>
<event>
12    1  0.9966151E-001  0.3148381E+03  0.7818608E-02  0.1078984E+00
         21   -1    0    0  503  502  0.00000000000E+00  0.00000000000E+00  0.56712460721E+03  0.56712460721E+03  0.00000000000E+00 0. -1.
         21   -1    0    0  501  503 -0.00000000000E+00 -0.00000000000E+00 -0.20725889600E+03  0.20725889600E+03  0.00000000000E+00 0. -1.
          6    2    1    2  501    0 -0.21960699774E+03 -0.12415903585E+03  0.34495492851E+03  0.46702991203E+03  0.18836224779E+03 0.  0.
         24    2    3    3    0    0 -0.23464903206E+03 -0.14452658191E+03  0.33044302719E+03  0.43747005735E+03  0.78989592592E+02 0.  0.
         -6    2    1    2    0  502  0.21960699774E+03  0.12415903585E+03  0.14910782704E+02  0.30735359118E+03  0.17493198373E+03 0.  0.
        -24    2    5    5    0    0  0.50618407460E+02  0.99154817701E+02  0.81497162978E+01  0.13632681962E+03  0.78260352835E+02 0.  0.
          5    1    3    3  501    0  0.15042034316E+02  0.20367546063E+02  0.14511901319E+02  0.29559854683E+02  0.47000000000E+01 0. -1.
        -13    1    4    4    0    0 -0.39543709922E+01 -0.25937316487E+02  0.20431140781E+02  0.33253765954E+02  0.00000000000E+00 0.  1.
         14    1    4    4    0    0 -0.23069466107E+03 -0.11858926542E+03  0.31001188641E+03  0.40421629140E+03  0.00000000000E+00 0. -1.
         -5    1    5    5    0  502  0.16898859028E+03  0.25004218144E+02  0.67610664060E+01  0.17102677156E+03  0.47000000000E+01 0.  1.
         13    1    6    6    0    0  0.19438909142E+02 -0.93187571980E+01  0.92445775405E+01  0.23455759170E+02  0.00000000000E+00 0. -1.
        -14    1    6    6    0    0  0.31179498318E+02  0.10847357490E+03 -0.10948612427E+01  0.11287106045E+03  0.00000000000E+00 0.  1.
</event>
<event>
12    1  0.9966151E-001  0.1939412E+03  0.7818608E-02  0.1155291E+00
         21   -1    0    0  503  502  0.00000000000E+00  0.00000000000E+00  0.22193278036E+04  0.22193278036E+04  0.00000000000E+00 0. -1.
         21   -1    0    0  501  503 -0.00000000000E+00 -0.00000000000E+00 -0.32732721953E+02  0.32732721953E+02  0.00000000000E+00 0.  1.
          6    2    1    2  501    0  0.60696022392E+02 -0.63781859673E+02  0.18763136939E+04  0.18861538067E+04  0.17108761475E+03 0.  0.
         24    2    3    3    0    0  0.10158245226E+03 -0.68923234538E+02  0.16043002512E+04  0.16109965119E+04  0.80380709649E+02 0.  0.
         -6    2    1    2    0  502 -0.60696022392E+02  0.63781859673E+02  0.31028138771E+03  0.36590671880E+03  0.17280351427E+03 0.  0.
        -24    2    5    5    0    0 -0.95093469715E+02  0.75086710850E+02  0.19334004787E+03  0.24339814356E+03  0.84743731633E+02 0.  0.
          5    1    3    3  501    0 -0.40886429867E+02  0.51413748647E+01  0.27201344272E+03  0.27515729484E+03  0.47000000000E+01 0. -1.
        -13    1    4    4    0    0  0.68953789006E+02 -0.83609363329E+02  0.10614380534E+04  0.10669563683E+04  0.00000000000E+00 0.  1.
         14    1    4    4    0    0  0.32628663253E+02  0.14686128791E+02  0.54286219783E+03  0.54404014362E+03  0.00000000000E+00 0. -1.
         -5    1    5    5    0  502  0.34397447323E+02 -0.11304851177E+02  0.11694133984E+03  0.12250857523E+03  0.47000000000E+01 0.  1.
         11    1    6    6    0    0  0.62650247914E+01  0.26924366417E+02  0.76747630223E+02  0.81574326767E+02  0.00000000000E+00 0. -1.
        -12    1    6    6    0    0 -0.10135849451E+03  0.48162344434E+02  0.11659241765E+03  0.16182381680E+03  0.00000000000E+00 0.  1.
</event>
<event>
12    1  0.9966151E-001  0.1942499E+03  0.7818608E-02  0.1155053E+00
         21   -1    0    0  501  502  0.00000000000E+00  0.00000000000E+00  0.38672873338E+03  0.38672873338E+03  0.00000000000E+00 0. -1.
         21   -1    0    0  502  503 -0.00000000000E+00 -0.00000000000E+00 -0.98432518555E+02  0.98432518555E+02  0.00000000000E+00 0. -1.
         -6    2    1    2    0  503 -0.33927352400E+02 -0.79598775057E+02  0.11283294705E+03  0.22464258462E+03  0.17391373336E+03 0.  0.
        -24    2    3    3    0    0 -0.86484819132E+02 -0.47482860557E+02  0.99691383157E+02  0.16148793336E+03  0.80035834215E+02 0.  0.
          6    2    1    2  501    0  0.33927352400E+02  0.79598775057E+02  0.17546326778E+03  0.26051866732E+03  0.17203368116E+03 0.  0.
         24    2    5    5    0    0  0.53608575346E+02  0.39118079547E+02  0.18689211987E+03  0.21384162901E+03  0.79971709558E+02 0.  0.
          5    1    5    5  501    0 -0.19681222947E+02  0.40480695510E+02 -0.11428852091E+02  0.46677038314E+02  0.47000000000E+01 0. -1.
        -11    1    6    6    0    0 -0.94449994379E+01 -0.11226528366E+02  0.71800807286E+02  0.73284369960E+02  0.00000000000E+00 0.  1.
         12    1    6    6    0    0  0.63053574784E+02  0.50344607913E+02  0.11509131258E+03  0.14055725905E+03  0.00000000000E+00 0. -1.
         -5    1    3    3    0  503  0.52557466732E+02 -0.32115914500E+02  0.13141563892E+02  0.63154651254E+02  0.47000000000E+01 0.  1.
         13    1    4    4    0    0  0.11384245086E+01  0.54652905498E+01  0.45137880311E+02  0.45481794711E+02  0.00000000000E+00 0. -1.
        -14    1    4    4    0    0 -0.87623243641E+02 -0.52948151107E+02  0.54553502846E+02  0.11600613865E+03  0.00000000000E+00 0.  1.
</event>
<event>
12    1  0.9966151E-001  0.1759265E+03  0.7818608E-02  0.1172129E+00
         21   -1    0    0  503  502  0.00000000000E+00  0.00000000000E+00  0.42557226857E+03  0.42557226857E+03  0.00000000000E+00 0. -1.
         21   -1    0    0  501  503 -0.00000000000E+00 -0.00000000000E+00 -0.72410957635E+02  0.72410957635E+02  0.00000000000E+00 0. -1.
          6    2    1    2  501    0 -0.72881740627E+01 -0.34936994675E+02  0.18964450632E+03  0.25780022062E+03  0.17094503179E+03 0.  0.
         24    2    3    3    0    0  0.60246131878E+02 -0.11763652266E+02  0.11022171795E+03  0.15089860421E+03  0.82786361949E+02 0.  0.
         -6    2    1    2    0  502  0.72881740627E+01  0.34936994675E+02  0.16351680461E+03  0.24018300558E+03  0.17226845243E+03 0.  0.
        -24    2    5    5    0    0  0.17195391014E+02 -0.37743423023E+02  0.42785910366E+02  0.98837206602E+02  0.78853736940E+02 0.  0.
          5    1    3    3  501    0 -0.67534305940E+02 -0.23173342409E+02  0.79422788369E+02  0.10690161640E+03  0.47000000000E+01 0. -1.
        -13    1    4    4    0    0 -0.88333307201E+01  0.22212129493E+02  0.14112151051E+02  0.27758948747E+02  0.00000000000E+00 0.  1.
         14    1    4    4    0    0  0.69079462598E+02 -0.33975781759E+02  0.96109566901E+02  0.12313965547E+03  0.00000000000E+00 0. -1.
         -5    1    5    5    0  502 -0.99072169513E+01  0.72680417698E+02  0.12073089424E+03  0.14134579898E+03  0.47000000000E+01 0.  1.
         11    1    6    6    0    0  0.34597925345E+02 -0.36834123985E+02  0.57125278780E+02  0.76269696496E+02  0.00000000000E+00 0. -1.
        -12    1    6    6    0    0 -0.17402534331E+02 -0.90929903744E+00 -0.14339368414E+02  0.22567510106E+02  0.00000000000E+00 0.  1.
</event>
<event>
12    1  0.9966151E-001  0.1815895E+03  0.7818608E-02  0.1167008E+00
         21   -1    0    0  503  502  0.00000000000E+00  0.00000000000E+00  0.26928813471E+03  0.26928813471E+03  0.00000000000E+00 0.  1.
         21   -1    0    0  501  503 -0.00000000000E+00 -0.00000000000E+00 -0.12113219573E+03  0.12113219573E+03  0.00000000000E+00 0.  1.
          6    2    1    2  501    0  0.39987207980E+00 -0.56674810138E+02  0.89793102581E+02  0.20257723037E+03  0.17251822799E+03 0.  0.
         24    2    3    3    0    0 -0.56522991491E+02 -0.68988486218E+02  0.50326719449E+02  0.13206819255E+03  0.83396456737E+02 0.  0.
         -6    2    1    2    0  502 -0.39987207980E+00  0.56674810138E+02  0.58362836404E+02  0.18784310008E+03  0.16931218377E+03 0.  0.
        -24    2    5    5    0    0  0.28019179518E+02  0.92614298313E+02  0.55332004174E+02  0.14168505367E+03  0.87467371487E+02 0.  0.
          5    1    3    3  501    0  0.56922863571E+02  0.12313676081E+02  0.39466383133E+02  0.70509037813E+02  0.47000000000E+01 0. -1.
        -11    1    4    4    0    0  0.17327189402E+02 -0.31628954739E+02  0.29838574774E+02  0.46807721746E+02  0.00000000000E+00 0.  1.
         12    1    4    4    0    0 -0.73850180893E+02 -0.37359531479E+02  0.20488144675E+02  0.85260470809E+02  0.00000000000E+00 0. -1.
         -5    1    5    5    0  502 -0.28419051598E+02 -0.35939488176E+02  0.30308322300E+01  0.46158046407E+02  0.47000000000E+01 0.  1.
         11    1    6    6    0    0  0.57696436775E+02  0.78539692217E+02  0.44144373683E+02  0.10698639071E+03  0.00000000000E+00 0. -1.
        -12    1    6    6    0    0 -0.29677257256E+02  0.14074606096E+02  0.11187630491E+02  0.34698662957E+02  0.00000000000E+00 0.  1.
</event>
<event>
12    1  0.9966151E-001  0.2184491E+03  0.7818608E-02  0.1135212E+00
         21   -1    0    0  503  502  0.00000000000E+00  0.00000000000E+00  0.21434474972E+04  0.21434474972E+04  0.00000000000E+00 0. -1.
         21   -1    0    0  501  503 -0.00000000000E+00 -0.00000000000E+00 -0.25631967187E+02  0.25631967187E+02  0.00000000000E+00 0. -1.
          6    2    1    2  501    0 -0.12395115141E+03 -0.48948418312E+02  0.66235027491E+03  0.69744384235E+03  0.17309012386E+03 0.  0.
         24    2    3    3    0    0 -0.65274764503E+02 -0.39660816616E+02  0.60463899390E+03  0.61448686627E+03  0.78562208566E+02 0.  0.
         -6    2    1    2    0  502  0.12395115141E+03  0.48948418312E+02  0.14554652551E+04  0.14716356221E+04  0.17196644911E+03 0.  0.
        -24    2    5    5    0    0  0.44582588574E+02  0.43743253283E+02  0.37663874471E+03  0.38987077141E+03  0.79002499771E+02 0.  0.
          5    1    3    3  501    0 -0.58676386911E+02 -0.92876016954E+01  0.57711281008E+02  0.82956976089E+02  0.47000000000E+01 0. -1.
        -11    1    4    4    0    0 -0.69721849059E+02 -0.37967293447E+02  0.31637771048E+03  0.32618630765E+03  0.00000000000E+00 0.  1.
         12    1    4    4    0    0  0.44470845554E+01 -0.16935231696E+01  0.28826128342E+03  0.28830055862E+03  0.00000000000E+00 0. -1.
         -5    1    5    5    0  502  0.79368562841E+02  0.52051650283E+01  0.10788265104E+04  0.10817648506E+04  0.47000000000E+01 0.  1.
         13    1    6    6    0    0 -0.49061994270E+01 -0.57068210702E+01  0.19619652448E+03  0.19634081292E+03  0.00000000000E+00 0. -1.
        -14    1    6    6    0    0  0.49488788001E+02  0.49450074354E+02  0.18044222023E+03  0.19352995849E+03  0.00000000000E+00 0.  1.
</event>
<event>
12    1  0.9966151E-001  0.3852274E+03  0.7818608E-02  0.1049056E+00
         21   -1    0    0  503  502  0.00000000000E+00  0.00000000000E+00  0.17021562248E+04  0.17021562248E+04  0.00000000000E+00 0. -1.
         21   -1    0    0  501  503 -0.00000000000E+00 -0.00000000000E+00 -0.12189506696E+03  0.12189506696E+03  0.00000000000E+00 0.  1.
          6    2    1    2  501    0  0.33731033742E+03 -0.75025721230E+02  0.12777854102E+04  0.13345919506E+04  0.17027330241E+03 0.  0.
         24    2    3    3    0    0  0.35122752611E+03 -0.75684107278E+02  0.12517981932E+04  0.13047331652E+04  0.79000360150E+02 0.  0.
         -6    2    1    2    0  502 -0.33731033742E+03  0.75025721230E+02  0.30247574773E+03  0.48945934125E+03  0.16932733446E+03 0.  0.
        -24    2    5    5    0    0 -0.10884380437E+03  0.78575892993E+02  0.11248988746E+03  0.19226196988E+03  0.79306655290E+02 0.  0.
          5    1    3    3  501    0 -0.13917188688E+02  0.65838604787E+00  0.25987216993E+02  0.29858785310E+02  0.47000000000E+01 0. -1.
        -11    1    4    4    0    0  0.29757789908E+03 -0.55213562352E+02  0.93474395215E+03  0.98252094103E+03  0.00000000000E+00 0.  1.
         12    1    4    4    0    0  0.53649627032E+02 -0.20470544927E+02  0.31705424101E+03  0.32221222422E+03  0.00000000000E+00 0. -1.
         -5    1    5    5    0  502 -0.22846653305E+03 -0.35501717628E+01  0.18998586026E+03  0.29719737136E+03  0.47000000000E+01 0.  1.
         13    1    6    6    0    0 -0.61276147385E+02  0.76640668385E+01  0.79629710083E+02  0.10076901749E+03  0.00000000000E+00 0. -1.
        -14    1    6    6    0    0 -0.47567656981E+02  0.70911826155E+02  0.32860177378E+02  0.91492952387E+02  0.00000000000E+00 0.  1.
</event>
<event>
12    1  0.9966151E-001  0.2637673E+03  0.7818608E-02  0.1104949E+00
         21   -1    0    0  501  502  0.00000000000E+00  0.00000000000E+00  0.11037553073E+04  0.11037553073E+04  0.00000000000E+00 0.  1.
         21   -1    0    0  502  503 -0.00000000000E+00 -0.00000000000E+00 -0.68066527933E+02  0.68066527933E+02  0.00000000000E+00 0.  1.
         -6    2    1    2    0  503  0.13161792507E+03  0.14954842105E+03  0.67871055860E+03  0.72816291521E+03  0.17287336491E+03 0.  0.
        -24    2    3    3    0    0  0.67108451746E+02  0.16111412886E+03  0.43776056215E+03  0.47841458481E+03  0.82370494561E+02 0.  0.
          6    2    1    2  501    0 -0.13161792507E+03 -0.14954842105E+03  0.35697822077E+03  0.44365892003E+03  0.17237104970E+03 0.  0.
         24    2    5    5    0    0 -0.92805463166E+01 -0.89680250706E+02  0.21632979478E+03  0.24781535543E+03  0.80530704509E+02 0.  0.
          5    1    5    5  501    0 -0.12233737876E+03 -0.59868170342E+02  0.14064842599E+03  0.19584356460E+03  0.47000000000E+01 0. -1.
        -11    1    6    6    0    0 -0.32082740976E+02 -0.42690969024E+01  0.53188706761E+02  0.62262075004E+02  0.00000000000E+00 0.  1.
         12    1    6    6    0    0  0.22802194659E+02 -0.85411153804E+02  0.16314108802E+03  0.18555328042E+03  0.00000000000E+00 0. -1.
         -5    1    3    3    0  503  0.64509473328E+02 -0.11565707817E+02  0.24094999645E+03  0.24974833040E+03  0.47000000000E+01 0.  1.
         11    1    4    4    0    0  0.23921181235E+02  0.59229422215E+02  0.71861216640E+02  0.96147708369E+02  0.00000000000E+00 0. -1.
        -12    1    4    4    0    0  0.43187270511E+02  0.10188470665E+03  0.36589934551E+03  0.38226687645E+03  0.00000000000E+00 0.  1.
</event>
<event>
12    1  0.9966151E-001  0.2236047E+03  0.7818608E-02  0.1131422E+00
         21   -1    0    0  503  502  0.00000000000E+00  0.00000000000E+00  0.66242635037E+02  0.66242635037E+02  0.00000000000E+00 0. -1.
         21   -1    0    0  501  503 -0.00000000000E+00 -0.00000000000E+00 -0.13450108159E+04  0.13450108159E+04  0.00000000000E+00 0.  1.
          6    2    1    2  501    0  0.90464470451E+02 -0.10989054459E+03 -0.11091333529E+04  0.11314485728E+04  0.17245093872E+03 0.  0.
         24    2    3    3    0    0 -0.13520936473E+02 -0.52521324711E+02 -0.61947221800E+03  0.62756931223E+03  0.84593779360E+02 0.  0.
         -6    2    1    2    0  502 -0.90464470451E+02  0.10989054459E+03 -0.16963482800E+03  0.27980487813E+03  0.17104105575E+03 0.  0.
        -24    2    5    5    0    0 -0.10052178735E+02  0.95765214647E+02 -0.15002575349E+03  0.19570810407E+03  0.80758359649E+02 0.  0.
          5    1    3    3  501    0  0.10398540692E+03 -0.57369219881E+02 -0.48966113490E+03  0.50387926061E+03  0.47000000000E+01 0. -1.
        -11    1    4    4    0    0  0.30353883184E+02 -0.46343554055E+02 -0.30490320245E+03  0.30989521792E+03  0.00000000000E+00 0.  1.
         12    1    4    4    0    0 -0.43874819657E+02 -0.61777706566E+01 -0.31456901555E+03  0.31767409431E+03  0.00000000000E+00 0. -1.
         -5    1    5    5    0  502 -0.80412291716E+02  0.14125329946E+02 -0.19609074509E+02  0.84096774065E+02  0.47000000000E+01 0.  1.
         13    1    6    6    0    0  0.26191065047E+02  0.27353802859E+02 -0.90327704882E+02  0.97945376044E+02  0.00000000000E+00 0. -1.
        -14    1    6    6    0    0 -0.36243243782E+02  0.68411411787E+02 -0.59698048607E+02  0.97762728021E+02  0.00000000000E+00 0.  1.
</event>
<event>
12    1  0.9966151E-001  0.2020221E+03  0.7818608E-02  0.1148060E+00
         21   -1    0    0  501  502  0.00000000000E+00  0.00000000000E+00  0.23463409160E+03  0.23463409160E+03  0.00000000000E+00 0. -1.
         21   -1    0    0  502  503 -0.00000000000E+00 -0.00000000000E+00 -0.17776171281E+03  0.17776171281E+03  0.00000000000E+00 0. -1.
         -6    2    1    2    0  503 -0.18958694865E+02 -0.10375083000E+03  0.58914765782E+02  0.21043731633E+03  0.17230568082E+03 0.  0.
        -24    2    3    3    0    0 -0.38738217184E+02  0.38955293946E+01  0.47539361511E+02  0.10029895782E+03  0.79272097410E+02 0.  0.
          6    2    1    2  501    0  0.18958694865E+02  0.10375083000E+03 -0.20423869915E+01  0.20195848808E+03  0.17221902545E+03 0.  0.
         24    2    5    5    0    0  0.47123716603E+02  0.82465918264E+01 -0.31116792827E+02  0.98123334919E+02  0.79820317693E+02 0.  0.
          5    1    5    5  501    0 -0.28165021738E+02  0.95504238170E+02  0.29074405836E+02  0.10383515316E+03  0.47000000000E+01 0. -1.
        -13    1    6    6    0    0  0.22252586154E+02 -0.25695937014E+02  0.13699124315E+02  0.36648666777E+02  0.00000000000E+00 0.  1.
         14    1    6    6    0    0  0.24871130449E+02  0.33942528840E+02 -0.44815917142E+02  0.61474668142E+02  0.00000000000E+00 0. -1.
         -5    1    3    3    0  503  0.19779522319E+02 -0.10764635939E+03  0.11375404272E+02  0.11013835851E+03  0.47000000000E+01 0.  1.
         11    1    4    4    0    0 -0.34162798190E+02  0.49542281546E+01 -0.14960738459E+02  0.37622664073E+02  0.00000000000E+00 0. -1.
        -12    1    4    4    0    0 -0.45754189941E+01 -0.10586987599E+01  0.62500099969E+02  0.62676293750E+02  0.00000000000E+00 0.  1.
</event>
<event>
12    1  0.9966151E-001  0.1871241E+03  0.7818608E-02  0.1162336E+00
         21   -1    0    0  503  502  0.00000000000E+00  0.00000000000E+00  0.14215711963E+03  0.14215711963E+03  0.00000000000E+00 0. -1.
         21   -1    0    0  501  503 -0.00000000000E+00 -0.00000000000E+00 -0.26366327584E+03  0.26366327584E+03  0.00000000000E+00 0. -1.
          6    2    1    2  501    0  0.28924075971E+02  0.47542742387E+02 -0.12162790860E+03  0.21869623938E+03  0.17302538092E+03 0.  0.
         24    2    3    3    0    0  0.63512424417E+02 -0.19974144729E+02 -0.55626582876E+02  0.11803269637E+03  0.80028783422E+02 0.  0.
         -6    2    1    2    0  502 -0.28924075971E+02 -0.47542742387E+02  0.12175239886E+00  0.18712415609E+03  0.17865755077E+03 0.  0.
        -24    2    5    5    0    0 -0.66052251166E+01 -0.14761325669E+02 -0.70878598470E+02  0.10566317029E+03  0.76677272377E+02 0.  0.
          5    1    3    3  501    0 -0.34588348446E+02  0.67516887116E+02 -0.66001325728E+02  0.10066354301E+03  0.47000000000E+01 0. -1.
        -11    1    4    4    0    0  0.21709525439E+02  0.13566937363E+02 -0.59016802406E+02  0.64329994951E+02  0.00000000000E+00 0.  1.
         12    1    4    4    0    0  0.41802898978E+02 -0.33541082092E+02  0.33902195295E+01  0.53702701415E+02  0.00000000000E+00 0. -1.
         -5    1    5    5    0  502 -0.22318850854E+02 -0.32781416719E+02  0.71000350869E+02  0.81460985810E+02  0.47000000000E+01 0.  1.
         11    1    6    6    0    0 -0.40801972504E+02 -0.11101293520E+02 -0.49779306872E+02  0.65314769162E+02  0.00000000000E+00 0. -1.
        -12    1    6    6    0    0  0.34196747388E+02 -0.36600321486E+01 -0.21099291599E+02  0.40348401123E+02  0.00000000000E+00 0.  1.
</event>
<event>
12    1  0.9966151E-001  0.1820750E+03  0.7818608E-02  0.1165966E+00
         21   -1    0    0  503  502  0.00000000000E+00  0.00000000000E+00  0.25880833817E+03  0.25880833817E+03  0.00000000000E+00 0. -1.
         21   -1    0    0  501  503 -0.00000000000E+00 -0.00000000000E+00 -0.14802719411E+03  0.14802719411E+03  0.00000000000E+00 0. -1.
          6    2    1    2  501    0  0.58725572176E+02  0.26480731118E+01 -0.20027809333E+02  0.18317319888E+03  0.17232412055E+03 0.  0.
         24    2    3    3    0    0  0.84054181027E+02 -0.32562132606E+02  0.21338601237E+02  0.12305193029E+03  0.81000270480E+02 0.  0.
         -6    2    1    2    0  502 -0.58725572176E+02 -0.26480731118E+01  0.13080895339E+03  0.22366233341E+03  0.17163377284E+03 0.  0.
        -24    2    5    5    0    0 -0.63484974797E+02 -0.61807879301E+02  0.10539646017E+03  0.15892888461E+03  0.79368889230E+02 0.  0.
          5    1    3    3  501    0 -0.25328608851E+02  0.35210205717E+02 -0.41366410569E+02  0.60121268586E+02  0.47000000000E+01 0. -1.
        -13    1    4    4    0    0  0.83179011197E+02 -0.49438970109E+02  0.12102983463E+01  0.96769956553E+02  0.00000000000E+00 0.  1.
         14    1    4    4    0    0  0.87516982953E+00  0.16876837503E+02  0.20128302890E+02  0.26281973738E+02  0.00000000000E+00 0. -1.
         -5    1    5    5    0  502  0.47594026216E+01  0.59159806189E+02  0.25412493223E+02  0.64733448800E+02  0.47000000000E+01 0.  1.
         11    1    6    6    0    0 -0.29984336230E+02 -0.59096999130E+02  0.10634799663E+03  0.12530527568E+03  0.00000000000E+00 0. -1.
        -12    1    6    6    0    0 -0.33500638567E+02 -0.27108801714E+01 -0.95153646368E+00  0.33623608928E+02  0.00000000000E+00 0.  1.
</event>
<event>
12    1  0.9966151E-001  0.3278219E+03  0.7818608E-02  0.1072384E+00
         21   -1    0    0  503  502  0.00000000000E+00  0.00000000000E+00  0.12549239637E+04  0.12549239637E+04  0.00000000000E+00 0.  1.
         21   -1    0    0  501  503 -0.00000000000E+00 -0.00000000000E+00 -0.14837259493E+03  0.14837259493E+03  0.00000000000E+00 0. -1.
          6    2    1    2  501    0  0.27584949395E+03 -0.42843011772E+02  0.10106693805E+04  0.10617404541E+04  0.16706803433E+03 0.  0.
         24    2    3    3    0    0  0.18992305870E+03 -0.47182560221E+02  0.53430344532E+03  0.57764461833E+03  0.99479501333E+02 0.  0.
         -6    2    1    2    0  502 -0.27584949395E+03  0.42843011772E+02  0.95881988288E+02  0.34155610460E+03  0.17186840880E+03 0.  0.
        -24    2    5    5    0    0 -0.19094764806E+03  0.93744388513E+02  0.49630505289E+02  0.23219174446E+03  0.78745186924E+02 0.  0.
          5    1    3    3  501    0  0.85926435252E+02  0.43395484490E+01  0.47636593520E+03  0.48409583574E+03  0.47000000000E+01 0. -1.
        -11    1    4    4    0    0  0.23078662798E+02 -0.47904976819E+01  0.20227085075E+03  0.20363956052E+03  0.00000000000E+00 0.  1.
         12    1    4    4    0    0  0.16684439590E+03 -0.42392062539E+02  0.33203259457E+03  0.37400505781E+03  0.00000000000E+00 0. -1.
         -5    1    5    5    0  502 -0.84901845887E+02 -0.50901376741E+02  0.46251482999E+02  0.10936436014E+03  0.47000000000E+01 0.  1.
         13    1    6    6    0    0 -0.47706687998E+02 -0.80415500478E+01 -0.37922228601E+01  0.48528090434E+02  0.00000000000E+00 0. -1.
        -14    1    6    6    0    0 -0.14324096006E+03  0.10178593856E+03  0.53422728149E+02  0.18366365403E+03  0.00000000000E+00 0.  1.
</event>
<event>
12    1  0.9966151E-001  0.2038567E+03  0.7818608E-02  0.1148457E+00
         21   -1    0    0  503  502  0.00000000000E+00  0.00000000000E+00  0.31193458018E+02  0.31193458018E+02  0.00000000000E+00 0.  1.
         21   -1    0    0  501  503 -0.00000000000E+00 -0.00000000000E+00 -0.12743542546E+04  0.12743542546E+04  0.00000000000E+00 0.  1.
          6    2    1    2  501    0 -0.29729587896E+02  0.91808818563E+02 -0.65653106815E+03  0.68745225695E+03  0.17956852335E+03 0.  0.
         24    2    3    3    0    0 -0.89908841777E+02  0.50362901210E+02 -0.39461337519E+03  0.41549219637E+03  0.79334908593E+02 0.  0.
         -6    2    1    2    0  502  0.29729587896E+02 -0.91808818563E+02 -0.58662972844E+03  0.61809545568E+03  0.16910010785E+03 0.  0.
        -24    2    5    5    0    0  0.69578273547E+01 -0.26118669541E+02 -0.12162650370E+03  0.14789992424E+03  0.79691812188E+02 0.  0.
          5    1    3    3  501    0  0.60179253881E+02  0.41445917353E+02 -0.26191769296E+03  0.27196006058E+03  0.47000000000E+01 0. -1.
        -11    1    4    4    0    0 -0.21168326743E+02 -0.21690009534E+02 -0.83543707257E+02  0.88871286661E+02  0.00000000000E+00 0.  1.
         12    1    4    4    0    0 -0.68740515034E+02  0.72052910744E+02 -0.31106966793E+03  0.32662090971E+03  0.00000000000E+00 0. -1.
         -5    1    5    5    0  502  0.22771760542E+02 -0.65690149022E+02 -0.46500322475E+03  0.47019553144E+03  0.47000000000E+01 0.  1.
         13    1    6    6    0    0  0.42733758459E+02 -0.97939615807E+01 -0.75303441370E+02  0.87136123839E+02  0.00000000000E+00 0. -1.
        -14    1    6    6    0    0 -0.35775931104E+02 -0.16324707960E+02 -0.46323062326E+02  0.60763800405E+02  0.00000000000E+00 0.  1.
</event>
<event>
12    1  0.9966151E-001  0.2222425E+03  0.7818608E-02  0.1132340E+00
         21   -1    0    0  503  502  0.00000000000E+00  0.00000000000E+00  0.85718167269E+02  0.85718167269E+02  0.00000000000E+00 0.  1.
         21   -1    0    0  501  503 -0.00000000000E+00 -0.00000000000E+00 -0.10948293318E+04  0.10948293318E+04  0.00000000000E+00 0.  1.
          6    2    1    2  501    0  0.20258537082E+02  0.13824289285E+03 -0.97264120632E+02  0.24200781449E+03  0.17200571899E+03 0.  0.
         24    2    3    3    0    0  0.58334189749E+02  0.26379196307E+02 -0.49850621657E+02  0.11459756445E+03  0.80924517959E+02 0.  0.
         -6    2    1    2    0  502 -0.20258537082E+02 -0.13824289285E+03 -0.91184704394E+03  0.93853968462E+03  0.17282998095E+03 0.  0.
        -24    2    5    5    0    0  0.15446075713E+02 -0.26172329789E+01 -0.29897128583E+03  0.30980450677E+03  0.79684198554E+02 0.  0.
          5    1    3    3  501    0 -0.38075652666E+02  0.11186369654E+03 -0.47413498975E+02  0.12741025004E+03  0.47000000000E+01 0. -1.
        -11    1    4    4    0    0  0.12888803357E+02  0.10051342239E+02 -0.62562939631E+02  0.64662757041E+02  0.00000000000E+00 0.  1.
         12    1    4    4    0    0  0.45445386392E+02  0.16327854068E+02  0.12712317974E+02  0.49934807410E+02  0.00000000000E+00 0. -1.
         -5    1    5    5    0  502 -0.35704612795E+02 -0.13562565987E+03 -0.61287575811E+03  0.62873517785E+03  0.47000000000E+01 0.  1.
         11    1    6    6    0    0  0.28649230368E+02 -0.26174953633E+02 -0.25688160556E+03  0.25979620065E+03  0.00000000000E+00 0. -1.
        -12    1    6    6    0    0 -0.13203154655E+02  0.23557720654E+02 -0.42089680271E+02  0.50008306116E+02  0.00000000000E+00 0.  1.
</event>
<event>
12    1  0.9966151E-001  0.1892582E+03  0.7818608E-02  0.1159396E+00
         21   -1    0    0  503  502  0.00000000000E+00  0.00000000000E+00  0.36727942197E+02  0.36727942197E+02  0.00000000000E+00 0.  1.
         21   -1    0    0  501  503 -0.00000000000E+00 -0.00000000000E+00 -0.10050690765E+04  0.10050690765E+04  0.00000000000E+00 0.  1.
          6    2    1    2  501    0 -0.55451699629E+02  0.52118688063E+02 -0.38442868313E+03  0.42797912836E+03  0.17201590991E+03 0.  0.
         24    2    3    3    0    0 -0.92514375326E+02  0.65078728210E+02 -0.34676619173E+03  0.37336999149E+03  0.79775988337E+02 0.  0.
         -6    2    1    2    0  502  0.55451699629E+02 -0.52118688063E+02 -0.58391245123E+03  0.61381789039E+03  0.17328416901E+03 0.  0.
        -24    2    5    5    0    0  0.99263679521E+02 -0.93572330756E+01 -0.40238598432E+03  0.42218809155E+03  0.79921639057E+02 0.  0.
          5    1    3    3  501    0  0.37062675698E+02 -0.12960040147E+02 -0.37662491399E+02  0.54609136863E+02  0.47000000000E+01 0. -1.
        -13    1    4    4    0    0 -0.24897699728E+02 -0.17237065017E+02 -0.55324939564E+02  0.63070284604E+02  0.00000000000E+00 0.  1.
         14    1    4    4    0    0 -0.67616675598E+02  0.82315793227E+02 -0.29144125216E+03  0.31029970689E+03  0.00000000000E+00 0. -1.
         -5    1    5    5    0  502 -0.43811979892E+02 -0.42761454987E+02 -0.18152646691E+03  0.19162979884E+03  0.47000000000E+01 0.  1.
         11    1    6    6    0    0  0.19931357044E+02 -0.22907940854E+02 -0.36137560460E+02  0.47201229049E+02  0.00000000000E+00 0. -1.
        -12    1    6    6    0    0  0.79332322477E+02  0.13550707778E+02 -0.36624842386E+03  0.37498686250E+03  0.00000000000E+00 0.  1.
</event>
<event>
12    1  0.9966151E-001  0.1931515E+03  0.7818608E-02  0.1155856E+00
         21   -1    0    0  501  502  0.00000000000E+00  0.00000000000E+00  0.14861812643E+04  0.14861812643E+04  0.00000000000E+00 0.  1.
         21   -1    0    0  502  503 -0.00000000000E+00 -0.00000000000E+00 -0.25964542890E+02  0.25964542890E+02  0.00000000000E+00 0.  1.
         -6    2    1    2    0  503 -0.86831630725E+02 -0.64193793917E+01  0.58470226544E+03  0.61577938095E+03  0.17241393869E+03 0.  0.
        -24    2    3    3    0    0 -0.10587304825E+03 -0.43338736130E+02  0.39673517579E+03  0.42321943891E+03  0.92889963765E+02 0.  0.
          6    2    1    2  501    0  0.86831630725E+02  0.64193793917E+01  0.87551445592E+03  0.89636642620E+03  0.17136588623E+03 0.  0.
         24    2    5    5    0    0  0.73881209855E+02  0.11953872316E+01  0.87466057479E+03  0.88160761162E+03  0.82103578835E+02 0.  0.
          5    1    5    5  501    0  0.12950420870E+02  0.52239921601E+01  0.85388113321E+00  0.14758814579E+02  0.47000000000E+01 0. -1.
        -11    1    6    6    0    0 -0.13445496943E+02 -0.50954908440E+00  0.30436767819E+03  0.30466493818E+03  0.00000000000E+00 0.  1.
         12    1    6    6    0    0  0.87326706799E+02  0.17049363160E+01  0.57029289660E+03  0.57694267344E+03  0.00000000000E+00 0. -1.
         -5    1    3    3    0  503  0.19041417525E+02  0.36919356738E+02  0.18796708965E+03  0.19255994203E+03  0.47000000000E+01 0.  1.
         13    1    4    4    0    0 -0.98823676127E+02  0.41989760811E+01  0.28113281364E+03  0.29802585336E+03  0.00000000000E+00 0. -1.
        -14    1    4    4    0    0 -0.70493721227E+01 -0.47537712211E+02  0.11560236215E+03  0.12519358556E+03  0.00000000000E+00 0.  1.
</event>
<event>
12    1  0.9966151E-001  0.1944915E+03  0.7818608E-02  0.1154511E+00
         21   -1    0    0  503  502  0.00000000000E+00  0.00000000000E+00  0.17924424713E+03  0.17924424713E+03  0.00000000000E+00 0.  1.
         21   -1    0    0  501  503 -0.00000000000E+00 -0.00000000000E+00 -0.22317297945E+03  0.22317297945E+03  0.00000000000E+00 0.  1.
          6    2    1    2  501    0 -0.88545279566E+02 -0.58008700151E+01 -0.69251237694E+02  0.20628416084E+03  0.17286846001E+03 0.  0.
         24    2    3    3    0    0 -0.11881477957E+03  0.27917161007E+02 -0.38287843413E+02  0.15120267546E+03  0.80622393845E+02 0.  0.
         -6    2    1    2    0  502  0.88545279566E+02  0.58008700151E+01  0.25322505367E+02  0.19613306573E+03  0.17306944725E+03 0.  0.
        -24    2    5    5    0    0  0.82370676212E+02 -0.26153094708E+02  0.72603018565E+02  0.13854210710E+03  0.80335574142E+02 0.  0.
          5    1    3    3  501    0  0.30269500007E+02 -0.33718031022E+02 -0.30963394281E+02  0.55081485384E+02  0.47000000000E+01 0. -1.
        -13    1    4    4    0    0 -0.10609976428E+02  0.16616663580E+02 -0.37545382013E+02  0.42406848726E+02  0.00000000000E+00 0.  1.
         14    1    4    4    0    0 -0.10820480315E+03  0.11300497427E+02 -0.74246139930E+00  0.10879582673E+03  0.00000000000E+00 0. -1.
         -5    1    5    5    0  502  0.61746033546E+01  0.31953964723E+02 -0.47280513198E+02  0.57590958634E+02  0.47000000000E+01 0.  1.
         13    1    6    6    0    0  0.80331880093E+02  0.63565071984E+01  0.68400153938E+02  0.10569861495E+03  0.00000000000E+00 0. -1.
        -14    1    6    6    0    0  0.20387961189E+01 -0.32509601907E+02  0.42028646266E+01  0.32843492153E+02  0.00000000000E+00 0.  1.
</event>
<event>
12    1  0.9966151E-001  0.2980005E+03  0.7818608E-02  0.1086375E+00
         21   -1    0    0  503  502  0.00000000000E+00  0.00000000000E+00  0.50006059077E+03  0.50006059077E+03  0.00000000000E+00 0.  1.
         21   -1    0    0  501  503 -0.00000000000E+00 -0.00000000000E+00 -0.23569254256E+03  0.23569254256E+03  0.00000000000E+00 0.  1.
          6    2    1    2  501    0  0.91611272338E+02 -0.22583643516E+03 -0.51609032541E+02  0.30141938226E+03  0.16969216569E+03 0.  0.
         24    2    3    3    0    0  0.12321580889E+03 -0.18580340499E+03 -0.69075990549E+02  0.24730214972E+03  0.81742399770E+02 0.  0.
         -6    2    1    2    0  502 -0.91611272338E+02  0.22583643516E+03  0.31597708075E+03  0.43433375107E+03  0.17149218959E+03 0.  0.
        -24    2    5    5    0    0 -0.46060898043E+02  0.63484448043E+02  0.71421636604E+02  0.13724376540E+03  0.87079960351E+02 0.  0.
          5    1    3    3  501    0 -0.31604536553E+02 -0.40033030173E+02  0.17466958009E+02  0.54117232539E+02  0.47000000000E+01 0. -1.
        -11    1    4    4    0    0  0.68936085221E+02 -0.36721630855E+02 -0.31760125637E+02  0.84317065880E+02  0.00000000000E+00 0.  1.
         12    1    4    4    0    0  0.54279723671E+02 -0.14908177413E+03 -0.37315864913E+02  0.16298508384E+03  0.00000000000E+00 0. -1.
         -5    1    5    5    0  502 -0.45550374295E+02  0.16235198712E+03  0.24455544415E+03  0.29708998566E+03  0.47000000000E+01 0.  1.
         11    1    6    6    0    0 -0.62962650212E+02  0.13930912656E+02  0.34098212621E+02  0.72945553347E+02  0.00000000000E+00 0. -1.
        -12    1    6    6    0    0  0.16901752168E+02  0.49553535387E+02  0.37323423983E+02  0.64298212055E+02  0.00000000000E+00 0.  1.
</event>
<event>
12    1  0.9966151E-001  0.2603916E+03  0.7818608E-02  0.1107208E+00
         21   -1    0    0  501  502  0.00000000000E+00  0.00000000000E+00  0.40229915363E+02  0.40229915363E+02  0.00000000000E+00 0. -1.
         21   -1    0    0  502  503 -0.00000000000E+00 -0.00000000000E+00 -0.23070220252E+04  0.23070220252E+04  0.00000000000E+00 0. -1.
         -6    2    1    2    0  503  0.24364697253E+02 -0.19194307718E+03 -0.17520173944E+04  0.17712619022E+04  0.17426414552E+03 0.  0.
        -24    2    3    3    0    0 -0.72650527419E+01 -0.12034836322E+03 -0.62459627776E+03  0.64111735017E+03  0.79840071225E+02 0.  0.
          6    2    1    2  501    0 -0.24364697253E+02  0.19194307718E+03 -0.51477471547E+03  0.57599003843E+03  0.17127677408E+03 0.  0.
         24    2    5    5    0    0 -0.19161001676E+02  0.46105620926E+02 -0.31395465780E+03  0.32770305195E+03  0.79554326328E+02 0.  0.
          5    1    5    5  501    0 -0.52036955774E+01  0.14583745626E+03 -0.20082005767E+03  0.24828698648E+03  0.47000000000E+01 0. -1.
        -11    1    6    6    0    0 -0.34319043450E+02  0.60715124546E+02 -0.19978239198E+03  0.21160606616E+03  0.00000000000E+00 0.  1.
         12    1    6    6    0    0  0.15158041774E+02 -0.14609503620E+02 -0.11417226582E+03  0.11609698579E+03  0.00000000000E+00 0. -1.
         -5    1    3    3    0  503  0.31629749995E+02 -0.71594713959E+02 -0.11274211167E+04  0.11301445520E+04  0.47000000000E+01 0.  1.
         13    1    4    4    0    0 -0.13047294520E+02  0.68784860728E+01 -0.11052803135E+03  0.11150780770E+03  0.00000000000E+00 0. -1.
        -14    1    4    4    0    0  0.57822417779E+01 -0.12722684930E+03 -0.51406824641E+03  0.52960954247E+03  0.00000000000E+00 0.  1.
</event>
<event>
12    1  0.9966151E-001  0.2415142E+03  0.7818608E-02  0.1118817E+00
         21   -1    0    0  503  502  0.00000000000E+00  0.00000000000E+00  0.21335699822E+03  0.21335699822E+03  0.00000000000E+00 0.  1.
         21   -1    0    0  501  503 -0.00000000000E+00 -0.00000000000E+00 -0.35349796233E+03  0.35349796233E+03  0.00000000000E+00 0.  1.
          6    2    1    2  501    0  0.14917257393E+03 -0.80899933216E+02  0.65002772643E+02  0.25010890496E+03  0.17184832814E+03 0.  0.
         24    2    3    3    0    0  0.12280621080E+03  0.91758247768E+01  0.44850567650E+02  0.15399944316E+03  0.80862190807E+02 0.  0.
         -6    2    1    2    0  502 -0.14917257393E+03  0.80899933216E+02 -0.20514373675E+03  0.31674605558E+03  0.17160085953E+03 0.  0.
        -24    2    5    5    0    0 -0.20229534168E+02  0.56652180393E+02 -0.48092067086E+02  0.11204730629E+03  0.81382113104E+02 0.  0.
          5    1    3    3  501    0  0.26366363125E+02 -0.90075757993E+02  0.20152204993E+02  0.96109461805E+02  0.47000000000E+01 0. -1.
        -11    1    4    4    0    0  0.91407270810E+02 -0.25739366162E+02  0.49001125902E+02  0.10685932092E+03  0.00000000000E+00 0.  1.
         12    1    4    4    0    0  0.31398939993E+02  0.34915190939E+02 -0.41505582521E+01  0.47140122240E+02  0.00000000000E+00 0. -1.
         -5    1    5    5    0  502 -0.12894303976E+03  0.24247752823E+02 -0.15705166967E+03  0.20469874930E+03  0.47000000000E+01 0.  1.
         11    1    6    6    0    0 -0.34342540540E+02 -0.77182486878E+01 -0.14351178591E+02  0.38012337214E+02  0.00000000000E+00 0. -1.
        -12    1    6    6    0    0  0.14113006372E+02  0.64370429081E+02 -0.33740888495E+02  0.74034969071E+02  0.00000000000E+00 0.  1.
</event>
<event>
12    1  0.9966151E-001  0.2297028E+03  0.7818608E-02  0.1126851E+00
         21   -1    0    0  503  502  0.00000000000E+00  0.00000000000E+00  0.12725643376E+03  0.12725643376E+03  0.00000000000E+00 0. -1.
         21   -1    0    0  501  503 -0.00000000000E+00 -0.00000000000E+00 -0.55434205263E+03  0.55434205263E+03  0.00000000000E+00 0. -1.
          6    2    1    2  501    0  0.14396614939E+03 -0.48292253634E+02 -0.38464627710E+03  0.44800806777E+03  0.17233710097E+03 0.  0.
         24    2    3    3    0    0  0.11138895420E+03 -0.99359818187E+02 -0.28297883630E+03  0.32957020088E+03  0.79117778812E+02 0.  0.
         -6    2    1    2    0  502 -0.14396614939E+03  0.48292253634E+02 -0.42439341765E+02  0.23359041862E+03  0.17235136208E+03 0.  0.
        -24    2    5    5    0    0 -0.10374821881E+03 -0.99355028900E+01  0.27130207825E+02  0.13424271709E+03  0.80141448643E+02 0.  0.
          5    1    3    3  501    0  0.32577195184E+02  0.51067564553E+02 -0.10166744080E+03  0.11843786689E+03  0.47000000000E+01 0. -1.
        -11    1    4    4    0    0  0.74628423136E+02 -0.18506015005E+02 -0.16367541163E+03  0.18083560076E+03  0.00000000000E+00 0.  1.
         12    1    4    4    0    0  0.36760531068E+02 -0.80853803182E+02 -0.11930342468E+03  0.14873460012E+03  0.00000000000E+00 0. -1.
         -5    1    5    5    0  502 -0.40217930575E+02  0.58227756524E+02 -0.69569549590E+02  0.99347701533E+02  0.47000000000E+01 0.  1.
         11    1    6    6    0    0 -0.61382263531E+01 -0.30743174112E+02  0.10512276494E+02  0.33065518812E+02  0.00000000000E+00 0. -1.
        -12    1    6    6    0    0 -0.97609992459E+02  0.20807671222E+02  0.16617931331E+02  0.10117719828E+03  0.00000000000E+00 0.  1.
</event>
<event>
12    1  0.9966151E-001  0.2342414E+03  0.7818608E-02  0.1124023E+00
         21   -1    0    0  503  502  0.00000000000E+00  0.00000000000E+00  0.76153646464E+03  0.76153646464E+03  0.00000000000E+00 0.  1.
         21   -1    0    0  501  503 -0.00000000000E+00 -0.00000000000E+00 -0.96300853979E+02  0.96300853979E+02  0.00000000000E+00 0.  1.
          6    2    1    2  501    0  0.11260892240E+03  0.10744797457E+03  0.54944914191E+03  0.59654144971E+03  0.17245725567E+03 0.  0.
         24    2    3    3    0    0  0.42222040004E+02  0.12176886432E+03  0.44169799595E+03  0.46695826966E+03  0.79640121779E+02 0.  0.
         -6    2    1    2    0  502 -0.11260892240E+03 -0.10744797457E+03  0.11578646874E+03  0.26129586890E+03  0.17505195833E+03 0.  0.
        -24    2    5    5    0    0 -0.11644167398E+03 -0.13970197481E+03  0.89158053603E+02  0.21903272883E+03  0.83371893180E+02 0.  0.
          5    1    3    3  501    0  0.70386882398E+02 -0.14320889747E+02  0.10775114596E+03  0.12958318005E+03  0.47000000000E+01 0. -1.
        -11    1    4    4    0    0  0.96976312575E+01  0.67721593107E+02  0.34349631886E+03  0.35024274338E+03  0.00000000000E+00 0.  1.
         12    1    4    4    0    0  0.32524408746E+02  0.54047271214E+02  0.98201677097E+02  0.11671552628E+03  0.00000000000E+00 0. -1.
         -5    1    5    5    0  502  0.38327515790E+01  0.32254000232E+02  0.26628415140E+02  0.42263140069E+02  0.47000000000E+01 0.  1.
         11    1    6    6    0    0 -0.61294028137E+02 -0.77443928340E+02  0.93155535577E+02  0.13576624665E+03  0.00000000000E+00 0. -1.
        -12    1    6    6    0    0 -0.55147645844E+02 -0.62258046467E+02 -0.39974819733E+01  0.83266482177E+02  0.00000000000E+00 0.  1.
</event>
<event>
12    1  0.9966151E-001  0.1837689E+03  0.7818608E-02  0.1164315E+00
         21   -1    0    0  501  502  0.00000000000E+00  0.00000000000E+00  0.64825377058E+02  0.64825377058E+02  0.00000000000E+00 0.  1.
         21   -1    0    0  502  503 -0.00000000000E+00 -0.00000000000E+00 -0.59896301470E+03  0.59896301470E+03  0.00000000000E+00 0.  1.
         -6    2    1    2    0  503  0.57419894205E+02  0.20592550581E+02 -0.38815142978E+03  0.42945608533E+03  0.17334906808E+03 0.  0.
        -24    2    3    3    0    0 -0.98108523173E+01 -0.41746901528E+02 -0.16514461294E+03  0.18829159598E+03  0.79636206122E+02 0.  0.
          6    2    1    2  501    0 -0.57419894205E+02 -0.20592550581E+02 -0.14598620787E+03  0.23433230642E+03  0.17285415690E+03 0.  0.
         24    2    5    5    0    0 -0.69362569978E+02 -0.52142242730E+02 -0.43253436177E+02  0.12610050445E+03  0.80625665211E+02 0.  0.
          5    1    5    5  501    0  0.11942675773E+02  0.31549692149E+02 -0.10273277169E+03  0.10823180197E+03  0.47000000000E+01 0. -1.
        -13    1    6    6    0    0  0.14955322634E+02  0.24792503988E+01 -0.15923242845E+02  0.21985404711E+02  0.00000000000E+00 0.  1.
         14    1    6    6    0    0 -0.84317892613E+02 -0.54621493129E+02 -0.27330193332E+02  0.10411509974E+03  0.00000000000E+00 0. -1.
         -5    1    3    3    0  503  0.67230746522E+02  0.62339452109E+02 -0.22300681684E+03  0.24116448935E+03  0.47000000000E+01 0.  1.
         11    1    4    4    0    0  0.31968941318E+02 -0.36202743257E+02 -0.87180188724E+02  0.99664623283E+02  0.00000000000E+00 0. -1.
        -12    1    4    4    0    0 -0.41779793635E+02 -0.55441582709E+01 -0.77964424213E+02  0.88626972700E+02  0.00000000000E+00 0.  1.
</event>
<event>
12    1  0.9966151E-001  0.3969976E+03  0.7818608E-02  0.1044853E+00
         21   -1    0    0  503  502  0.00000000000E+00  0.00000000000E+00  0.23356543477E+03  0.23356543477E+03  0.00000000000E+00 0.  1.
         21   -1    0    0  501  503 -0.00000000000E+00 -0.00000000000E+00 -0.79399620673E+03  0.79399620673E+03  0.00000000000E+00 0.  1.
          6    2    1    2  501    0 -0.29755089898E+02 -0.35620348061E+03 -0.47985894064E+03  0.62279344977E+03  0.17274487893E+03 0.  0.
         24    2    3    3    0    0  0.45481714180E+02 -0.18122666872E+03 -0.20898186729E+03  0.29162288911E+03  0.80366639931E+02 0.  0.
         -6    2    1    2    0  502  0.29755089898E+02  0.35620348061E+03 -0.80571831322E+02  0.40476819173E+03  0.17198599960E+03 0.  0.
        -24    2    5    5    0    0 -0.40448459879E+02  0.21387428755E+03 -0.81035146168E+02  0.24599652467E+03  0.81051258202E+02 0.  0.
          5    1    3    3  501    0 -0.75236804078E+02 -0.17497681189E+03 -0.27087707335E+03  0.33117056067E+03  0.47000000000E+01 0. -1.
        -13    1    4    4    0    0  0.42745291041E+02 -0.79622834198E+02 -0.50999420594E+02  0.10376847562E+03  0.00000000000E+00 0.  1.
         14    1    4    4    0    0  0.27364231390E+01 -0.10160383452E+03 -0.15798244670E+03  0.18785441349E+03  0.00000000000E+00 0. -1.
         -5    1    5    5    0  502  0.70203549777E+02  0.14232919306E+03  0.46331484507E+00  0.15877166706E+03  0.47000000000E+01 0.  1.
         13    1    6    6    0    0  0.24571099072E+02  0.51562582324E+02 -0.25376507222E+02  0.62501247382E+02  0.00000000000E+00 0. -1.
        -14    1    6    6    0    0 -0.65019558951E+02  0.16231170522E+03 -0.55658638946E+02  0.18349527729E+03  0.00000000000E+00 0.  1.
</event>
<event>
12    1  0.9966151E-001  0.1843035E+03  0.7818608E-02  0.1163827E+00
         21   -1    0    0  503  502  0.00000000000E+00  0.00000000000E+00  0.16422857200E+03  0.16422857200E+03  0.00000000000E+00 0.  1.
         21   -1    0    0  501  503 -0.00000000000E+00 -0.00000000000E+00 -0.21262006112E+03  0.21262006112E+03  0.00000000000E+00 0.  1.
          6    2    1    2  501    0  0.51766350385E+02 -0.40443344158E+02 -0.56879573639E+02  0.19288100491E+03  0.17219865574E+03 0.  0.
         24    2    3    3    0    0 -0.17147156407E+02 -0.33948226617E+02  0.25097067154E+02  0.85486789021E+02  0.72329947146E+02 0.  0.
         -6    2    1    2    0  502 -0.51766350385E+02  0.40443344158E+02  0.84880845166E+01  0.18396762822E+03  0.17162931432E+03 0.  0.
        -24    2    5    5    0    0 -0.25816850760E+02 -0.39891271963E+02 -0.17379293645E+02  0.95546825624E+02  0.81051419958E+02 0.  0.
          5    1    3    3  501    0  0.68913506792E+02 -0.64951175404E+01 -0.81976640793E+02  0.10739421589E+03  0.47000000000E+01 0. -1.
        -13    1    4    4    0    0 -0.87120653584E+01  0.22562183963E+02  0.36598544223E+01  0.24461127578E+02  0.00000000000E+00 0.  1.
         14    1    4    4    0    0 -0.84350910487E+01 -0.56510410580E+02  0.21437212732E+02  0.61025661444E+02  0.00000000000E+00 0. -1.
         -5    1    5    5    0  502 -0.25949499625E+02  0.80334616120E+02  0.25867378161E+02  0.88420802592E+02  0.47000000000E+01 0.  1.
         11    1    6    6    0    0 -0.22809108062E+02  0.16502986545E+02  0.13454888044E+02  0.31203172719E+02  0.00000000000E+00 0. -1.
        -12    1    6    6    0    0 -0.30077426984E+01 -0.56394258507E+02 -0.30834181688E+02  0.64343652905E+02  0.00000000000E+00 0.  1.
</event>
<event>
12    1  0.9966151E-001  0.1751143E+03  0.7818608E-02  0.1172873E+00
         21   -1    0    0  503  502  0.00000000000E+00  0.00000000000E+00  0.10629226707E+03  0.10629226707E+03  0.00000000000E+00 0.  1.
         21   -1    0    0  501  503 -0.00000000000E+00 -0.00000000000E+00 -0.30810576532E+03  0.30810576532E+03  0.00000000000E+00 0.  1.
          6    2    1    2  501    0  0.14935972845E+02 -0.27762730708E+02 -0.46173937538E+02  0.18011465686E+03  0.17121741911E+03 0.  0.
         24    2    3    3    0    0 -0.11068049810E+02 -0.50904903825E+02 -0.84971557327E+02  0.12777810489E+03  0.79957911267E+02 0.  0.
         -6    2    1    2    0  502 -0.14935972845E+02  0.27762730708E+02 -0.15563956071E+03  0.23428337553E+03  0.17225322839E+03 0.  0.
        -24    2    5    5    0    0 -0.59265458724E+02 -0.34492826697E+01 -0.41685657717E+02  0.10800243831E+03  0.80015876380E+02 0.  0.
          5    1    3    3  501    0  0.26004022655E+02  0.23142173116E+02  0.38797619790E+02  0.52336551970E+02  0.47000000000E+01 0. -1.
        -13    1    4    4    0    0  0.20399056776E+02 -0.42954469447E+02 -0.82506314138E+02  0.95228671289E+02  0.00000000000E+00 0.  1.
         14    1    4    4    0    0 -0.31467106585E+02 -0.79504343778E+01 -0.24652431889E+01  0.32549433599E+02  0.00000000000E+00 0. -1.
         -5    1    5    5    0  502  0.44329485879E+02  0.31212013378E+02 -0.11395390299E+03  0.12628093722E+03  0.47000000000E+01 0.  1.
         13    1    6    6    0    0  0.89160992697E+01 -0.14757463619E+02 -0.34434775704E+02  0.38510171856E+02  0.00000000000E+00 0. -1.
        -14    1    6    6    0    0 -0.68181557993E+02  0.11308180950E+02 -0.72508820131E+01  0.69492266453E+02  0.00000000000E+00 0.  1.
</event>
<event>
12    1  0.9966151E-001  0.2038223E+03  0.7818608E-02  0.1147065E+00
         21   -1    0    0  501  502  0.00000000000E+00  0.00000000000E+00  0.53943219497E+02  0.53943219497E+02  0.00000000000E+00 0. -1.
         21   -1    0    0  502  503 -0.00000000000E+00 -0.00000000000E+00 -0.79897949946E+03  0.79897949946E+03  0.00000000000E+00 0. -1.
         -6    2    1    2    0  503 -0.10422827725E+03  0.21752247201E+02 -0.46786710549E+03  0.51033633787E+03  0.17380119479E+03 0.  0.
        -24    2    3    3    0    0 -0.45776839090E+02  0.66983559818E+02 -0.36977819771E+03  0.38743000730E+03  0.82363698147E+02 0.  0.
          6    2    1    2  501    0  0.10422827725E+03 -0.21752247201E+02 -0.27716917447E+03  0.34258638109E+03  0.17089758101E+03 0.  0.
         24    2    5    5    0    0  0.13008045832E+03 -0.40140689630E+02 -0.26348600441E+03  0.30771821188E+03  0.82057435999E+02 0.  0.
          5    1    5    5  501    0 -0.25852181069E+02  0.18388442429E+02 -0.13683170061E+02  0.34868169208E+02  0.47000000000E+01 0. -1.
        -13    1    6    6    0    0  0.70724311312E+02 -0.11753772582E+02 -0.58816877973E+02  0.92733513440E+02  0.00000000000E+00 0.  1.
         14    1    6    6    0    0  0.59356147006E+02 -0.28386917048E+02 -0.20466912644E+03  0.21498469844E+03  0.00000000000E+00 0. -1.
         -5    1    3    3    0  503 -0.58451438159E+02 -0.45231312618E+02 -0.98088907782E+02  0.12290633057E+03  0.47000000000E+01 0.  1.
         11    1    4    4    0    0 -0.11172479236E+02  0.98302908873E+01 -0.24866759989E+03  0.24911249296E+03  0.00000000000E+00 0. -1.
        -12    1    4    4    0    0 -0.34604359854E+02  0.57153268931E+02 -0.12111059782E+03  0.13831751435E+03  0.00000000000E+00 0.  1.
</event>
<event>
12    1  0.9966151E-001  0.2085943E+03  0.7818608E-02  0.1143336E+00
         21   -1    0    0  503  502  0.00000000000E+00  0.00000000000E+00  0.99563930581E+02  0.99563930581E+02  0.00000000000E+00 0. -1.
         21   -1    0    0  501  503 -0.00000000000E+00 -0.00000000000E+00 -0.43026207914E+03  0.43026207914E+03  0.00000000000E+00 0. -1.
          6    2    1    2  501    0 -0.79631555255E+02 -0.80087061396E+02 -0.16678644493E+03  0.26707541924E+03  0.17537513894E+03 0.  0.
         24    2    3    3    0    0  0.21067515890E+02 -0.66299215895E+01 -0.69416510207E+02  0.10883747024E+03  0.80864992131E+02 0.  0.
         -6    2    1    2    0  502  0.79631555255E+02  0.80087061396E+02 -0.16391170364E+03  0.26275059048E+03  0.17151007030E+03 0.  0.
        -24    2    5    5    0    0  0.64940541017E+02  0.10449940201E+03 -0.68600536170E+02  0.16316094786E+03  0.82328989165E+02 0.  0.
          5    1    3    3  501    0 -0.10069907115E+03 -0.73457139806E+02 -0.97369934719E+02  0.15823794900E+03  0.47000000000E+01 0. -1.
        -13    1    4    4    0    0 -0.23974976611E+02 -0.81238679320E+01 -0.56569234072E+02  0.61974793079E+02  0.00000000000E+00 0.  1.
         14    1    4    4    0    0  0.45042492501E+02  0.14939463425E+01 -0.12847276135E+02  0.46862677159E+02  0.00000000000E+00 0. -1.
         -5    1    5    5    0  502  0.14691014238E+02 -0.24412340611E+02 -0.95311167466E+02  0.99589642620E+02  0.47000000000E+01 0.  1.
         11    1    6    6    0    0 -0.12611825943E+01 -0.87030241494E+01  0.74849760806E+01  0.11548076801E+02  0.00000000000E+00 0. -1.
        -12    1    6    6    0    0  0.66201723611E+02  0.11320242616E+03 -0.76085512251E+02  0.15161287106E+03  0.00000000000E+00 0.  1.
</event>
<event>
12    1  0.9966151E-001  0.2859017E+03  0.7818608E-02  0.1092672E+00
         21   -1    0    0  501  502  0.00000000000E+00  0.00000000000E+00  0.30346556756E+03  0.30346556756E+03  0.00000000000E+00 0. -1.
         21   -1    0    0  502  503 -0.00000000000E+00 -0.00000000000E+00 -0.27280072071E+03  0.27280072071E+03  0.00000000000E+00 0. -1.
         -6    2    1    2    0  503  0.27158693556E+02 -0.22525933867E+03  0.52777544506E+02  0.29073224619E+03  0.17395518239E+03 0.  0.
        -24    2    3    3    0    0  0.31064315307E+02 -0.24840547966E+03  0.41987149235E+02  0.26447352660E+03  0.74249926344E+02 0.  0.
          6    2    1    2  501    0 -0.27158693556E+02  0.22525933867E+03 -0.22112697659E+02  0.28553404208E+03  0.17193415454E+03 0.  0.
         24    2    5    5    0    0 -0.37838487098E+02  0.19518371323E+03 -0.72401887927E+02  0.22578712674E+03  0.78799493703E+02 0.  0.
          5    1    5    5  501    0  0.10679793541E+02  0.30075625436E+02  0.50289190268E+02  0.59746915345E+02  0.47000000000E+01 0. -1.
        -13    1    6    6    0    0  0.10199041842E+02  0.14114084269E+03 -0.50188338544E+02  0.15014535376E+03  0.00000000000E+00 0.  1.
         14    1    6    6    0    0 -0.48037528940E+02  0.54042870545E+02 -0.22213549383E+02  0.75641772980E+02  0.00000000000E+00 0. -1.
         -5    1    3    3    0  503 -0.39056217509E+01  0.23146140995E+02  0.10790395271E+02  0.26258719587E+02  0.47000000000E+01 0.  1.
         11    1    4    4    0    0  0.10436351031E+02 -0.14094994959E+03 -0.13154758323E+02  0.14194665681E+03  0.00000000000E+00 0. -1.
        -12    1    4    4    0    0  0.20627964277E+02 -0.10745553007E+03  0.55141907557E+02  0.12252686980E+03  0.00000000000E+00 0.  1.
</event>
<event>
12    1  0.9966151E-001  0.3529902E+03  0.7818608E-02  0.1061498E+00
         21   -1    0    0  503  502  0.00000000000E+00  0.00000000000E+00  0.52736674672E+03  0.52736674672E+03  0.00000000000E+00 0.  1.
         21   -1    0    0  501  503 -0.00000000000E+00 -0.00000000000E+00 -0.29365849336E+03  0.29365849336E+03  0.00000000000E+00 0. -1.
          6    2    1    2  501    0  0.29953987937E+03 -0.71106735258E+02  0.29926776819E+03  0.46199860486E+03  0.17059075792E+03 0.  0.
         24    2    3    3    0    0  0.25354178206E+03  0.42125594100E+00  0.24079303940E+03  0.35868615456E+03  0.79942835466E+02 0.  0.
         -6    2    1    2    0  502 -0.29953987937E+03  0.71106735258E+02 -0.65559514823E+02  0.35902663522E+03  0.17268980190E+03 0.  0.
        -24    2    5    5    0    0 -0.20082004892E+03  0.21946063137E+02  0.21624427654E+02  0.21836567250E+03  0.80035175513E+02 0.  0.
          5    1    3    3  501    0  0.45998097306E+02 -0.71527991199E+02  0.58474728789E+02  0.10331245030E+03  0.47000000000E+01 0. -1.
        -13    1    4    4    0    0  0.18738283101E+03  0.22796028414E+02  0.20997172177E+03  0.28234749550E+03  0.00000000000E+00 0.  1.
         14    1    4    4    0    0  0.66158951051E+02 -0.22374772473E+02  0.30821317628E+02  0.76338659064E+02  0.00000000000E+00 0. -1.
         -5    1    5    5    0  502 -0.98719830443E+02  0.49160672121E+02 -0.87183942476E+02  0.14066096271E+03  0.47000000000E+01 0.  1.
         11    1    6    6    0    0 -0.72006738578E+02 -0.53612658067E+01 -0.28284966948E+02  0.77548390873E+02  0.00000000000E+00 0. -1.
        -12    1    6    6    0    0 -0.12881331034E+03  0.27307328944E+02  0.49909394601E+02  0.14081728163E+03  0.00000000000E+00 0.  1.
</event>
<event>
12    1  0.9966151E-001  0.2200626E+03  0.7818608E-02  0.1133990E+00
         21   -1    0    0  503  502  0.00000000000E+00  0.00000000000E+00  0.63216904977E+03  0.63216904977E+03  0.00000000000E+00 0. -1.
         21   -1    0    0  501  503 -0.00000000000E+00 -0.00000000000E+00 -0.93236052167E+02  0.93236052167E+02  0.00000000000E+00 0. -1.
          6    2    1    2  501    0 -0.39422790853E+02 -0.13041220800E+03  0.42355048612E+03  0.47692843414E+03  0.17176791483E+03 0.  0.
         24    2    3    3    0    0 -0.77511872951E+02 -0.34937780052E+02  0.25011335350E+03  0.27526367882E+03  0.77360612431E+02 0.  0.
         -6    2    1    2    0  502  0.39422790853E+02  0.13041220800E+03  0.11538251148E+03  0.24847666779E+03  0.17281791009E+03 0.  0.
        -24    2    5    5    0    0  0.78817620994E+02  0.87674325934E+02  0.37036880515E+02  0.15081087492E+03  0.86447583363E+02 0.  0.
          5    1    3    3  501    0  0.38089082098E+02 -0.95474427950E+02  0.17343713262E+03  0.20166475532E+03  0.47000000000E+01 0. -1.
        -13    1    4    4    0    0 -0.19209725590E+02 -0.45706682692E+02  0.15906992642E+03  0.16661739373E+03  0.00000000000E+00 0.  1.
         14    1    4    4    0    0 -0.58302147361E+02  0.10768902640E+02  0.91043427079E+02  0.10864628510E+03  0.00000000000E+00 0. -1.
         -5    1    5    5    0  502 -0.39394830142E+02  0.42737882068E+02  0.78345630962E+02  0.97665792867E+02  0.47000000000E+01 0.  1.
         11    1    6    6    0    0  0.35147822109E+02 -0.10323068186E+02  0.21302432255E+02  0.42376039878E+02  0.00000000000E+00 0. -1.
        -12    1    6    6    0    0  0.43669798885E+02  0.97997394119E+02  0.15734448260E+02  0.10843483504E+03  0.00000000000E+00 0.  1.
</event>
<event>
12    1  0.9966151E-001  0.2159364E+03  0.7818608E-02  0.1137555E+00
         21   -1    0    0  503  502  0.00000000000E+00  0.00000000000E+00  0.15378110456E+03  0.15378110456E+03  0.00000000000E+00 0.  1.
         21   -1    0    0  501  503 -0.00000000000E+00 -0.00000000000E+00 -0.38728941689E+03  0.38728941689E+03  0.00000000000E+00 0.  1.
          6    2    1    2  501    0 -0.42177323293E+02 -0.11783895341E+03  0.11889833957E+02  0.21626347723E+03  0.17596470638E+03 0.  0.
         24    2    3    3    0    0  0.20236866798E+02 -0.15730207528E+02 -0.30651335829E+02  0.89166788690E+02  0.79713497041E+02 0.  0.
         -6    2    1    2    0  502  0.42177323293E+02  0.11783895341E+03 -0.24539814629E+03  0.32480704422E+03  0.17208840818E+03 0.  0.
        -24    2    5    5    0    0 -0.46505644804E+01  0.10382004095E+03 -0.81548847970E+02  0.15375715810E+03  0.78681766699E+02 0.  0.
          5    1    3    3  501    0 -0.62414190091E+02 -0.10210874588E+03  0.42541169786E+02  0.12709668854E+03  0.47000000000E+01 0. -1.
        -13    1    4    4    0    0 -0.13247333860E+02  0.18140911318E+02 -0.34733217251E+02  0.41364004864E+02  0.00000000000E+00 0.  1.
         14    1    4    4    0    0  0.33484200658E+02 -0.33871118846E+02  0.40818814216E+01  0.47802783826E+02  0.00000000000E+00 0. -1.
         -5    1    5    5    0  502  0.46827887774E+02  0.14018912466E+02 -0.16384929832E+03  0.17104988612E+03  0.47000000000E+01 0.  1.
         13    1    6    6    0    0  0.11451111090E+02  0.72236139006E+02 -0.98839023030E+01  0.73802975878E+02  0.00000000000E+00 0. -1.
        -14    1    6    6    0    0 -0.16101675571E+02  0.31583901939E+02 -0.71664945667E+02  0.79954182225E+02  0.00000000000E+00 0.  1.
</event>
<event>
12    1  0.9966151E-001  0.1741014E+03  0.7818608E-02  0.1176991E+00
         21   -1    0    0  501  502  0.00000000000E+00  0.00000000000E+00  0.19978299004E+03  0.19978299004E+03  0.00000000000E+00 0.  1.
         21   -1    0    0  502  503 -0.00000000000E+00 -0.00000000000E+00 -0.14101939667E+03  0.14101939667E+03  0.00000000000E+00 0.  1.
         -6    2    1    2    0  503 -0.78618219594E+01 -0.19599579403E+02  0.21876058554E+02  0.16283616780E+03  0.15997219711E+03 0.  0.
        -24    2    3    3    0    0 -0.12158079052E+02 -0.27552183336E+02 -0.43478857399E+02  0.96691955858E+02  0.80944311684E+02 0.  0.
          6    2    1    2  501    0  0.78618219594E+01  0.19599579403E+02  0.36887534820E+02  0.17796621891E+03  0.17281589362E+03 0.  0.
         24    2    5    5    0    0 -0.11623554998E+02  0.38322466938E+02 -0.38528911781E+02  0.97716877159E+02  0.80376567081E+02 0.  0.
          5    1    5    5  501    0  0.19485376957E+02 -0.18722887535E+02  0.75416446600E+02  0.80249341746E+02  0.47000000000E+01 0. -1.
        -11    1    6    6    0    0 -0.29889816950E+02 -0.75706404322E+01 -0.37182620521E+02  0.48303861364E+02  0.00000000000E+00 0.  1.
         12    1    6    6    0    0  0.18266261952E+02  0.45893107370E+02 -0.13462912594E+01  0.49413015795E+02  0.00000000000E+00 0. -1.
         -5    1    3    3    0  503  0.42962570930E+01  0.79526039323E+01  0.65354915953E+02  0.66144211943E+02  0.47000000000E+01 0.  1.
         13    1    4    4    0    0 -0.44960610115E+02 -0.11486210514E+02 -0.10717017098E+02  0.47626084758E+02  0.00000000000E+00 0. -1.
        -14    1    4    4    0    0  0.32802531063E+02 -0.16065972822E+02 -0.32761840302E+02  0.49065871100E+02  0.00000000000E+00 0.  1.
</event>
<event>
12    1  0.9966151E-001  0.1877286E+03  0.7818608E-02  0.1160812E+00
         21   -1    0    0  501  502  0.00000000000E+00  0.00000000000E+00  0.13303244611E+03  0.13303244611E+03  0.00000000000E+00 0.  1.
         21   -1    0    0  502  503 -0.00000000000E+00 -0.00000000000E+00 -0.26624774045E+03  0.26624774045E+03  0.00000000000E+00 0.  1.
         -6    2    1    2    0  503  0.72512451013E+02  0.13160381361E+02 -0.44900588226E+02  0.19181567578E+03  0.17130656573E+03 0.  0.
        -24    2    3    3    0    0  0.54329824493E+02  0.63932917967E+02  0.27981096702E+01  0.11966504056E+03  0.85280388639E+02 0.  0.
          6    2    1    2  501    0 -0.72512451013E+02 -0.13160381361E+02 -0.88314706112E+02  0.20746451078E+03  0.17265799931E+03 0.  0.
         24    2    5    5    0    0 -0.84979776314E+02 -0.54012395028E+02 -0.26388111912E+02  0.13209001715E+03  0.81317519518E+02 0.  0.
          5    1    5    5  501    0  0.12467325301E+02  0.40852013667E+02 -0.61926594199E+02  0.75374493630E+02  0.47000000000E+01 0. -1.
        -13    1    6    6    0    0 -0.98917321273E+00  0.12881259572E+02 -0.20906508951E+02  0.24576155686E+02  0.00000000000E+00 0.  1.
         14    1    6    6    0    0 -0.83990603101E+02 -0.66893654601E+02 -0.54816029618E+01  0.10751386146E+03  0.00000000000E+00 0. -1.
         -5    1    3    3    0  503  0.18182626520E+02 -0.50772536606E+02 -0.47698697896E+02  0.72150635213E+02  0.47000000000E+01 0.  1.
         11    1    4    4    0    0  0.25759124538E+01  0.64641387326E+02 -0.12078872124E+02  0.65810663514E+02  0.00000000000E+00 0. -1.
        -12    1    4    4    0    0  0.51753912039E+02 -0.70846935898E+00  0.14876981794E+02  0.53854377050E+02  0.00000000000E+00 0.  1.
</event>
<event>
12    1  0.9966151E-001  0.2414318E+03  0.7818608E-02  0.1118858E+00
         21   -1    0    0  501  502  0.00000000000E+00  0.00000000000E+00  0.61968438626E+02  0.61968438626E+02  0.00000000000E+00 0.  1.
         21   -1    0    0  502  503 -0.00000000000E+00 -0.00000000000E+00 -0.96109975159E+03  0.96109975159E+03  0.00000000000E+00 0.  1.
         -6    2    1    2    0  503  0.11213421828E+03 -0.12696019840E+03 -0.52478275842E+03  0.57761769794E+03  0.17190778502E+03 0.  0.
        -24    2    3    3    0    0  0.35015731163E+02 -0.11708419859E+03 -0.22693440597E+03  0.26975323509E+03  0.79578717260E+02 0.  0.
          6    2    1    2  501    0 -0.11213421828E+03  0.12696019840E+03 -0.37434855455E+03  0.44545049228E+03  0.17203582736E+03 0.  0.
         24    2    5    5    0    0 -0.13599998360E+03  0.59964835407E+02 -0.28386660710E+03  0.33026791447E+03  0.80030417205E+02 0.  0.
          5    1    5    5  501    0  0.23865765324E+02  0.66995362991E+02 -0.90481947450E+02  0.11518257781E+03  0.47000000000E+01 0. -1.
        -11    1    6    6    0    0 -0.26666661121E+01 -0.55670037721E+01 -0.67636933439E+02  0.67918019731E+02  0.00000000000E+00 0.  1.
         12    1    6    6    0    0 -0.13333331749E+03  0.65531839179E+02 -0.21622967366E+03  0.26234989474E+03  0.00000000000E+00 0. -1.
         -5    1    3    3    0  503  0.77118487115E+02 -0.98759998037E+01 -0.29784835245E+03  0.30786446284E+03  0.47000000000E+01 0.  1.
         11    1    4    4    0    0  0.25448136511E+02 -0.69787365947E+02 -0.20243868387E+03  0.21563697463E+03  0.00000000000E+00 0. -1.
        -12    1    4    4    0    0  0.95675946522E+01 -0.47296832646E+02 -0.24495722097E+02  0.54116260466E+02  0.00000000000E+00 0.  1.
</event>
<event>
12    1  0.9966151E-001  0.1891576E+03  0.7818608E-02  0.1159303E+00
         21   -1    0    0  503  502  0.00000000000E+00  0.00000000000E+00  0.17750510548E+02  0.17750510548E+02  0.00000000000E+00 0. -1.
         21   -1    0    0  501  503 -0.00000000000E+00 -0.00000000000E+00 -0.21053174929E+04  0.21053174929E+04  0.00000000000E+00 0. -1.
          6    2    1    2  501    0 -0.19121353301E+02 -0.75374375139E+02 -0.81936568114E+03  0.84083746724E+03  0.17204826153E+03 0.  0.
         24    2    3    3    0    0  0.24623530300E+02  0.14190974855E+02 -0.46766484686E+03  0.47525418863E+03  0.79677053234E+02 0.  0.
         -6    2    1    2    0  502  0.19121353301E+02  0.75374375139E+02 -0.12682013012E+04  0.12822305362E+04  0.17243458187E+03 0.  0.
        -24    2    5    5    0    0  0.28164998182E+01  0.95973118646E+02 -0.58127515386E+03  0.59478615418E+03  0.81676144185E+02 0.  0.
          5    1    3    3  501    0 -0.43744883601E+02 -0.89565349994E+02 -0.35170083429E+03  0.36558327861E+03  0.47000000000E+01 0. -1.
        -11    1    4    4    0    0 -0.24618193438E+02  0.15769032941E+02 -0.26847043957E+03  0.27005757677E+03  0.00000000000E+00 0.  1.
         12    1    4    4    0    0  0.49241723737E+02 -0.15780580861E+01 -0.19919440728E+03  0.20519661185E+03  0.00000000000E+00 0. -1.
         -5    1    5    5    0  502  0.16304853483E+02 -0.20598743508E+02 -0.68692614737E+03  0.68744438206E+03  0.47000000000E+01 0.  1.
         11    1    6    6    0    0 -0.39250350564E+02  0.41099191955E+02 -0.27286125749E+03  0.27871670104E+03  0.00000000000E+00 0. -1.
        -12    1    6    6    0    0  0.42066850383E+02  0.54873926691E+02 -0.30841389638E+03  0.31606945314E+03  0.00000000000E+00 0.  1.
</event>
<event>
12    1  0.9966151E-001  0.2027430E+03  0.7818608E-02  0.1147512E+00
         21   -1    0    0  501  502  0.00000000000E+00  0.00000000000E+00  0.83729421333E+03  0.83729421333E+03  0.00000000000E+00 0.  1.
         21   -1    0    0  502  503 -0.00000000000E+00 -0.00000000000E+00 -0.49384816512E+02  0.49384816512E+02  0.00000000000E+00 0.  1.
         -6    2    1    2    0  503  0.84144083672E+02  0.65174609378E+02  0.35526594133E+03  0.40888714256E+03  0.17218260586E+03 0.  0.
        -24    2    3    3    0    0 -0.12258193649E+02  0.37261506057E+02  0.23744446924E+03  0.25404357732E+03  0.81360801760E+02 0.  0.
          6    2    1    2  501    0 -0.84144083672E+02 -0.65174609378E+02  0.43264345549E+03  0.47779188728E+03  0.17255947221E+03 0.  0.
         24    2    5    5    0    0 -0.10617169473E+01 -0.53705138450E+02  0.33737305783E+03  0.35077705707E+03  0.79615290470E+02 0.  0.
          5    1    5    5  501    0 -0.83082366725E+02 -0.11469470928E+02  0.95270397663E+02  0.12701483022E+03  0.47000000000E+01 0. -1.
        -11    1    6    6    0    0  0.99713959331E+01 -0.27032540327E+01  0.99890375075E+00  0.10379505187E+02  0.00000000000E+00 0.  1.
         12    1    6    6    0    0 -0.11033112880E+02 -0.51001884417E+02  0.33637415408E+03  0.34039755188E+03  0.00000000000E+00 0. -1.
         -5    1    3    3    0  503  0.96402277321E+02  0.27913103321E+02  0.11782147209E+03  0.15484356524E+03  0.47000000000E+01 0.  1.
         13    1    4    4    0    0 -0.16484157734E+02  0.52218527605E+02  0.86999838301E+02  0.10279821956E+03  0.00000000000E+00 0. -1.
        -14    1    4    4    0    0  0.42259640845E+01 -0.14957021548E+02  0.15044463094E+03  0.15124535776E+03  0.00000000000E+00 0.  1.
</event>
<event>
12    1  0.9966151E-001  0.3022823E+03  0.7818608E-02  0.1084264E+00
         21   -1    0    0  503  502  0.00000000000E+00  0.00000000000E+00  0.22649806213E+03  0.22649806213E+03  0.00000000000E+00 0. -1.
         21   -1    0    0  501  503 -0.00000000000E+00 -0.00000000000E+00 -0.55417906172E+03  0.55417906172E+03  0.00000000000E+00 0. -1.
          6    2    1    2  501    0 -0.14252124253E+03 -0.20152413465E+03  0.41150290035E+02  0.30380070546E+03  0.17227083574E+03 0.  0.
         24    2    3    3    0    0 -0.13391852661E+03 -0.17629980624E+03 -0.20486712273E+02  0.23648441086E+03  0.80556674151E+02 0.  0.
         -6    2    1    2    0  502  0.14252124253E+03  0.20152413465E+03 -0.36883128962E+03  0.47687641839E+03  0.17450019139E+03 0.  0.
        -24    2    5    5    0    0  0.46557805209E+02  0.59795289731E+02 -0.23394645220E+03  0.25890381426E+03  0.80976148604E+02 0.  0.
          5    1    3    3  501    0 -0.86027159205E+01 -0.25224328415E+02  0.61637002308E+02  0.67316294600E+02  0.47000000000E+01 0. -1.
        -11    1    4    4    0    0 -0.53920371740E+02 -0.12927771435E+03 -0.29855659094E+02  0.14321834483E+03  0.00000000000E+00 0.  1.
         12    1    4    4    0    0 -0.79998154868E+02 -0.47022091894E+02  0.93689468211E+01  0.93266066031E+02  0.00000000000E+00 0. -1.
         -5    1    5    5    0  502  0.95963437320E+02  0.14172884492E+03 -0.13488483742E+03  0.21797260413E+03  0.47000000000E+01 0.  1.
         11    1    6    6    0    0  0.56002797694E+02  0.35144451052E+02 -0.85260108285E+02  0.10789222333E+03  0.00000000000E+00 0. -1.
        -12    1    6    6    0    0 -0.94449924848E+01  0.24650838679E+02 -0.14868634391E+03  0.15101159093E+03  0.00000000000E+00 0.  1.
</event>
<event>
12    1  0.9966151E-001  0.2802303E+03  0.7818608E-02  0.1095566E+00
         21   -1    0    0  503  502  0.00000000000E+00  0.00000000000E+00  0.50656629981E+03  0.50656629981E+03  0.00000000000E+00 0.  1.
         21   -1    0    0  501  503 -0.00000000000E+00 -0.00000000000E+00 -0.16390541912E+03  0.16390541912E+03  0.00000000000E+00 0.  1.
          6    2    1    2  501    0 -0.21629925067E+03 -0.47921055290E+02  0.24943389330E+03  0.37516168272E+03  0.17160194542E+03 0.  0.
         24    2    3    3    0    0 -0.27690975929E+02 -0.53138017665E+01  0.87439101591E+02  0.12286649471E+03  0.81581568979E+02 0.  0.
         -6    2    1    2    0  502  0.21629925067E+03  0.47921055290E+02  0.93226987388E+02  0.29531003621E+03  0.17156617652E+03 0.  0.
        -24    2    5    5    0    0  0.19405148860E+03  0.14592791185E+02  0.20547406790E+02  0.21218273900E+03  0.82038948197E+02 0.  0.
          5    1    3    3  501    0 -0.18860827474E+03 -0.42607253524E+02  0.16199479171E+03  0.25229518802E+03  0.47000000000E+01 0. -1.
        -13    1    4    4    0    0 -0.11690565210E+01  0.18460670692E+02  0.85192742902E+02  0.87177786728E+02  0.00000000000E+00 0.  1.
         14    1    4    4    0    0 -0.26521919408E+02 -0.23774472459E+02  0.22463586893E+01  0.35688707978E+02  0.00000000000E+00 0. -1.
         -5    1    5    5    0  502  0.22247762076E+02  0.33328264105E+02  0.72679580597E+02  0.83127297210E+02  0.47000000000E+01 0.  1.
         13    1    6    6    0    0 -0.15543651621E+01 -0.12786138543E+02 -0.31322707052E+01  0.13255659533E+02  0.00000000000E+00 0. -1.
        -14    1    6    6    0    0  0.19560585376E+03  0.27378929727E+02  0.23679677495E+02  0.19892707947E+03  0.00000000000E+00 0.  1.
</event>
<event>
12    1  0.9966151E-001  0.1760516E+03  0.7818608E-02  0.1171765E+00
         21   -1    0    0  503  502  0.00000000000E+00  0.00000000000E+00  0.18816344725E+03  0.18816344725E+03  0.00000000000E+00 0. -1.
         21   -1    0    0  501  503 -0.00000000000E+00 -0.00000000000E+00 -0.46053385162E+03  0.46053385162E+03  0.00000000000E+00 0. -1.
          6    2    1    2  501    0  0.22795584854E+01  0.36202335592E+02  0.12385884255E+03  0.21525604248E+03  0.17227404173E+03 0.  0.
         24    2    3    3    0    0 -0.62461673576E+01 -0.33802899575E+02  0.11451890838E+03  0.14396266745E+03  0.80181161239E+02 0.  0.
         -6    2    1    2    0  502 -0.22795584854E+01 -0.36202335592E+02 -0.39622924692E+03  0.43344125639E+03  0.17192411446E+03 0.  0.
        -24    2    5    5    0    0 -0.19613277124E+02 -0.84950699464E+02 -0.29397510386E+03  0.31874661590E+03  0.87044479905E+02 0.  0.
          5    1    3    3  501    0  0.85257258430E+01  0.70005235167E+02  0.93399341767E+01  0.71293375025E+02  0.47000000000E+01 0. -1.
        -11    1    4    4    0    0 -0.29679273831E+02 -0.27117348577E+02  0.11255071005E+03  0.11951515478E+03  0.00000000000E+00 0.  1.
         12    1    4    4    0    0  0.23433106474E+02 -0.66855509989E+01  0.19681983251E+01  0.24447512671E+02  0.00000000000E+00 0. -1.
         -5    1    5    5    0  502  0.17333718639E+02  0.48748363872E+02 -0.10225414307E+03  0.11469464049E+03  0.47000000000E+01 0.  1.
         13    1    6    6    0    0 -0.31984356755E+02 -0.45306739831E+02 -0.62425881874E+02  0.83502637556E+02  0.00000000000E+00 0. -1.
        -14    1    6    6    0    0  0.12371079631E+02 -0.39643959633E+02 -0.23154922198E+03  0.23524397834E+03  0.00000000000E+00 0.  1.
</event>
<event>
12    1  0.9966151E-001  0.1888907E+03  0.7818608E-02  0.1162791E+00
         21   -1    0    0  503  502  0.00000000000E+00  0.00000000000E+00  0.26531069982E+03  0.26531069982E+03  0.00000000000E+00 0.  1.
         21   -1    0    0  501  503 -0.00000000000E+00 -0.00000000000E+00 -0.13741516657E+03  0.13741516657E+03  0.00000000000E+00 0.  1.
          6    2    1    2  501    0  0.31187176172E+02 -0.14474594863E+02  0.12298910866E+03  0.21377144780E+03  0.17143441076E+03 0.  0.
         24    2    3    3    0    0  0.52557472393E+02 -0.57252281580E+02  0.24816404895E+02  0.10447099124E+03  0.65255056570E+02 0.  0.
         -6    2    1    2    0  502 -0.31187176172E+02  0.14474594863E+02  0.49064246005E+01  0.18895441859E+03  0.18573514866E+03 0.  0.
        -24    2    5    5    0    0 -0.79327954970E+02  0.15538372015E+02  0.50050520244E+02  0.12278232797E+03  0.77692213510E+02 0.  0.
          5    1    3    3  501    0 -0.21370296221E+02  0.42777686717E+02  0.98172703762E+02  0.10930045657E+03  0.47000000000E+01 0. -1.
        -11    1    4    4    0    0  0.60997048768E+01 -0.69731998992E+01  0.34146931344E+02  0.35381419370E+02  0.00000000000E+00 0.  1.
         12    1    4    4    0    0  0.46457767516E+02 -0.50279081681E+02 -0.93305264482E+01  0.69089571869E+02  0.00000000000E+00 0. -1.
         -5    1    5    5    0  502  0.48140778799E+02 -0.10637771519E+01 -0.45144095643E+02  0.66172090617E+02  0.47000000000E+01 0.  1.
         11    1    6    6    0    0 -0.18672946541E+02 -0.54909933749E+01  0.55051359311E+02  0.58390770699E+02  0.00000000000E+00 0. -1.
        -12    1    6    6    0    0 -0.60655008430E+02  0.21029365390E+02 -0.50008390675E+01  0.64391557270E+02  0.00000000000E+00 0.  1.
</event>
<event>
12    1  0.9966151E-001  0.2202665E+03  0.7818608E-02  0.1134017E+00
         21   -1    0    0  503  502  0.00000000000E+00  0.00000000000E+00  0.34268206055E+02  0.34268206055E+02  0.00000000000E+00 0.  1.
         21   -1    0    0  501  503 -0.00000000000E+00 -0.00000000000E+00 -0.18588175682E+04  0.18588175682E+04  0.00000000000E+00 0.  1.
          6    2    1    2  501    0  0.11621535967E+02  0.13621965770E+03 -0.44706958894E+03  0.49838593180E+03  0.17270340015E+03 0.  0.
         24    2    3    3    0    0 -0.17863517924E+02  0.19223845697E+02 -0.27979997050E+03  0.29208856468E+03  0.79618117344E+02 0.  0.
         -6    2    1    2    0  502 -0.11621535967E+02 -0.13621965770E+03 -0.13774797732E+04  0.13946998424E+04  0.17042966205E+03 0.  0.
        -24    2    5    5    0    0 -0.49900454802E+02 -0.29894435278E+02 -0.81525602432E+03  0.82121229912E+03  0.79771689107E+02 0.  0.
          5    1    3    3  501    0  0.29485053891E+02  0.11699581200E+03 -0.16726961844E+03  0.20629736712E+03  0.47000000000E+01 0. -1.
        -11    1    4    4    0    0  0.23429766658E+02  0.14969911541E+02 -0.20201879979E+03  0.20392314162E+03  0.00000000000E+00 0.  1.
         12    1    4    4    0    0 -0.41293284582E+02  0.42539341561E+01 -0.77781170705E+02  0.88165423061E+02  0.00000000000E+00 0. -1.
         -5    1    5    5    0  502  0.38278918834E+02 -0.10632522242E+03 -0.56222374886E+03  0.57348754331E+03  0.47000000000E+01 0.  1.
         13    1    6    6    0    0  0.39547436777E+01 -0.42997378143E+02 -0.37746127556E+03  0.37992292517E+03  0.00000000000E+00 0. -1.
        -14    1    6    6    0    0 -0.53855198479E+02  0.13102942865E+02 -0.43779474876E+03  0.44128937395E+03  0.00000000000E+00 0.  1.
</event>
<event>
12    1  0.9966151E-001  0.1986953E+03  0.7818608E-02  0.1151129E+00
         21   -1    0    0  501  502  0.00000000000E+00  0.00000000000E+00  0.35383938356E+03  0.35383938356E+03  0.00000000000E+00 0. -1.
         21   -1    0    0  502  503 -0.00000000000E+00 -0.00000000000E+00 -0.13311735457E+03  0.13311735457E+03  0.00000000000E+00 0. -1.
         -6    2    1    2    0  503  0.98615618526E+02 -0.20688203742E+02  0.21029994767E+03  0.28931970824E+03  0.17125064553E+03 0.  0.
        -24    2    3    3    0    0  0.30090350637E+02 -0.71826013298E+02  0.10012849078E+03  0.14978251672E+03  0.79653513794E+02 0.  0.
          6    2    1    2  501    0 -0.98615618526E+02  0.20688203742E+02  0.10422081325E+02  0.19763702989E+03  0.16970189690E+03 0.  0.
         24    2    5    5    0    0 -0.55021636379E+02  0.57788096750E+01  0.71920674997E+02  0.12065071724E+03  0.79518783745E+02 0.  0.
          5    1    5    5  501    0 -0.43593982147E+02  0.14909394067E+02 -0.61498593671E+02  0.76986312643E+02  0.47000000000E+01 0. -1.
        -13    1    6    6    0    0 -0.66564411219E+02 -0.18881657690E+02  0.56713031331E+02  0.89463432534E+02  0.00000000000E+00 0.  1.
         14    1    6    6    0    0  0.11542774840E+02  0.24660467365E+02  0.15207643666E+02  0.31187284709E+02  0.00000000000E+00 0. -1.
         -5    1    3    3    0  503  0.68525267889E+02  0.51137809557E+02  0.11017145688E+03  0.13953719152E+03  0.47000000000E+01 0.  1.
         11    1    4    4    0    0  0.83809036475E+01  0.16662252539E+02  0.27677673069E+02  0.33375496882E+02  0.00000000000E+00 0. -1.
        -12    1    4    4    0    0  0.21709446989E+02 -0.88488265837E+02  0.72450817716E+02  0.11640701984E+03  0.00000000000E+00 0.  1.
</event>
<event>
12    1  0.9966151E-001  0.4035955E+03  0.7818608E-02  0.1042650E+00
         21   -1    0    0  503  502  0.00000000000E+00  0.00000000000E+00  0.76411571198E+03  0.76411571198E+03  0.00000000000E+00 0. -1.
         21   -1    0    0  501  503 -0.00000000000E+00 -0.00000000000E+00 -0.27427563359E+03  0.27427563359E+03  0.00000000000E+00 0. -1.
          6    2    1    2  501    0  0.28202521865E+03 -0.23135896938E+03 -0.17676357740E+01  0.40233515295E+03  0.16972110682E+03 0.  0.
         24    2    3    3    0    0  0.18558802765E+03 -0.83064247389E+02  0.34120815023E+02  0.22177622274E+03  0.81718282875E+02 0.  0.
         -6    2    1    2    0  502 -0.28202521865E+03  0.23135896938E+03  0.49160771416E+03  0.63605619262E+03  0.17269666725E+03 0.  0.
        -24    2    5    5    0    0 -0.21745685612E+03  0.11392010482E+03  0.38831098646E+03  0.46678344140E+03  0.82680616910E+02 0.  0.
          5    1    3    3  501    0  0.96437190999E+02 -0.14829472199E+03 -0.35888450797E+02  0.18055893021E+03  0.47000000000E+01 0. -1.
        -13    1    4    4    0    0  0.17112123107E+03 -0.92549520037E+02  0.13720346232E+02  0.19502855504E+03  0.00000000000E+00 0.  1.
         14    1    4    4    0    0  0.14466796579E+02  0.94852726486E+01  0.20400468791E+02  0.26747667700E+02  0.00000000000E+00 0. -1.
         -5    1    5    5    0  502 -0.64568362529E+02  0.11743886456E+03  0.10329672771E+03  0.16927275121E+03  0.47000000000E+01 0.  1.
         11    1    6    6    0    0 -0.19687270325E+03  0.12500344829E+03  0.33113425131E+03  0.40501187113E+03  0.00000000000E+00 0. -1.
        -12    1    6    6    0    0 -0.20584152874E+02 -0.11083343472E+02  0.57176735143E+02  0.61771570270E+02  0.00000000000E+00 0.  1.
</event>
<event>
12    1  0.9966151E-001  0.4726859E+03  0.7818608E-02  0.1021230E+00
         21   -1    0    0  503  502  0.00000000000E+00  0.00000000000E+00  0.65157833186E+03  0.65157833186E+03  0.00000000000E+00 0.  1.
         21   -1    0    0  501  503 -0.00000000000E+00 -0.00000000000E+00 -0.34412480004E+03  0.34412480004E+03  0.00000000000E+00 0.  1.
          6    2    1    2  501    0 -0.99500326941E+02 -0.42759032624E+03  0.11673407445E+03  0.48599158332E+03  0.17270545089E+03 0.  0.
         24    2    3    3    0    0 -0.11959092544E+03 -0.22271248934E+03  0.52540855830E+02  0.27030333719E+03  0.80003188763E+02 0.  0.
         -6    2    1    2    0  502  0.99500326941E+02  0.42759032624E+03  0.19071945736E+03  0.50971154858E+03  0.17520887301E+03 0.  0.
        -24    2    5    5    0    0  0.10574449214E+03  0.43591333815E+03  0.17026455267E+03  0.48628602293E+03  0.79257442579E+02 0.  0.
          5    1    3    3  501    0  0.20090598494E+02 -0.20487783690E+03  0.64193218622E+02  0.21568824613E+03  0.47000000000E+01 0. -1.
        -11    1    4    4    0    0 -0.46182614624E+02 -0.30442863021E+02  0.30906828671E+02  0.63362716647E+02  0.00000000000E+00 0.  1.
         12    1    4    4    0    0 -0.73408310811E+02 -0.19226962632E+03  0.21634027159E+02  0.20694062055E+03  0.00000000000E+00 0. -1.
         -5    1    5    5    0  502 -0.62441651962E+01 -0.83230119077E+01  0.20454904689E+02  0.23425525651E+02  0.47000000000E+01 0.  1.
         13    1    6    6    0    0  0.29770743439E+02  0.28325037755E+03  0.10003729220E+03  0.30186840407E+03  0.00000000000E+00 0. -1.
        -14    1    6    6    0    0  0.75973748698E+02  0.15266296060E+03  0.70227260476E+02  0.18441761885E+03  0.00000000000E+00 0.  1.
</event>
<event>
12    1  0.9966151E-001  0.2459384E+03  0.7818608E-02  0.1115938E+00
         21   -1    0    0  501  502  0.00000000000E+00  0.00000000000E+00  0.71618780273E+02  0.71618780273E+02  0.00000000000E+00 0.  1.
         21   -1    0    0  502  503 -0.00000000000E+00 -0.00000000000E+00 -0.94096634470E+03  0.94096634470E+03  0.00000000000E+00 0.  1.
         -6    2    1    2    0  503 -0.10132156992E+03 -0.14334728829E+03 -0.27171517165E+03  0.36632654195E+03  0.17190548345E+03 0.  0.
        -24    2    3    3    0    0 -0.67329245719E+02 -0.71363868819E+02 -0.58264046669E+02  0.13846569946E+03  0.78434824479E+02 0.  0.
          6    2    1    2  501    0  0.10132156992E+03  0.14334728829E+03 -0.59763239277E+03  0.64625858302E+03  0.17225322536E+03 0.  0.
         24    2    5    5    0    0  0.11388471762E+02  0.83676135687E+01 -0.15762121721E+03  0.17728161200E+03  0.79903739535E+02 0.  0.
          5    1    5    5  501    0  0.89933098159E+02  0.13497967472E+03 -0.44001117556E+03  0.46897697102E+03  0.47000000000E+01 0. -1.
        -13    1    6    6    0    0 -0.63714165908E+01 -0.14355637470E+02 -0.14491970565E+03  0.14576831055E+03  0.00000000000E+00 0.  1.
         14    1    6    6    0    0  0.17759888353E+02  0.22723251039E+02 -0.12701511568E+02  0.31513301449E+02  0.00000000000E+00 0. -1.
         -5    1    3    3    0  503 -0.33992324202E+02 -0.71983419469E+02 -0.21345112499E+03  0.22786084249E+03  0.47000000000E+01 0.  1.
         13    1    4    4    0    0 -0.48313534145E+02 -0.74962914764E+01 -0.52248758517E+02  0.71556444393E+02  0.00000000000E+00 0. -1.
        -14    1    4    4    0    0 -0.19015711573E+02 -0.63867577343E+02 -0.60152881518E+01  0.66909255068E+02  0.00000000000E+00 0.  1.
</event>
<event>
12    1  0.9966151E-001  0.1791331E+03  0.7818608E-02  0.1170346E+00
         21   -1    0    0  501  502  0.00000000000E+00  0.00000000000E+00  0.26724529721E+03  0.26724529721E+03  0.00000000000E+00 0.  1.
         21   -1    0    0  502  503 -0.00000000000E+00 -0.00000000000E+00 -0.11796800916E+03  0.11796800916E+03  0.00000000000E+00 0.  1.
         -6    2    1    2    0  503  0.45094406300E+02  0.15110127249E+02  0.48370965439E+02  0.18554891853E+03  0.17270445693E+03 0.  0.
        -24    2    3    3    0    0 -0.21670669780E+02  0.55462392637E+02  0.37474504887E+02  0.10663945421E+03  0.80137006135E+02 0.  0.
          6    2    1    2  501    0 -0.45094406300E+02 -0.15110127249E+02  0.10090632261E+03  0.19966438785E+03  0.16559577412E+03 0.  0.
         24    2    5    5    0    0  0.10713026357E+02 -0.32480483497E+02  0.55397089369E+01  0.87713149268E+02  0.80580130537E+02 0.  0.
          5    1    5    5  501    0 -0.55807432657E+02  0.17370356249E+02  0.95366613675E+02  0.11195123858E+03  0.47000000000E+01 0. -1.
        -13    1    6    6    0    0 -0.10981134727E+02 -0.46112033646E+02  0.26770383438E+02  0.54438574525E+02  0.00000000000E+00 0.  1.
         14    1    6    6    0    0  0.21694161084E+02  0.13631550149E+02 -0.21230674501E+02  0.33274574743E+02  0.00000000000E+00 0. -1.
         -5    1    3    3    0  503  0.66765076080E+02 -0.40352265388E+02  0.10896460553E+02  0.78909464315E+02  0.47000000000E+01 0.  1.
         11    1    4    4    0    0  0.22396847593E+01  0.48055698951E+02 -0.13401031607E+02  0.49939503779E+02  0.00000000000E+00 0. -1.
        -12    1    4    4    0    0 -0.23910354539E+02  0.74066936856E+01  0.50875536494E+02  0.56699950433E+02  0.00000000000E+00 0.  1.
</event>
<event>
12    1  0.9966151E-001  0.2134529E+03  0.7818608E-02  0.1138956E+00
         21   -1    0    0  503  502  0.00000000000E+00  0.00000000000E+00  0.13694068287E+04  0.13694068287E+04  0.00000000000E+00 0.  1.
         21   -1    0    0  501  503 -0.00000000000E+00 -0.00000000000E+00 -0.33204358408E+02  0.33204358408E+02  0.00000000000E+00 0.  1.
          6    2    1    2  501    0 -0.12333601912E+03  0.25661885526E+02  0.65545430528E+03  0.68918270001E+03  0.17170364501E+03 0.  0.
         24    2    3    3    0    0 -0.56037837857E+01  0.34903608074E+02  0.38185293905E+03  0.39114564481E+03  0.77029761426E+02 0.  0.
         -6    2    1    2    0  502  0.12333601912E+03 -0.25661885526E+02  0.68074816504E+03  0.71342848712E+03  0.17231319174E+03 0.  0.
        -24    2    5    5    0    0  0.13286948897E+03 -0.67017443200E+00  0.66292234645E+03  0.68094275980E+03  0.81007743273E+02 0.  0.
          5    1    3    3  501    0 -0.11773223533E+03 -0.92417225474E+01  0.27360136623E+03  0.29803705520E+03  0.47000000000E+01 0. -1.
        -11    1    4    4    0    0  0.10042772304E+02  0.31372873921E+01  0.31765567196E+03  0.31782986923E+03  0.00000000000E+00 0.  1.
         12    1    4    4    0    0 -0.15646556090E+02  0.31766320682E+02  0.64197267090E+02  0.73315775580E+02  0.00000000000E+00 0. -1.
         -5    1    5    5    0  502 -0.95334698581E+01 -0.24991711094E+02  0.17825818590E+02  0.32485727318E+02  0.47000000000E+01 0.  1.
         13    1    6    6    0    0  0.76802933917E+02 -0.26278844457E+02  0.50383016919E+03  0.51032745146E+03  0.00000000000E+00 0. -1.
        -14    1    6    6    0    0  0.56066555057E+02  0.25608670025E+02  0.15909217726E+03  0.17061530834E+03  0.00000000000E+00 0.  1.
</event>
<event>
12    1  0.9966151E-001  0.2242292E+03  0.7818608E-02  0.1131485E+00
         21   -1    0    0  503  502  0.00000000000E+00  0.00000000000E+00  0.22698043475E+03  0.22698043475E+03  0.00000000000E+00 0.  1.
         21   -1    0    0  501  503 -0.00000000000E+00 -0.00000000000E+00 -0.23178335752E+03  0.23178335752E+03  0.00000000000E+00 0.  1.
          6    2    1    2  501    0 -0.14377557223E+02  0.13709942070E+03  0.54168518715E+02  0.23067939000E+03  0.17684961759E+03 0.  0.
         24    2    3    3    0    0 -0.18052013300E+02  0.96329453185E+02 -0.35837690405E+02  0.13168999886E+03  0.80328556631E+02 0.  0.
         -6    2    1    2    0  502  0.14377557223E+02 -0.13709942070E+03 -0.58971441488E+02  0.22808440226E+03  0.17187756787E+03 0.  0.
        -24    2    5    5    0    0  0.55696118132E+02 -0.36459249719E+02 -0.42187976754E+02  0.11790526549E+03  0.87695449046E+02 0.  0.
          5    1    3    3  501    0  0.36744560766E+01  0.40769967515E+02  0.90006209120E+02  0.98989391143E+02  0.47000000000E+01 0. -1.
        -11    1    4    4    0    0 -0.12636159196E+02  0.10786673000E+03 -0.18495325911E+02  0.11016796740E+03  0.00000000000E+00 0.  1.
         12    1    4    4    0    0 -0.54158541039E+01 -0.11537276813E+02 -0.17342364494E+02  0.21522031460E+02  0.00000000000E+00 0. -1.
         -5    1    5    5    0  502 -0.41318560909E+02 -0.10064017098E+03 -0.16783464734E+02  0.11017913677E+03  0.47000000000E+01 0.  1.
         13    1    6    6    0    0  0.32284349828E+02 -0.62381417296E+02 -0.44077081818E+02  0.82924722545E+02  0.00000000000E+00 0. -1.
        -14    1    6    6    0    0  0.23411768304E+02  0.25922167577E+02  0.18891050636E+01  0.34980542948E+02  0.00000000000E+00 0.  1.
</event>
<event>
12    1  0.9966151E-001  0.1741696E+03  0.7818608E-02  0.1173695E+00
         21   -1    0    0  501  502  0.00000000000E+00  0.00000000000E+00  0.33512087650E+03  0.33512087650E+03  0.00000000000E+00 0. -1.
         21   -1    0    0  502  503 -0.00000000000E+00 -0.00000000000E+00 -0.20437134629E+03  0.20437134629E+03  0.00000000000E+00 0. -1.
         -6    2    1    2    0  503 -0.19202630052E+02 -0.20952714839E+02  0.26689575654E+03  0.31842470402E+03  0.17132772693E+03 0.  0.
        -24    2    3    3    0    0  0.35680763216E+02 -0.47139599771E+02  0.21985122967E+03  0.24139732378E+03  0.80267340879E+02 0.  0.
          6    2    1    2  501    0  0.19202630052E+02  0.20952714839E+02 -0.13614622633E+03  0.22106751876E+03  0.17183508271E+03 0.  0.
         24    2    5    5    0    0  0.89264382766E+01 -0.25480942964E+02 -0.69360737566E+01  0.83303088590E+02  0.78500545825E+02 0.  0.
          5    1    5    5  501    0  0.10276191775E+02  0.46433657803E+02 -0.12921015257E+03  0.13776443017E+03  0.47000000000E+01 0. -1.
        -11    1    6    6    0    0 -0.34923390723E+01 -0.50514711352E+02 -0.17283886101E+02  0.53503880364E+02  0.00000000000E+00 0.  1.
         12    1    6    6    0    0  0.12418777349E+02  0.25033768389E+02  0.10347812344E+02  0.29799208226E+02  0.00000000000E+00 0. -1.
         -5    1    3    3    0  503 -0.54883393268E+02  0.26186884931E+02  0.47044526871E+02  0.77027380246E+02  0.47000000000E+01 0.  1.
         13    1    4    4    0    0  0.30161267089E+02  0.13565651152E+02  0.11942511597E+03  0.12391968064E+03  0.00000000000E+00 0. -1.
        -14    1    4    4    0    0  0.55194961270E+01 -0.60705250923E+02  0.10042611369E+03  0.11747764314E+03  0.00000000000E+00 0.  1.
</event>
<event>
12    1  0.9966151E-001  0.1835996E+03  0.7818608E-02  0.1164762E+00
         21   -1    0    0  503  502  0.00000000000E+00  0.00000000000E+00  0.16052576720E+03  0.16052576720E+03  0.00000000000E+00 0.  1.
         21   -1    0    0  501  503 -0.00000000000E+00 -0.00000000000E+00 -0.23951467165E+03  0.23951467165E+03  0.00000000000E+00 0.  1.
          6    2    1    2  501    0  0.14906605424E+01  0.59423325997E+02  0.33132753401E+02  0.18491241493E+03  0.17193448783E+03 0.  0.
         24    2    3    3    0    0  0.27711531010E+02  0.61158058904E+02  0.79448386725E+02  0.13145428892E+03  0.80373794247E+02 0.  0.
         -6    2    1    2    0  502 -0.14906605424E+01 -0.59423325997E+02 -0.11212165785E+03  0.21512802393E+03  0.17371081365E+03 0.  0.
        -24    2    5    5    0    0  0.64024014719E+02 -0.57223680528E+02 -0.71375074475E+02  0.13780153965E+03  0.80754188736E+02 0.  0.
          5    1    3    3  501    0 -0.26220870468E+02 -0.17347329066E+01 -0.46315633324E+02  0.53458126011E+02  0.47000000000E+01 0. -1.
        -11    1    4    4    0    0 -0.21972109823E+02  0.91207709689E+01 -0.63555150338E+00  0.23798445303E+02  0.00000000000E+00 0.  1.
         12    1    4    4    0    0  0.49683640833E+02  0.52037287935E+02  0.80083938228E+02  0.10765584361E+03  0.00000000000E+00 0. -1.
         -5    1    5    5    0  502 -0.65514675261E+02 -0.21996454689E+01 -0.40746583371E+02  0.77326484281E+02  0.47000000000E+01 0.  1.
         13    1    6    6    0    0  0.31072939868E+02  0.83990479391E+01 -0.53159342410E+02  0.62144889442E+02  0.00000000000E+00 0. -1.
        -14    1    6    6    0    0  0.32951074851E+02 -0.65622728467E+02 -0.18215732065E+02  0.75656650203E+02  0.00000000000E+00 0.  1.
</event>
<event>
12    1  0.9966151E-001  0.1782790E+03  0.7818608E-02  0.1170330E+00
         21   -1    0    0  501  502  0.00000000000E+00  0.00000000000E+00  0.11735963199E+03  0.11735963199E+03  0.00000000000E+00 0. -1.
         21   -1    0    0  502  503 -0.00000000000E+00 -0.00000000000E+00 -0.55101500224E+03  0.55101500224E+03  0.00000000000E+00 0. -1.
         -6    2    1    2    0  503  0.39597599116E+02 -0.26994900735E+02  0.22656466271E+02  0.17971290305E+03  0.17171696928E+03 0.  0.
        -24    2    3    3    0    0 -0.26091149657E+02  0.20484805722E+02  0.39792583097E+02  0.96736576664E+02  0.81695411372E+02 0.  0.
          6    2    1    2  501    0 -0.39597599116E+02  0.26994900735E+02 -0.45631183652E+03  0.48866173118E+03  0.16814606997E+03 0.  0.
         24    2    5    5    0    0 -0.95566506403E+02  0.42283476558E+01 -0.32634018972E+03  0.34525478053E+03  0.59599563598E+02 0.  0.
          5    1    5    5  501    0  0.55968907287E+02  0.22766553079E+02 -0.12997164681E+03  0.14340695065E+03  0.47000000000E+01 0. -1.
        -13    1    6    6    0    0 -0.32098156375E+02  0.30076078055E+02 -0.11790830425E+03  0.12584605804E+03  0.00000000000E+00 0.  1.
         14    1    6    6    0    0 -0.63468350028E+02 -0.25847730399E+02 -0.20843188547E+03  0.21940872249E+03  0.00000000000E+00 0. -1.
         -5    1    3    3    0  503  0.65688748773E+02 -0.47479706458E+02 -0.17136116826E+02  0.82976326386E+02  0.47000000000E+01 0.  1.
         13    1    4    4    0    0  0.23486986520E+02  0.11060779881E+02 -0.80669802557E+01  0.27185576282E+02  0.00000000000E+00 0. -1.
        -14    1    4    4    0    0 -0.49578136177E+02  0.94240258410E+01  0.47859563353E+02  0.69551000382E+02  0.00000000000E+00 0.  1.
</event>
<event>
12    1  0.9966151E-001  0.1902856E+03  0.7818608E-02  0.1158225E+00
         21   -1    0    0  501  502  0.00000000000E+00  0.00000000000E+00  0.20852624388E+02  0.20852624388E+02  0.00000000000E+00 0. -1.
         21   -1    0    0  502  503 -0.00000000000E+00 -0.00000000000E+00 -0.17392264717E+04  0.17392264717E+04  0.00000000000E+00 0. -1.
         -6    2    1    2    0  503  0.80989985891E+02  0.12424871772E+01 -0.89949118383E+03  0.91937853635E+03  0.17208016077E+03 0.  0.
        -24    2    3    3    0    0  0.75153657357E+02 -0.39111391772E+02 -0.36097837299E+03  0.37930387881E+03  0.79926676003E+02 0.  0.
          6    2    1    2  501    0 -0.80989985891E+02 -0.12424871772E+01 -0.81888266352E+03  0.84070055977E+03  0.17218505452E+03 0.  0.
         24    2    5    5    0    0 -0.83875536281E+02 -0.62476151781E+02 -0.56780027394E+03  0.58220037710E+03  0.74978349458E+02 0.  0.
          5    1    5    5  501    0  0.28855503893E+01  0.61233664604E+02 -0.25108238958E+03  0.25850018266E+03  0.47000000000E+01 0. -1.
        -11    1    6    6    0    0 -0.24644830776E+02 -0.12531072638E+01 -0.36153654045E+02  0.43772418971E+02  0.00000000000E+00 0.  1.
         12    1    6    6    0    0 -0.59230705505E+02 -0.61223044517E+02 -0.53164661989E+03  0.53842795813E+03  0.00000000000E+00 0. -1.
         -5    1    3    3    0  503  0.58363285340E+01  0.40353878949E+02 -0.53851281084E+03  0.54007465754E+03  0.47000000000E+01 0.  1.
         13    1    4    4    0    0  0.38593490222E+02 -0.61668459021E+02 -0.24733132150E+03  0.25780853151E+03  0.00000000000E+00 0. -1.
        -14    1    4    4    0    0  0.36560167135E+02  0.22557067249E+02 -0.11364705149E+03  0.12149534730E+03  0.00000000000E+00 0.  1.
</event>
<event>
12    1  0.9966151E-001  0.3049250E+03  0.7818608E-02  0.1082834E+00
         21   -1    0    0  501  502  0.00000000000E+00  0.00000000000E+00  0.91648126566E+03  0.91648126566E+03  0.00000000000E+00 0. -1.
         21   -1    0    0  502  503 -0.00000000000E+00 -0.00000000000E+00 -0.11961219850E+03  0.11961219850E+03  0.00000000000E+00 0. -1.
         -6    2    1    2    0  503 -0.25222826683E+03 -0.16713250393E+02  0.19626165623E+03  0.36262640307E+03  0.17053105045E+03 0.  0.
        -24    2    3    3    0    0 -0.26953790989E+03 -0.89803599033E+01  0.18988379910E+03  0.34207917942E+03  0.90724727039E+02 0.  0.
          6    2    1    2  501    0  0.25222826683E+03  0.16713250393E+02  0.60060741092E+03  0.67346706109E+03  0.17008876796E+03 0.  0.
         24    2    5    5    0    0  0.76756298085E+02  0.31506610046E+02  0.16857125210E+03  0.20689810816E+03  0.86639277196E+02 0.  0.
          5    1    5    5  501    0  0.17547196875E+03 -0.14793359653E+02  0.43203615882E+03  0.46656895293E+03  0.47000000000E+01 0. -1.
        -11    1    6    6    0    0  0.34056995182E+02  0.94731673337E+01  0.15202372352E+03  0.15607957052E+03  0.00000000000E+00 0.  1.
         12    1    6    6    0    0  0.42699302903E+02  0.22033442712E+02  0.16547528584E+02  0.50818537645E+02  0.00000000000E+00 0. -1.
         -5    1    3    3    0  503  0.17309643062E+02 -0.77328904893E+01  0.63778571308E+01  0.20547223653E+02  0.47000000000E+01 0.  1.
         13    1    4    4    0    0 -0.22495205302E+03  0.89249719326E+01  0.11421305249E+03  0.25244346425E+03  0.00000000000E+00 0. -1.
        -14    1    4    4    0    0 -0.44585856874E+02 -0.17905331836E+02  0.75670746614E+02  0.89635715172E+02  0.00000000000E+00 0.  1.
</event>
<event>
12    1  0.9966151E-001  0.2987491E+03  0.7818608E-02  0.1087430E+00
         21   -1    0    0  503  502  0.00000000000E+00  0.00000000000E+00  0.27030075505E+03  0.27030075505E+03  0.00000000000E+00 0.  1.
         21   -1    0    0  501  503 -0.00000000000E+00 -0.00000000000E+00 -0.31797623878E+03  0.31797623878E+03  0.00000000000E+00 0.  1.
          6    2    1    2  501    0  0.19953976387E+02 -0.23243064468E+03 -0.40541603881E+02  0.28944277853E+03  0.16646721792E+03 0.  0.
         24    2    3    3    0    0  0.17991315550E+02 -0.10455526359E+03  0.44098693634E+02  0.13600863928E+03  0.72788492212E+02 0.  0.
         -6    2    1    2    0  502 -0.19953976387E+02  0.23243064468E+03 -0.71338798494E+01  0.29883421529E+03  0.18662483819E+03 0.  0.
        -24    2    5    5    0    0 -0.39759759617E+02  0.47293021848E+02  0.21499110344E+02  0.11039285422E+03  0.88920763135E+02 0.  0.
          5    1    3    3  501    0  0.19626608369E+01 -0.12787538108E+03 -0.84640297515E+02  0.15343413925E+03  0.47000000000E+01 0. -1.
        -13    1    4    4    0    0 -0.74224331809E+01 -0.15866836040E+02  0.39991266668E+02  0.43659482474E+02  0.00000000000E+00 0.  1.
         14    1    4    4    0    0  0.25413748731E+02 -0.88688427555E+02  0.41074269662E+01  0.92349156807E+02  0.00000000000E+00 0. -1.
         -5    1    5    5    0  502  0.19805783230E+02  0.18513762283E+03 -0.28632990194E+02  0.18844136107E+03  0.47000000000E+01 0.  1.
         13    1    6    6    0    0  0.19561920132E+02  0.44392924257E+02  0.51080820109E+01  0.48780046588E+02  0.00000000000E+00 0. -1.
        -14    1    6    6    0    0 -0.59321679749E+02  0.29000975914E+01  0.16391028334E+02  0.61612807631E+02  0.00000000000E+00 0.  1.
</event>
<event>
12    1  0.9966151E-001  0.3443555E+03  0.7818608E-02  0.1064977E+00
         21   -1    0    0  501  502  0.00000000000E+00  0.00000000000E+00  0.52450897557E+03  0.52450897557E+03  0.00000000000E+00 0. -1.
         21   -1    0    0  502  503 -0.00000000000E+00 -0.00000000000E+00 -0.25567701308E+03  0.25567701308E+03  0.00000000000E+00 0. -1.
         -6    2    1    2    0  503  0.17983342252E+03 -0.23834983852E+03  0.13617269585E+01  0.34415728632E+03  0.17114811729E+03 0.  0.
        -24    2    3    3    0    0  0.12636153763E+03 -0.24594721067E+03  0.15235455550E+02  0.28819718552E+03  0.79801190516E+02 0.  0.
          6    2    1    2  501    0 -0.17983342252E+03  0.23834983852E+03  0.26747023553E+03  0.43602870233E+03  0.17155173269E+03 0.  0.
         24    2    5    5    0    0 -0.20012640669E+03  0.17892717967E+03  0.19863121563E+03  0.34273476763E+03  0.77118394968E+02 0.  0.
          5    1    5    5  501    0  0.20292984171E+02  0.59422658852E+02  0.68839019898E+02  0.93293934702E+02  0.47000000000E+01 0. -1.
        -13    1    6    6    0    0 -0.48433569336E+02  0.47424553239E+02  0.12421917503E+02  0.68914460913E+02  0.00000000000E+00 0.  1.
         14    1    6    6    0    0 -0.15169283735E+03  0.13150262643E+03  0.18620929813E+03  0.27382030672E+03  0.00000000000E+00 0. -1.
         -5    1    3    3    0  503  0.53471884886E+02  0.75973721464E+01 -0.13873728592E+02  0.55960100803E+02  0.47000000000E+01 0.  1.
         13    1    4    4    0    0  0.17069244033E+02 -0.61449961552E+02 -0.27649288102E+02  0.69512157205E+02  0.00000000000E+00 0. -1.
        -14    1    4    4    0    0  0.10929229360E+03 -0.18449724911E+03  0.42884743653E+02  0.21868502831E+03  0.00000000000E+00 0.  1.
</event>
<event>
12    1  0.9966151E-001  0.1793139E+03  0.7818608E-02  0.1168743E+00
         21   -1    0    0  501  502  0.00000000000E+00  0.00000000000E+00  0.58958141189E+02  0.58958141189E+02  0.00000000000E+00 0.  1.
         21   -1    0    0  502  503 -0.00000000000E+00 -0.00000000000E+00 -0.93854056615E+03  0.93854056615E+03  0.00000000000E+00 0.  1.
         -6    2    1    2    0  503  0.18075307913E+02 -0.40050346648E+02 -0.76480225295E+03  0.78554183294E+03  0.17384688135E+03 0.  0.
        -24    2    3    3    0    0  0.50154602301E+02  0.51062897155E+01 -0.65798827678E+03  0.66512788673E+03  0.83096179219E+02 0.  0.
          6    2    1    2  501    0 -0.18075307913E+02  0.40050346648E+02 -0.11478017201E+03  0.21195687440E+03  0.17268607846E+03 0.  0.
         24    2    5    5    0    0  0.14820018692E+02 -0.18548460040E+02 -0.11844972942E+03  0.14449222952E+03  0.79271606944E+02 0.  0.
          5    1    5    5  501    0 -0.32895326605E+02  0.58598806687E+02  0.36695574081E+01  0.67464644883E+02  0.47000000000E+01 0. -1.
        -11    1    6    6    0    0  0.19752842362E+02 -0.37948196658E+02 -0.26355951035E+02  0.50248149876E+02  0.00000000000E+00 0.  1.
         12    1    6    6    0    0 -0.49328236706E+01  0.19399736619E+02 -0.92093778383E+02  0.94244079640E+02  0.00000000000E+00 0. -1.
         -5    1    3    3    0  503 -0.32079294388E+02 -0.45156636363E+02 -0.10681397618E+03  0.12041394621E+03  0.47000000000E+01 0.  1.
         11    1    4    4    0    0  0.53583839566E+02 -0.30126401721E+02 -0.44301126781E+03  0.44725586788E+03  0.00000000000E+00 0. -1.
        -12    1    4    4    0    0 -0.34292372648E+01  0.35232691437E+02 -0.21497700896E+03  0.21787201885E+03  0.00000000000E+00 0.  1.
</event>
<event>
12    1  0.9966151E-001  0.2230813E+03  0.7818608E-02  0.1131624E+00
         21   -1    0    0  503  502  0.00000000000E+00  0.00000000000E+00  0.15350361049E+03  0.15350361049E+03  0.00000000000E+00 0. -1.
         21   -1    0    0  501  503 -0.00000000000E+00 -0.00000000000E+00 -0.38196886003E+03  0.38196886003E+03  0.00000000000E+00 0. -1.
          6    2    1    2  501    0 -0.88128581399E+02  0.11105049443E+03 -0.21850168393E+03  0.31226309378E+03  0.17223935288E+03 0.  0.
         24    2    3    3    0    0 -0.73250547894E+02  0.14270527924E+03 -0.17576992180E+03  0.25684220622E+03  0.96656163774E+02 0.  0.
         -6    2    1    2    0  502  0.88128581399E+02 -0.11105049443E+03 -0.99635656140E+01  0.22320937675E+03  0.17211709403E+03 0.  0.
        -24    2    5    5    0    0  0.77404738970E+02 -0.55301852650E+02  0.56081988367E+02  0.13599116158E+03  0.79363833621E+02 0.  0.
          5    1    3    3  501    0 -0.14878033506E+02 -0.31654784814E+02 -0.42731762132E+02  0.55420887556E+02  0.47000000000E+01 0. -1.
        -13    1    4    4    0    0 -0.63236674399E+02  0.93112366621E+02 -0.17271853770E+03  0.20615645290E+03  0.00000000000E+00 0.  1.
         14    1    4    4    0    0 -0.10013873495E+02  0.49592912620E+02 -0.30513840991E+01  0.50685753318E+02  0.00000000000E+00 0. -1.
         -5    1    5    5    0  502  0.10723842430E+02 -0.55748641777E+02 -0.66045553981E+02  0.87218215168E+02  0.47000000000E+01 0.  1.
         11    1    6    6    0    0  0.58248790431E+02 -0.74219945790E+02  0.31314791315E+02  0.99408943737E+02  0.00000000000E+00 0. -1.
        -12    1    6    6    0    0  0.19155948539E+02  0.18918093140E+02  0.24767197052E+02  0.36582217842E+02  0.00000000000E+00 0.  1.
</event>
<event>
12    1  0.9966151E-001  0.1832919E+03  0.7818608E-02  0.1165196E+00
         21   -1    0    0  503  502  0.00000000000E+00  0.00000000000E+00  0.21485212836E+03  0.21485212836E+03  0.00000000000E+00 0. -1.
         21   -1    0    0  501  503 -0.00000000000E+00 -0.00000000000E+00 -0.15829117189E+03  0.15829117189E+03  0.00000000000E+00 0. -1.
          6    2    1    2  501    0  0.12939607686E+02  0.57305626274E+02 -0.67378068721E+00  0.18329308863E+03  0.17362181346E+03 0.  0.
         24    2    3    3    0    0  0.46347476583E+02 -0.15594686556E+02 -0.34272474145E+02  0.96221258984E+02  0.75449621352E+02 0.  0.
         -6    2    1    2    0  502 -0.12939607686E+02 -0.57305626274E+02  0.57234737153E+02  0.18985021162E+03  0.17121892263E+03 0.  0.
        -24    2    5    5    0    0 -0.72241123667E+02 -0.49312273265E+02  0.21506810672E+02  0.11999938328E+03  0.79289525399E+02 0.  0.
          5    1    3    3  501    0 -0.33407868897E+02  0.72900312830E+02  0.33598693458E+02  0.87071829641E+02  0.47000000000E+01 0. -1.
        -13    1    4    4    0    0  0.49849173443E+02 -0.34975096616E+02 -0.52140574701E+01  0.61117786867E+02  0.00000000000E+00 0.  1.
         14    1    4    4    0    0 -0.35016968596E+01  0.19380410060E+02 -0.29058416675E+02  0.35103472117E+02  0.00000000000E+00 0. -1.
         -5    1    5    5    0  502  0.59301515981E+02 -0.79933530089E+01  0.35727926480E+02  0.69850828345E+02  0.47000000000E+01 0.  1.
         11    1    6    6    0    0 -0.39010915861E+02 -0.68362460097E+02  0.69247610979E+01  0.79014111544E+02  0.00000000000E+00 0. -1.
        -12    1    6    6    0    0 -0.33230207805E+02  0.19050186831E+02  0.14582049575E+02  0.40985271731E+02  0.00000000000E+00 0.  1.
</event>
<event>
12    1  0.9966151E-001  0.2457032E+03  0.7818608E-02  0.1116212E+00
         21   -1    0    0  501  502  0.00000000000E+00  0.00000000000E+00  0.14633183147E+03  0.14633183147E+03  0.00000000000E+00 0. -1.
         21   -1    0    0  502  503 -0.00000000000E+00 -0.00000000000E+00 -0.41333544583E+03  0.41333544583E+03  0.00000000000E+00 0.  1.
         -6    2    1    2    0  503  0.80458123566E+02 -0.15389629220E+03 -0.15530783523E+03  0.29067265611E+03  0.17381740686E+03 0.  0.
        -24    2    3    3    0    0  0.43762567551E+02 -0.11770172512E+02 -0.28384521480E+02  0.96564399457E+02  0.80407107293E+02 0.  0.
          6    2    1    2  501    0 -0.80458123566E+02  0.15389629220E+03 -0.11169577913E+03  0.26899462119E+03  0.17240818065E+03 0.  0.
         24    2    5    5    0    0 -0.40291032270E+02  0.85723660228E+01 -0.67181108226E+02  0.11171752602E+03  0.79187445824E+02 0.  0.
          5    1    5    5  501    0 -0.40167091296E+02  0.14532392617E+03 -0.44514670906E+02  0.15727709518E+03  0.47000000000E+01 0. -1.
        -13    1    6    6    0    0  0.35800923511E+01 -0.30335080111E+02 -0.25227373422E+02  0.39616341531E+02  0.00000000000E+00 0.  1.
         14    1    6    6    0    0 -0.43871124621E+02  0.38907446134E+02 -0.41953734804E+02  0.72101184485E+02  0.00000000000E+00 0. -1.
         -5    1    3    3    0  503  0.36695556016E+02 -0.14212611968E+03 -0.12692331375E+03  0.19410825665E+03  0.47000000000E+01 0.  1.
         11    1    4    4    0    0  0.65119484060E+02 -0.21773351451E+02 -0.19708612125E+02  0.71435673368E+02  0.00000000000E+00 0. -1.
        -12    1    4    4    0    0 -0.21356916510E+02  0.10003178939E+02 -0.86759093555E+01  0.25128726089E+02  0.00000000000E+00 0.  1.
</event>
<event>
12    1  0.9966151E-001  0.2194031E+03  0.7818608E-02  0.1134462E+00
         21   -1    0    0  503  502  0.00000000000E+00  0.00000000000E+00  0.93617973734E+03  0.93617973734E+03  0.00000000000E+00 0.  1.
         21   -1    0    0  501  503 -0.00000000000E+00 -0.00000000000E+00 -0.57147404954E+02  0.57147404954E+02  0.00000000000E+00 0.  1.
          6    2    1    2  501    0 -0.13283950827E+03  0.27647449961E+02  0.27937110932E+03  0.35478872997E+03  0.17151125253E+03 0.  0.
         24    2    3    3    0    0 -0.70587315053E+02  0.82951233227E+02  0.16572904905E+03  0.21382613967E+03  0.79950135479E+02 0.  0.
         -6    2    1    2    0  502  0.13283950827E+03 -0.27647449961E+02  0.59966122307E+03  0.63853841233E+03  0.17241521140E+03 0.  0.
        -24    2    5    5    0    0  0.70904415166E+02 -0.83391205998E+02  0.40217531285E+03  0.42414135817E+03  0.78545401660E+02 0.  0.
          5    1    3    3  501    0 -0.62252193214E+02 -0.55303783266E+02  0.11364206027E+03  0.14096259030E+03  0.47000000000E+01 0. -1.
        -13    1    4    4    0    0  0.41135646142E+01  0.77379497011E+01  0.71374664304E+02  0.71910638878E+02  0.00000000000E+00 0.  1.
         14    1    4    4    0    0 -0.74700879667E+02  0.75213283526E+02  0.94354384751E+02  0.14191550079E+03  0.00000000000E+00 0. -1.
         -5    1    5    5    0  502  0.61935093101E+02  0.55743756037E+02  0.19748591022E+03  0.21439705415E+03  0.47000000000E+01 0.  1.
         11    1    6    6    0    0  0.57373226185E+02 -0.14058469942E+02  0.24156618293E+03  0.24868363114E+03  0.00000000000E+00 0. -1.
        -12    1    6    6    0    0  0.13531188982E+02 -0.69332736056E+02  0.16060912991E+03  0.17545772703E+03  0.00000000000E+00 0.  1.
</event>
<event>
12    1  0.9966151E-001  0.2534203E+03  0.7818608E-02  0.1111213E+00
         21   -1    0    0  503  502  0.00000000000E+00  0.00000000000E+00  0.28005381241E+03  0.28005381241E+03  0.00000000000E+00 0.  1.
         21   -1    0    0  501  503 -0.00000000000E+00 -0.00000000000E+00 -0.33050364303E+03  0.33050364303E+03  0.00000000000E+00 0.  1.
          6    2    1    2  501    0 -0.14610559162E+03  0.11450581016E+03  0.14392437534E+03  0.29143796915E+03  0.17252083811E+03 0.  0.
         24    2    3    3    0    0 -0.74278918596E+02  0.96654243460E+02  0.15908002779E+03  0.21574428915E+03  0.79873290477E+02 0.  0.
         -6    2    1    2    0  502  0.14610559162E+03 -0.11450581016E+03 -0.19437420596E+03  0.31911948629E+03  0.17203921101E+03 0.  0.
        -24    2    5    5    0    0  0.11499229214E+03 -0.14630824244E+03 -0.13005279440E+03  0.24076920812E+03  0.80167033074E+02 0.  0.
          5    1    3    3  501    0 -0.71826673021E+02  0.17851566697E+02 -0.15155652451E+02  0.75693680000E+02  0.47000000000E+01 0. -1.
        -11    1    4    4    0    0  0.15725295811E+02  0.15381213028E+02  0.40759793812E+02  0.46316599985E+02  0.00000000000E+00 0.  1.
         12    1    4    4    0    0 -0.90004214407E+02  0.81273030432E+02  0.11832023398E+03  0.16942768916E+03  0.00000000000E+00 0. -1.
         -5    1    5    5    0  502  0.31113299482E+02  0.31802432284E+02 -0.64321411556E+02  0.78350278164E+02  0.47000000000E+01 0.  1.
         11    1    6    6    0    0  0.90893680615E+02 -0.13195029422E+03 -0.13816239684E+03  0.21156887583E+03  0.00000000000E+00 0. -1.
        -12    1    6    6    0    0  0.24098611520E+02 -0.14357948226E+02  0.81096024359E+01  0.29200332295E+02  0.00000000000E+00 0.  1.
</event>
<event>
12    1  0.9966151E-001  0.1877683E+03  0.7818608E-02  0.1160617E+00
         21   -1    0    0  503  502  0.00000000000E+00  0.00000000000E+00  0.16975220163E+03  0.16975220163E+03  0.00000000000E+00 0. -1.
         21   -1    0    0  501  503 -0.00000000000E+00 -0.00000000000E+00 -0.23802325772E+03  0.23802325772E+03  0.00000000000E+00 0. -1.
          6    2    1    2  501    0 -0.62092899135E+02  0.42577403225E+02  0.39414790883E+02  0.19131954039E+03  0.17140967711E+03 0.  0.
         24    2    3    3    0    0 -0.95207643353E+00  0.71207722991E+02 -0.12161918466E+02  0.10623051432E+03  0.77881728597E+02 0.  0.
         -6    2    1    2    0  502  0.62092899135E+02 -0.42577403225E+02 -0.10768584697E+03  0.21645591895E+03  0.17201325479E+03 0.  0.
        -24    2    5    5    0    0 -0.49587747793E+01  0.30836174593E+02 -0.30996921597E+02  0.90802579733E+02  0.79428208004E+02 0.  0.
          5    1    3    3  501    0 -0.61140822702E+02 -0.28630319766E+02  0.51576709349E+02  0.85089026071E+02  0.47000000000E+01 0. -1.
        -11    1    4    4    0    0  0.77883336163E+01  0.78904587104E+02  0.11249655131E+02  0.80082125016E+02  0.00000000000E+00 0.  1.
         12    1    4    4    0    0 -0.87404100498E+01 -0.76968641129E+01 -0.23411573596E+02  0.26148389306E+02  0.00000000000E+00 0. -1.
         -5    1    5    5    0  502  0.67051673914E+02 -0.73413577818E+02 -0.76688925370E+02  0.12565333922E+03  0.47000000000E+01 0.  1.
         11    1    6    6    0    0  0.34301463405E+02 -0.71100530047E+00 -0.70102034593E+01  0.35017693710E+02  0.00000000000E+00 0. -1.
        -12    1    6    6    0    0 -0.39260238184E+02  0.31547179894E+02 -0.23986718138E+02  0.55784886022E+02  0.00000000000E+00 0.  1.
</event>
<event>
12    1  0.9966151E-001  0.3822215E+03  0.7818608E-02  0.1050128E+00
         21   -1    0    0  503  502  0.00000000000E+00  0.00000000000E+00  0.14813867893E+03  0.14813867893E+03  0.00000000000E+00 0. -1.
         21   -1    0    0  501  503 -0.00000000000E+00 -0.00000000000E+00 -0.10175655224E+04  0.10175655224E+04  0.00000000000E+00 0. -1.
          6    2    1    2  501    0  0.33391269099E+03  0.70070362535E+02 -0.33171821233E+03  0.50598922832E+03  0.17199007492E+03 0.  0.
         24    2    3    3    0    0  0.19180701856E+03  0.11097586554E+03 -0.19121840065E+03  0.30195597271E+03  0.74211573243E+02 0.  0.
         -6    2    1    2    0  502 -0.33391269099E+03 -0.70070362535E+02 -0.53770863113E+03  0.65971497301E+03  0.17229548083E+03 0.  0.
        -24    2    5    5    0    0 -0.20159693597E+03 -0.47900458875E+02 -0.21014563903E+03  0.30571134669E+03  0.79765025784E+02 0.  0.
          5    1    3    3  501    0  0.14210567242E+03 -0.40905503009E+02 -0.14049981169E+03  0.20403325561E+03  0.47000000000E+01 0. -1.
        -13    1    4    4    0    0  0.92787360628E+01  0.34472703633E+02 -0.32148725268E+02  0.48041677479E+02  0.00000000000E+00 0.  1.
         14    1    4    4    0    0  0.18252828250E+03  0.76503161912E+02 -0.15906967538E+03  0.25391429523E+03  0.00000000000E+00 0. -1.
         -5    1    5    5    0  502 -0.13231575502E+03 -0.22169903660E+02 -0.32756299210E+03  0.35400362632E+03  0.47000000000E+01 0.  1.
         13    1    6    6    0    0 -0.11605692918E+03 -0.66189348024E+02 -0.14065549732E+03  0.19399538533E+03  0.00000000000E+00 0. -1.
        -14    1    6    6    0    0 -0.85540006787E+02  0.18288889149E+02 -0.69490141707E+02  0.11171596136E+03  0.00000000000E+00 0.  1.
</event>
<event>
12    1  0.9966151E-001  0.2377747E+03  0.7818608E-02  0.1122295E+00
         21   -1    0    0  503  502  0.00000000000E+00  0.00000000000E+00  0.31158908377E+03  0.31158908377E+03  0.00000000000E+00 0. -1.
         21   -1    0    0  501  503 -0.00000000000E+00 -0.00000000000E+00 -0.46058463667E+03  0.46058463667E+03  0.00000000000E+00 0. -1.
          6    2    1    2  501    0 -0.72107238273E+02  0.14760242521E+03  0.22810521897E+03  0.32949778713E+03  0.17190366797E+03 0.  0.
         24    2    3    3    0    0 -0.11452352846E+03  0.10768925462E+03  0.14825212469E+03  0.23054926755E+03  0.80384439807E+02 0.  0.
         -6    2    1    2    0  502  0.72107238273E+02 -0.14760242521E+03 -0.37710077187E+03  0.44267593331E+03  0.16361864212E+03 0.  0.
        -24    2    5    5    0    0  0.10501235881E+02 -0.14346961974E+03 -0.22815042747E+03  0.28136668154E+03  0.80129795831E+02 0.  0.
          5    1    3    3  501    0  0.42416290185E+02  0.39913170590E+02  0.79853094283E+02  0.98948519575E+02  0.47000000000E+01 0. -1.
        -13    1    4    4    0    0 -0.49644104872E+02  0.60501991975E+02  0.12419159700E+03  0.14679434917E+03  0.00000000000E+00 0.  1.
         14    1    4    4    0    0 -0.64879423586E+02  0.47187262646E+02  0.24060527682E+02  0.83754918382E+02  0.00000000000E+00 0. -1.
         -5    1    5    5    0  502  0.61606002391E+02 -0.41328054691E+01 -0.14895034440E+03  0.16130925177E+03  0.47000000000E+01 0.  1.
         13    1    6    6    0    0 -0.57265727892E+01 -0.10220686835E+03 -0.20968057882E+03  0.23333448675E+03  0.00000000000E+00 0. -1.
        -14    1    6    6    0    0  0.16227808671E+02 -0.41262751393E+02 -0.18469848654E+02  0.48032194787E+02  0.00000000000E+00 0.  1.
</event>
<event>
12    1  0.9966151E-001  0.2205040E+03  0.7818608E-02  0.1133615E+00
         21   -1    0    0  503  502  0.00000000000E+00  0.00000000000E+00  0.17829268678E+04  0.17829268678E+04  0.00000000000E+00 0.  1.
         21   -1    0    0  501  503 -0.00000000000E+00 -0.00000000000E+00 -0.38798604900E+02  0.38798604900E+02  0.00000000000E+00 0.  1.
          6    2    1    2  501    0 -0.28818373354E+02 -0.13419974089E+03  0.13708979754E+04  0.13885183691E+04  0.17257442805E+03 0.  0.
         24    2    3    3    0    0 -0.30880092267E+02 -0.63036288280E+01  0.74546558326E+03  0.75012238436E+03  0.77274445063E+02 0.  0.
         -6    2    1    2    0  502  0.28818373354E+02  0.13419974089E+03  0.37323028751E+03  0.43320710363E+03  0.17183561337E+03 0.  0.
        -24    2    5    5    0    0  0.12540926635E+00  0.15922592447E+03  0.27271914393E+03  0.32562375903E+03  0.79386335250E+02 0.  0.
          5    1    3    3  501    0  0.20617189133E+01 -0.12789611207E+03  0.62543239211E+03  0.63839598469E+03  0.47000000000E+01 0. -1.
        -11    1    4    4    0    0 -0.95262319878E-01  0.30610785411E+02  0.42154298931E+03  0.42265295585E+03  0.00000000000E+00 0.  1.
         12    1    4    4    0    0 -0.30784829947E+02 -0.36914414239E+02  0.32392259396E+03  0.32746942851E+03  0.00000000000E+00 0. -1.
         -5    1    5    5    0  502  0.28692964087E+02 -0.25026183578E+02  0.10051114357E+03  0.10758334460E+03  0.47000000000E+01 0.  1.
         11    1    6    6    0    0  0.37317036317E+02  0.86181515766E+02  0.16992272562E+03  0.19414826176E+03  0.00000000000E+00 0. -1.
        -12    1    6    6    0    0 -0.37191627050E+02  0.73044408707E+02  0.10279641831E+03  0.13147549727E+03  0.00000000000E+00 0.  1.
</event>
<event>
12    1  0.9966151E-001  0.3397123E+03  0.7818608E-02  0.1067013E+00
         21   -1    0    0  501  502  0.00000000000E+00  0.00000000000E+00  0.69321838328E+03  0.69321838328E+03  0.00000000000E+00 0. -1.
         21   -1    0    0  502  503 -0.00000000000E+00 -0.00000000000E+00 -0.24461881455E+03  0.24461881455E+03  0.00000000000E+00 0. -1.
         -6    2    1    2    0  503 -0.27234741431E+03 -0.10677217961E+03 -0.41661664393E+02  0.34138053727E+03  0.17097240866E+03 0.  0.
        -24    2    3    3    0    0 -0.55383457443E+02 -0.28801638907E+02  0.20677079460E+02  0.10250615023E+03  0.78632737824E+02 0.  0.
          6    2    1    2  501    0  0.27234741431E+03  0.10677217961E+03  0.49026123312E+03  0.59645666056E+03  0.17271670100E+03 0.  0.
         24    2    5    5    0    0  0.19980208245E+03  0.77188380344E+02  0.45822389932E+03  0.51168339172E+03  0.77277637360E+02 0.  0.
          5    1    5    5  501    0  0.72545331855E+02  0.29583799268E+02  0.32037333799E+02  0.84773268841E+02  0.47000000000E+01 0. -1.
        -13    1    6    6    0    0  0.14812492388E+03  0.56298665421E+02  0.24887543314E+03  0.29504154626E+03  0.00000000000E+00 0.  1.
         14    1    6    6    0    0  0.51677158578E+02  0.20889714923E+02  0.20934846618E+03  0.21664184545E+03  0.00000000000E+00 0. -1.
         -5    1    3    3    0  503 -0.21696395687E+03 -0.77970540705E+02 -0.62338743853E+02  0.23887438704E+03  0.47000000000E+01 0.  1.
         11    1    4    4    0    0 -0.45311338922E+02 -0.52053349687E+02  0.30339811279E+02  0.75386821109E+02  0.00000000000E+00 0. -1.
        -12    1    4    4    0    0 -0.10072118521E+02  0.23251710780E+02 -0.96627318190E+01  0.27119329120E+02  0.00000000000E+00 0.  1.
</event>
<event>
12    1  0.9966151E-001  0.3384567E+03  0.7818608E-02  0.1067575E+00
         21   -1    0    0  503  502  0.00000000000E+00  0.00000000000E+00  0.16669218169E+04  0.16669218169E+04  0.00000000000E+00 0. -1.
         21   -1    0    0  501  503 -0.00000000000E+00 -0.00000000000E+00 -0.83993220954E+02  0.83993220954E+02  0.00000000000E+00 0. -1.
          6    2    1    2  501    0  0.15443980238E+03 -0.24595400584E+03  0.41647428165E+03  0.53665982084E+03  0.17380423032E+03 0.  0.
         24    2    3    3    0    0  0.57485915538E+02 -0.14071807117E+03  0.12715644725E+03  0.21385716065E+03  0.80373609144E+02 0.  0.
         -6    2    1    2    0  502 -0.15443980238E+03  0.24595400584E+03  0.11664543143E+04  0.12142552171E+04  0.17162470441E+03 0.  0.
        -24    2    5    5    0    0 -0.47094122386E+02  0.16017697107E+03  0.83703957944E+03  0.85730010465E+03  0.80334883180E+02 0.  0.
          5    1    3    3  501    0  0.96953886843E+02 -0.10523593467E+03  0.28931783440E+03  0.32280266018E+03  0.47000000000E+01 0. -1.
        -11    1    4    4    0    0  0.42408589076E+02 -0.13616344264E+03  0.13489814533E+03  0.19630710927E+03  0.00000000000E+00 0.  1.
         12    1    4    4    0    0  0.15077326462E+02 -0.45546285346E+01 -0.77416980796E+01  0.17550051381E+02  0.00000000000E+00 0. -1.
         -5    1    5    5    0  502 -0.10734568000E+03  0.85777034769E+02  0.32941473490E+03  0.35695511241E+03  0.47000000000E+01 0.  1.
         11    1    6    6    0    0 -0.59253830130E+02  0.11885561674E+03  0.72886009667E+03  0.74086079295E+03  0.00000000000E+00 0. -1.
        -12    1    6    6    0    0  0.12159707744E+02  0.41321354325E+02  0.10817948277E+03  0.11643931170E+03  0.00000000000E+00 0.  1.
</event>
<event>
12    1  0.9966151E-001  0.2307008E+03  0.7818608E-02  0.1126173E+00
         21   -1    0    0  501  502  0.00000000000E+00  0.00000000000E+00  0.20209789753E+03  0.20209789753E+03  0.00000000000E+00 0. -1.
         21   -1    0    0  502  503 -0.00000000000E+00 -0.00000000000E+00 -0.26477552381E+03  0.26477552381E+03  0.00000000000E+00 0. -1.
         -6    2    1    2    0  503  0.12461913743E+03 -0.91689691508E+02 -0.13276296823E+02  0.23108250608E+03  0.17113134025E+03 0.  0.
        -24    2    3    3    0    0  0.16452376074E+02 -0.90884592838E+02 -0.14479394781E+02  0.12280400456E+03  0.79627135878E+02 0.  0.
          6    2    1    2  501    0 -0.12461913743E+03  0.91689691508E+02 -0.49401329454E+02  0.23579091527E+03  0.17093839658E+03 0.  0.
         24    2    5    5    0    0 -0.12480090187E+03  0.37115510251E+02 -0.80292558346E+02  0.17290425276E+03  0.80598756134E+02 0.  0.
          5    1    5    5  501    0  0.18176443250E+00  0.54574181257E+02  0.30891228892E+02  0.62886662502E+02  0.47000000000E+01 0. -1.
        -11    1    6    6    0    0 -0.46783953515E+02  0.26341888138E+02  0.83420940926E+01  0.54334371359E+02  0.00000000000E+00 0.  1.
         12    1    6    6    0    0 -0.78016948351E+02  0.10773622113E+02 -0.88634652439E+02  0.11856988140E+03  0.00000000000E+00 0. -1.
         -5    1    3    3    0  503  0.10816676136E+03 -0.80509866970E+00  0.12030979579E+01  0.10827850152E+03  0.47000000000E+01 0.  1.
         13    1    4    4    0    0 -0.16718992504E+02 -0.31079912277E+02 -0.36681627824E+02  0.50902136275E+02  0.00000000000E+00 0. -1.
        -14    1    4    4    0    0  0.33171368578E+02 -0.59804680561E+02  0.22202233044E+02  0.71901868282E+02  0.00000000000E+00 0.  1.
</event>
<event>
12    1  0.9966151E-001  0.3921516E+03  0.7818608E-02  0.1046577E+00
         21   -1    0    0  501  502  0.00000000000E+00  0.00000000000E+00  0.37644639396E+03  0.37644639396E+03  0.00000000000E+00 0.  1.
         21   -1    0    0  502  503 -0.00000000000E+00 -0.00000000000E+00 -0.40870617882E+03  0.40870617882E+03  0.00000000000E+00 0.  1.
         -6    2    1    2    0  503 -0.30030876393E+03  0.18407640732E+03  0.41220290408E+00  0.39164229944E+03  0.17121344389E+03 0.  0.
        -24    2    3    3    0    0 -0.22587980181E+03  0.59842349054E+02  0.11239894763E+01  0.24674106315E+03  0.79228134448E+02 0.  0.
          6    2    1    2  501    0  0.30030876393E+03 -0.18407640732E+03 -0.32671987761E+02  0.39351027335E+03  0.17237574951E+03 0.  0.
         24    2    5    5    0    0  0.14231087430E+03 -0.95255886716E+02 -0.80612666342E+02  0.20596610076E+03  0.81225388827E+02 0.  0.
          5    1    5    5  501    0  0.15799788963E+03 -0.88820520605E+02  0.47940678581E+02  0.18754417259E+03  0.47000000000E+01 0. -1.
        -13    1    6    6    0    0  0.55447823917E+02 -0.42946015116E+02  0.89176689268E+01  0.70698983095E+02  0.00000000000E+00 0.  1.
         14    1    6    6    0    0  0.86863050384E+02 -0.52309871600E+02 -0.89530335269E+02  0.13526711767E+03  0.00000000000E+00 0. -1.
         -5    1    3    3    0  503 -0.74428962123E+02  0.12423405827E+03 -0.71178657219E+00  0.14490123628E+03  0.47000000000E+01 0.  1.
         13    1    4    4    0    0 -0.17835652329E+03  0.79280462397E+02 -0.32500690842E+01  0.19521015360E+03  0.00000000000E+00 0. -1.
        -14    1    4    4    0    0 -0.47523278520E+02 -0.19438113343E+02  0.43740585605E+01  0.51530909558E+02  0.00000000000E+00 0.  1.
</event>
<event>
12    1  0.1089034E+000  0.2022304E+03  0.7818608E-02  0.1148349E+00
         21   -1    0    0  501  502  0.00000000000E+00  0.00000000000E+00  0.40315181442E+03  0.40315181442E+03  0.00000000000E+00 0.  1.
         21   -1    0    0  502  503 -0.00000000000E+00 -0.00000000000E+00 -0.26880527813E+03  0.26880527813E+03  0.00000000000E+00 0.  1.
         -6    2    1    2    0  503  0.94743801406E+02  0.50671111861E+02  0.33303972719E+03  0.38845024958E+03  0.16862439630E+03 0.  0.
        -24    2    3    3    0    0  0.10240591082E+03 -0.14873826830E+02  0.24727360488E+03  0.28013236258E+03  0.81373850810E+02 0.  0.
          6    2    1    2  501    0 -0.94743801406E+02 -0.50671111861E+02 -0.19869319090E+03  0.28350684297E+03  0.17132774561E+03 0.  0.
         24    2    5    5    0    0 -0.61476205075E+02 -0.31816153666E+02 -0.30136374681E+02  0.11060301794E+03  0.80828429868E+02 0.  0.
          5    1    5    5  501    0 -0.33267596331E+02 -0.18854958195E+02 -0.16855681622E+03  0.17290382502E+03  0.47000000000E+01 0. -1.
        -13    1    6    6    0    0  0.74696265482E+01  0.11299555443E+02  0.12808646837E+02  0.18642336436E+02  0.00000000000E+00 0.  1.
         14    1    6    6    0    0 -0.68945831623E+02 -0.43115709109E+02 -0.42945021519E+02  0.91960681508E+02  0.00000000000E+00 0. -1.
         -5    1    3    3    0  503 -0.76621094164E+01  0.65544938691E+02  0.85766122305E+02  0.10831788700E+03  0.47000000000E+01 0.  1.
         13    1    4    4    0    0  0.78183318981E+02  0.99686314479E+01  0.92534715637E+02  0.12155113565E+03  0.00000000000E+00 0. -1.
        -14    1    4    4    0    0  0.24222591841E+02 -0.24842458278E+02  0.15473888925E+03  0.15858122693E+03  0.00000000000E+00 0.  1.
</event>
<event>
12    1  0.9966151E-001  0.1878830E+03  0.7818608E-02  0.1161373E+00
         21   -1    0    0  503  502  0.00000000000E+00  0.00000000000E+00  0.27908963260E+03  0.27908963260E+03  0.00000000000E+00 0.  1.
         21   -1    0    0  501  503 -0.00000000000E+00 -0.00000000000E+00 -0.27939432595E+03  0.27939432595E+03  0.00000000000E+00 0.  1.
          6    2    1    2  501    0  0.37274909872E+02  0.56735074544E+02 -0.20864793349E+03  0.27793643779E+03  0.17060602484E+03 0.  0.
         24    2    3    3    0    0  0.60655520432E+02  0.45376496468E+02 -0.55146331810E+02  0.12217860664E+03  0.78411577066E+02 0.  0.
         -6    2    1    2    0  502 -0.37274909872E+02 -0.56735074544E+02  0.20834324014E+03  0.28054752076E+03  0.17519051944E+03 0.  0.
        -24    2    5    5    0    0  0.38358687534E+02 -0.27945494303E+01  0.11751629304E+03  0.15054119158E+03  0.85868345842E+02 0.  0.
          5    1    3    3  501    0 -0.23380610560E+02  0.11358578076E+02 -0.15350160168E+03  0.15575783115E+03  0.47000000000E+01 0. -1.
        -13    1    4    4    0    0  0.20899331740E+02  0.12316343811E+02 -0.65144546300E+02  0.69514648130E+02  0.00000000000E+00 0.  1.
         14    1    4    4    0    0  0.39756188692E+02  0.33060152657E+02  0.99982144898E+01  0.52663958510E+02  0.00000000000E+00 0. -1.
         -5    1    5    5    0  502 -0.75633597405E+02 -0.53940525114E+02  0.90826947101E+02  0.13000632918E+03  0.47000000000E+01 0.  1.
         11    1    6    6    0    0 -0.20008505650E+02 -0.34769136316E+01  0.11325339944E+01  0.20339908063E+02  0.00000000000E+00 0. -1.
        -12    1    6    6    0    0  0.58367193184E+02  0.68236420134E+00  0.11638375904E+03  0.13020128352E+03  0.00000000000E+00 0.  1.
</event>
<event>
12    1  0.9966151E-001  0.1718952E+03  0.7818608E-02  0.1176116E+00
         21   -1    0    0  503  502  0.00000000000E+00  0.00000000000E+00  0.16263755712E+02  0.16263755712E+02  0.00000000000E+00 0. -1.
         21   -1    0    0  501  503 -0.00000000000E+00 -0.00000000000E+00 -0.19454719771E+04  0.19454719771E+04  0.00000000000E+00 0. -1.
          6    2    1    2  501    0  0.85975112014E+00  0.73564614524E+01 -0.70093452981E+03  0.72149211809E+03  0.17084146069E+03 0.  0.
         24    2    3    3    0    0  0.93965131808E+01  0.64016071406E+02 -0.30922264066E+03  0.32558369205E+03  0.78738473287E+02 0.  0.
         -6    2    1    2    0  502 -0.85975112014E+00 -0.73564614524E+01 -0.12282736916E+04  0.12402436148E+04  0.17173556923E+03 0.  0.
        -24    2    5    5    0    0 -0.75801755544E+01  0.60100989998E+02 -0.71602537864E+03  0.72350761252E+03  0.84269415940E+02 0.  0.
          5    1    3    3  501    0 -0.85367620607E+01 -0.56659609953E+02 -0.39171188916E+03  0.39590842604E+03  0.47000000000E+01 0. -1.
        -11    1    4    4    0    0 -0.31361356689E+02  0.15011234845E+02 -0.15213129088E+03  0.15605384176E+03  0.00000000000E+00 0.  1.
         12    1    4    4    0    0  0.40757869869E+02  0.49004836561E+02 -0.15709134978E+03  0.16952985028E+03  0.00000000000E+00 0. -1.
         -5    1    5    5    0  502  0.67204244343E+01 -0.67457451450E+02 -0.51224831298E+03  0.51673600224E+03  0.47000000000E+01 0.  1.
         13    1    6    6    0    0 -0.28351236454E+02  0.43210435587E+02 -0.65286827344E+03  0.65491061743E+03  0.00000000000E+00 0. -1.
        -14    1    6    6    0    0  0.20771060900E+02  0.16890554411E+02 -0.63157105195E+02  0.68596995093E+02  0.00000000000E+00 0.  1.
</event>
<event>
12    1  0.9966151E-001  0.2233584E+03  0.7818608E-02  0.1131413E+00
         21   -1    0    0  503  502  0.00000000000E+00  0.00000000000E+00  0.11038456023E+03  0.11038456023E+03  0.00000000000E+00 0. -1.
         21   -1    0    0  501  503 -0.00000000000E+00 -0.00000000000E+00 -0.49638197765E+03  0.49638197765E+03  0.00000000000E+00 0. -1.
          6    2    1    2  501    0  0.11555480033E+02 -0.14187580491E+03 -0.28387959296E+03  0.36121545012E+03  0.17212409759E+03 0.  0.
         24    2    3    3    0    0 -0.10888056746E+02 -0.25575805374E+02 -0.44792773294E+02  0.94355937322E+02  0.78255854531E+02 0.  0.
         -6    2    1    2    0  502 -0.11555480033E+02  0.14187580491E+03 -0.10211782446E+03  0.24555108776E+03  0.17206107489E+03 0.  0.
        -24    2    5    5    0    0 -0.38859684563E+02  0.30610644244E+02 -0.43237348221E+01  0.94848634127E+02  0.80811398253E+02 0.  0.
          5    1    3    3  501    0  0.22443536779E+02 -0.11629999954E+03 -0.23908681966E+03  0.26685951280E+03  0.47000000000E+01 0. -1.
        -11    1    4    4    0    0  0.23796099381E+02 -0.36105537007E+02 -0.10591223156E+02  0.44520087110E+02  0.00000000000E+00 0.  1.
         12    1    4    4    0    0 -0.34684156128E+02  0.10529731633E+02 -0.34201550138E+02  0.49835850212E+02  0.00000000000E+00 0. -1.
         -5    1    5    5    0  502  0.27304204531E+02  0.11126516067E+03 -0.97794089640E+02  0.15070245364E+03  0.47000000000E+01 0.  1.
         11    1    6    6    0    0  0.13143240104E+02  0.25927883153E+02  0.21923514822E+02  0.36409344781E+02  0.00000000000E+00 0. -1.
        -12    1    6    6    0    0 -0.52002924667E+02  0.46827610915E+01 -0.26247249644E+02  0.58439289346E+02  0.00000000000E+00 0.  1.
</event>
<event>
12    1  0.9966151E-001  0.3390268E+03  0.7818608E-02  0.1067237E+00
         21   -1    0    0  501  502  0.00000000000E+00  0.00000000000E+00  0.66877729134E+03  0.66877729134E+03  0.00000000000E+00 0. -1.
         21   -1    0    0  502  503 -0.00000000000E+00 -0.00000000000E+00 -0.17185628627E+03  0.17185628627E+03  0.00000000000E+00 0.  1.
         -6    2    1    2    0  503  0.38592528079E+02  0.28876323909E+03  0.23762501728E+03  0.41381557050E+03  0.17292797945E+03 0.  0.
        -24    2    3    3    0    0 -0.16471529385E+02  0.15631139562E+03  0.19772912872E+03  0.26485479315E+03  0.79666112197E+02 0.  0.
          6    2    1    2  501    0 -0.38592528079E+02 -0.28876323909E+03  0.25929598778E+03  0.42681800711E+03  0.17339437833E+03 0.  0.
         24    2    5    5    0    0  0.21651652382E+02 -0.25571875254E+03  0.21818503944E+03  0.34660890884E+03  0.81683228402E+02 0.  0.
          5    1    5    5  501    0 -0.60244180461E+02 -0.33044486553E+02  0.41110948342E+02  0.80209098265E+02  0.47000000000E+01 0. -1.
        -13    1    6    6    0    0  0.19556244585E+02 -0.12632188943E+03  0.57159932731E+02  0.14002472768E+03  0.00000000000E+00 0.  1.
         14    1    6    6    0    0  0.20954077976E+01 -0.12939686311E+03  0.16102510671E+03  0.20658418116E+03  0.00000000000E+00 0. -1.
         -5    1    3    3    0  503  0.55064057463E+02  0.13245184348E+03  0.39895888564E+02  0.14896077735E+03  0.47000000000E+01 0.  1.
         13    1    4    4    0    0  0.21691765270E+02  0.98935816570E+02  0.82677184415E+02  0.13074534525E+03  0.00000000000E+00 0. -1.
        -14    1    4    4    0    0 -0.38163294654E+02  0.57375579047E+02  0.11505194430E+03  0.13410944791E+03  0.00000000000E+00 0.  1.
</event>
<event>
12    1  0.9966151E-001  0.4387914E+03  0.7818608E-02  0.1031309E+00
         21   -1    0    0  501  502  0.00000000000E+00  0.00000000000E+00  0.62614446355E+03  0.62614446355E+03  0.00000000000E+00 0. -1.
         21   -1    0    0  502  503 -0.00000000000E+00 -0.00000000000E+00 -0.30576871616E+03  0.30576871616E+03  0.00000000000E+00 0. -1.
         -6    2    1    2    0  503 -0.13387402804E+03  0.37799586936E+03  0.15923980532E+03  0.46679247014E+03  0.17814253266E+03 0.  0.
        -24    2    3    3    0    0 -0.79927929805E+02  0.21330221352E+03  0.16843258189E+03  0.29318147126E+03  0.75495246179E+02 0.  0.
          6    2    1    2  501    0  0.13387402804E+03 -0.37799586936E+03  0.16113594207E+03  0.46512070956E+03  0.17195740750E+03 0.  0.
         24    2    5    5    0    0  0.13521655236E+03 -0.24259320854E+03  0.15843195356E+03  0.32960287131E+03  0.80014923627E+02 0.  0.
          5    1    5    5  501    0 -0.13425243232E+01 -0.13540266083E+03  0.27039885043E+01  0.13551783825E+03  0.47000000000E+01 0. -1.
        -11    1    6    6    0    0  0.11273013594E+03 -0.22972430700E+03  0.11849262560E+03  0.28199617568E+03  0.00000000000E+00 0.  1.
         12    1    6    6    0    0  0.22486416426E+02 -0.12868901533E+02  0.39939327963E+02  0.47606695626E+02  0.00000000000E+00 0. -1.
         -5    1    3    3    0  503 -0.53946098235E+02  0.16469365585E+03 -0.91927765672E+01  0.17361099888E+03  0.47000000000E+01 0.  1.
         13    1    4    4    0    0 -0.52911452101E+02  0.55952838240E+02  0.32834184738E+02  0.83716339851E+02  0.00000000000E+00 0. -1.
        -14    1    4    4    0    0 -0.27016477704E+02  0.15734937528E+03  0.13559839715E+03  0.20946513141E+03  0.00000000000E+00 0.  1.
</event>
<event>
12    1  0.9966151E-001  0.2846118E+03  0.7818608E-02  0.1093248E+00
         21   -1    0    0  501  502  0.00000000000E+00  0.00000000000E+00  0.61815566773E+03  0.61815566773E+03  0.00000000000E+00 0.  1.
         21   -1    0    0  502  503 -0.00000000000E+00 -0.00000000000E+00 -0.17645219845E+03  0.17645219845E+03  0.00000000000E+00 0.  1.
         -6    2    1    2    0  503  0.11988901655E+03  0.19341127146E+03  0.42268659343E+03  0.50936141948E+03  0.17030502979E+03 0.  0.
        -24    2    3    3    0    0  0.52189969714E+01  0.11929991299E+03  0.26269560123E+03  0.29897863874E+03  0.78227491030E+02 0.  0.
          6    2    1    2  501    0 -0.11988901655E+03 -0.19341127146E+03  0.19016875853E+02  0.28524644670E+03  0.17094618325E+03 0.  0.
         24    2    5    5    0    0 -0.49308493719E+02 -0.18644117688E+02 -0.22592124595E+01  0.95509971090E+02  0.79612309724E+02 0.  0.
          5    1    5    5  501    0 -0.70580522829E+02 -0.17476715377E+03  0.21276088313E+02  0.18973647561E+03  0.47000000000E+01 0. -1.
        -13    1    6    6    0    0 -0.11853755779E+02  0.78971894823E+01  0.34096515064E+02  0.36951988678E+02  0.00000000000E+00 0.  1.
         14    1    6    6    0    0 -0.37454737940E+02 -0.26541307170E+02 -0.36355727523E+02  0.58557982412E+02  0.00000000000E+00 0. -1.
         -5    1    3    3    0  503  0.11467001958E+03  0.74111358474E+02  0.15999099220E+03  0.21038278073E+03  0.47000000000E+01 0.  1.
         13    1    4    4    0    0  0.30525492087E+02  0.42064316708E+02  0.15868081809E+03  0.16697549053E+03  0.00000000000E+00 0. -1.
        -14    1    4    4    0    0 -0.25306495115E+02  0.77235596281E+02  0.10401478313E+03  0.13200314821E+03  0.00000000000E+00 0.  1.
</event>
<event>
12    1  0.9966151E-001  0.2030084E+03  0.7818608E-02  0.1147262E+00
         21   -1    0    0  503  502  0.00000000000E+00  0.00000000000E+00  0.49434771197E+02  0.49434771197E+02  0.00000000000E+00 0.  1.
         21   -1    0    0  501  503 -0.00000000000E+00 -0.00000000000E+00 -0.18330017666E+04  0.18330017666E+04  0.00000000000E+00 0.  1.
          6    2    1    2  501    0 -0.97908062032E+02 -0.43645290983E+02 -0.19639191616E+03  0.28233119021E+03  0.17219238136E+03 0.  0.
         24    2    3    3    0    0 -0.86379857451E+02  0.30123871639E+02 -0.85186168069E+02  0.14830284521E+03  0.79800521628E+02 0.  0.
         -6    2    1    2    0  502  0.97908062032E+02  0.43645290983E+02 -0.15871750793E+04  0.16001053476E+04  0.17239922032E+03 0.  0.
        -24    2    5    5    0    0  0.10261404698E+03  0.86294218487E+02 -0.11027107911E+04  0.11137219456E+04  0.80181970289E+02 0.  0.
          5    1    3    3  501    0 -0.11528204581E+02 -0.73769162622E+02 -0.11120574809E+03  0.13402834500E+03  0.47000000000E+01 0. -1.
        -13    1    4    4    0    0 -0.49480522237E+01 -0.15343470132E+02  0.66252132608E+01  0.17429823501E+02  0.00000000000E+00 0.  1.
         14    1    4    4    0    0 -0.81431805227E+02  0.45467341771E+02 -0.91811381330E+02  0.13087302171E+03  0.00000000000E+00 0. -1.
         -5    1    5    5    0  502 -0.47059849500E+01 -0.42648927504E+02 -0.48446428813E+03  0.48638340205E+03  0.47000000000E+01 0.  1.
         11    1    6    6    0    0  0.98758775897E+01  0.57385023544E+02 -0.35845498697E+03  0.36315361979E+03  0.00000000000E+00 0. -1.
        -12    1    6    6    0    0  0.92738169392E+02  0.28909194943E+02 -0.74425580417E+03  0.75056832577E+03  0.00000000000E+00 0.  1.
</event>
<event>
12    1  0.9966151E-001  0.1737970E+03  0.7818608E-02  0.1174496E+00
         21   -1    0    0  501  502  0.00000000000E+00  0.00000000000E+00  0.41508945275E+02  0.41508945275E+02  0.00000000000E+00 0.  1.
         21   -1    0    0  502  503 -0.00000000000E+00 -0.00000000000E+00 -0.74628982205E+03  0.74628982205E+03  0.00000000000E+00 0.  1.
         -6    2    1    2    0  503  0.12401201927E+02 -0.70828198497E+01 -0.27447511387E+03  0.32372069405E+03  0.17103959622E+03 0.  0.
        -24    2    3    3    0    0  0.44825687455E+02 -0.57531557720E+02 -0.20158031419E+03  0.22921056636E+03  0.81139622102E+02 0.  0.
          6    2    1    2  501    0 -0.12401201927E+02  0.70828198497E+01 -0.43030576290E+03  0.46407807327E+03  0.17320927331E+03 0.  0.
         24    2    5    5    0    0 -0.91569818277E+00  0.80920858383E+01 -0.44051652747E+03  0.44797574030E+03  0.81000818322E+02 0.  0.
          5    1    5    5  501    0 -0.11485503745E+02 -0.10092659886E+01  0.10210764567E+02  0.16102332972E+02  0.47000000000E+01 0. -1.
        -13    1    6    6    0    0 -0.35324949249E+02 -0.13153334952E+02 -0.15027119790E+03  0.15492674133E+03  0.00000000000E+00 0.  1.
         14    1    6    6    0    0  0.34409251066E+02  0.21245420790E+02 -0.29024532957E+03  0.29304899897E+03  0.00000000000E+00 0. -1.
         -5    1    3    3    0  503 -0.32424485528E+02  0.50448737870E+02 -0.72894799677E+02  0.94510127682E+02  0.47000000000E+01 0.  1.
         13    1    4    4    0    0 -0.75781528579E+01 -0.42848322664E+02 -0.14199485916E+03  0.14851244791E+03  0.00000000000E+00 0. -1.
        -14    1    4    4    0    0  0.52403840313E+02 -0.14683235055E+02 -0.59585455029E+02  0.80698118456E+02  0.00000000000E+00 0.  1.
</event>
<event>
12    1  0.9966151E-001  0.1940245E+03  0.7818608E-02  0.1154982E+00
         21   -1    0    0  503  502  0.00000000000E+00  0.00000000000E+00  0.73233819049E+02  0.73233819049E+02  0.00000000000E+00 0. -1.
         21   -1    0    0  501  503 -0.00000000000E+00 -0.00000000000E+00 -0.59787107738E+03  0.59787107738E+03  0.00000000000E+00 0. -1.
          6    2    1    2  501    0  0.43034554009E+02 -0.78036066988E+02 -0.13549454752E+03  0.23627442697E+03  0.17182907741E+03 0.  0.
         24    2    3    3    0    0 -0.51706241277E+02 -0.56386591024E+02 -0.52365831961E+02  0.10830180704E+03  0.55983194057E+02 0.  0.
         -6    2    1    2    0  502 -0.43034554009E+02  0.78036066988E+02 -0.38914271081E+03  0.43483046946E+03  0.17234815695E+03 0.  0.
        -24    2    5    5    0    0 -0.84594311069E+02  0.90913005440E+02 -0.25814685900E+03  0.29671807992E+03  0.77333344166E+02 0.  0.
          5    1    3    3  501    0  0.94740795286E+02 -0.21649475964E+02 -0.83128715554E+02  0.12797261993E+03  0.47000000000E+01 0. -1.
        -11    1    4    4    0    0  0.66725120040E+01 -0.12852096608E+02 -0.27976749750E+02  0.31502338488E+02  0.00000000000E+00 0.  1.
         12    1    4    4    0    0 -0.58378753281E+02 -0.43534494416E+02 -0.24389082211E+02  0.76799468552E+02  0.00000000000E+00 0. -1.
         -5    1    5    5    0  502  0.41559757060E+02 -0.12876938452E+02 -0.13099585182E+03  0.13811238954E+03  0.47000000000E+01 0.  1.
         11    1    6    6    0    0 -0.44303070823E+02 -0.26252515249E+01 -0.74299040918E+02  0.86544794825E+02  0.00000000000E+00 0. -1.
        -12    1    6    6    0    0 -0.40291240246E+02  0.93538256965E+02 -0.18384781808E+03  0.21017328510E+03  0.00000000000E+00 0.  1.
</event>
<event>
12    1  0.9966151E-001  0.1858472E+03  0.7818608E-02  0.1162484E+00
         21   -1    0    0  501  502  0.00000000000E+00  0.00000000000E+00  0.11292754786E+03  0.11292754786E+03  0.00000000000E+00 0. -1.
         21   -1    0    0  502  503 -0.00000000000E+00 -0.00000000000E+00 -0.36984675035E+03  0.36984675035E+03  0.00000000000E+00 0. -1.
         -6    2    1    2    0  503 -0.68566611536E+02 -0.61122001619E+01 -0.26548609977E+02  0.18678478779E+03  0.17159542258E+03 0.  0.
        -24    2    3    3    0    0 -0.97741434804E+02  0.14439710590E+02  0.18990633793E+02  0.12873770284E+03  0.80317237511E+02 0.  0.
          6    2    1    2  501    0  0.68566611536E+02  0.61122001619E+01 -0.23037059251E+03  0.29598951041E+03  0.17262804283E+03 0.  0.
         24    2    5    5    0    0  0.49769531797E+02 -0.14357274307E+02 -0.40067264042E+02  0.10361025889E+03  0.80290488091E+02 0.  0.
          5    1    5    5  501    0  0.18797079739E+02  0.20469474468E+02 -0.19030332847E+03  0.19237925153E+03  0.47000000000E+01 0. -1.
        -13    1    6    6    0    0  0.14864893562E+02  0.67746425321E+01 -0.57102955684E+02  0.59393672979E+02  0.00000000000E+00 0.  1.
         14    1    6    6    0    0  0.34904638235E+02 -0.21131916839E+02  0.17035691642E+02  0.44216585908E+02  0.00000000000E+00 0. -1.
         -5    1    3    3    0  503  0.29174823268E+02 -0.20551910752E+02 -0.45539243770E+02  0.58047084952E+02  0.47000000000E+01 0.  1.
         11    1    4    4    0    0 -0.32596617841E+02  0.16120374411E+02  0.45619997929E+02  0.58340296338E+02  0.00000000000E+00 0. -1.
        -12    1    4    4    0    0 -0.65144816963E+02 -0.16806638210E+01 -0.26629364136E+02  0.70397406503E+02  0.00000000000E+00 0.  1.
</event>
<event>
12    1  0.9966151E-001  0.2201789E+03  0.7818608E-02  0.1133876E+00
         21   -1    0    0  503  502  0.00000000000E+00  0.00000000000E+00  0.18416518922E+04  0.18416518922E+04  0.00000000000E+00 0.  1.
         21   -1    0    0  501  503 -0.00000000000E+00 -0.00000000000E+00 -0.27138511630E+02  0.27138511630E+02  0.00000000000E+00 0.  1.
          6    2    1    2  501    0 -0.51315885109E+02 -0.12700476222E+03  0.73614562776E+03  0.76817431309E+03  0.17151635587E+03 0.  0.
         24    2    3    3    0    0  0.25138161581E+02 -0.83462861654E+02  0.28886533835E+03  0.31229838079E+03  0.80555065009E+02 0.  0.
         -6    2    1    2    0  502  0.51315885109E+02  0.12700476222E+03  0.10783677528E+04  0.11006160907E+04  0.17238108713E+03 0.  0.
        -24    2    5    5    0    0  0.91644257867E+02  0.75888436021E+02  0.56419769463E+03  0.58231869041E+03  0.81352897052E+02 0.  0.
          5    1    3    3  501    0 -0.76454046689E+02 -0.43541900567E+02  0.44728028941E+03  0.45587593231E+03  0.47000000000E+01 0. -1.
        -11    1    4    4    0    0  0.48023979010E+01 -0.73774725953E+02  0.27728245329E+03  0.28696921807E+03  0.00000000000E+00 0.  1.
         12    1    4    4    0    0  0.20335763680E+02 -0.96881357008E+01  0.11582885061E+02  0.25329162721E+02  0.00000000000E+00 0. -1.
         -5    1    5    5    0  502 -0.40328372759E+02  0.51116326200E+02  0.51417005814E+03  0.51829740028E+03  0.47000000000E+01 0.  1.
         13    1    6    6    0    0  0.25819527482E+02  0.25071509257E+02  0.50956200041E+02  0.62383995531E+02  0.00000000000E+00 0. -1.
        -14    1    6    6    0    0  0.65824730386E+02  0.50816926764E+02  0.51324149459E+03  0.51993469488E+03  0.00000000000E+00 0.  1.
</event>
<event>
12    1  0.9966151E-001  0.2648485E+03  0.7818608E-02  0.1104488E+00
         21   -1    0    0  503  502  0.00000000000E+00  0.00000000000E+00  0.46975252475E+03  0.46975252475E+03  0.00000000000E+00 0. -1.
         21   -1    0    0  501  503 -0.00000000000E+00 -0.00000000000E+00 -0.17477835254E+03  0.17477835254E+03  0.00000000000E+00 0. -1.
          6    2    1    2  501    0 -0.19264269082E+03  0.57504330757E+02  0.27215944664E+03  0.37870151554E+03  0.17007680352E+03 0.  0.
         24    2    3    3    0    0 -0.86384076683E+02  0.29437587202E+02  0.23422159117E+03  0.26233998389E+03  0.75058198303E+02 0.  0.
         -6    2    1    2    0  502  0.19264269082E+03 -0.57504330757E+02  0.22814725574E+02  0.26582936174E+03  0.17241456865E+03 0.  0.
        -24    2    5    5    0    0  0.11706254967E+03 -0.16571945420E+02  0.77190996902E+02  0.16401243393E+03  0.83446740931E+02 0.  0.
          5    1    3    3  501    0 -0.10625861413E+03  0.28066743555E+02  0.37937855475E+02  0.11636153166E+03  0.47000000000E+01 0. -1.
        -11    1    4    4    0    0 -0.25281332443E+02  0.15433004964E+01  0.83136365667E+01  0.26657908760E+02  0.00000000000E+00 0.  1.
         12    1    4    4    0    0 -0.61102744240E+02  0.27894286706E+02  0.22590795460E+03  0.23568207513E+03  0.00000000000E+00 0. -1.
         -5    1    5    5    0  502  0.75580141146E+02 -0.40932385336E+02 -0.54376271328E+02  0.10181692781E+03  0.47000000000E+01 0.  1.
         11    1    6    6    0    0  0.95641714911E+02 -0.21313131010E+02  0.16357399910E+02  0.99343604305E+02  0.00000000000E+00 0. -1.
        -12    1    6    6    0    0  0.21420834759E+02  0.47411855895E+01  0.60833596992E+02  0.64668829629E+02  0.00000000000E+00 0.  1.
</event>
<event>
12    1  0.9966151E-001  0.2752300E+03  0.7818608E-02  0.1098406E+00
         21   -1    0    0  503  502  0.00000000000E+00  0.00000000000E+00  0.62230920717E+03  0.62230920717E+03  0.00000000000E+00 0. -1.
         21   -1    0    0  501  503 -0.00000000000E+00 -0.00000000000E+00 -0.15264729384E+03  0.15264729384E+03  0.00000000000E+00 0. -1.
          6    2    1    2  501    0  0.78577351724E+02 -0.20035169718E+03  0.59905315439E+02  0.28167388978E+03  0.17157019148E+03 0.  0.
         24    2    3    3    0    0  0.10800361370E+03 -0.16977258931E+03  0.10962749073E+02  0.21672428213E+03  0.79760390821E+02 0.  0.
         -6    2    1    2    0  502 -0.78577351724E+02  0.20035169718E+03  0.40975659789E+03  0.49328261123E+03  0.17062257255E+03 0.  0.
        -24    2    5    5    0    0  0.17722836570E+01  0.36252167491E+02  0.10665669409E+03  0.13933860262E+03  0.81989238007E+02 0.  0.
          5    1    3    3  501    0 -0.29426261977E+02 -0.30579107863E+02  0.48942566366E+02  0.64949607652E+02  0.47000000000E+01 0. -1.
        -11    1    4    4    0    0  0.53555813882E+01 -0.77038474815E+02  0.13350365755E+02  0.78369899322E+02  0.00000000000E+00 0.  1.
         12    1    4    4    0    0  0.10264803231E+03 -0.92734114497E+02 -0.23876166828E+01  0.13835438281E+03  0.00000000000E+00 0. -1.
         -5    1    5    5    0  502 -0.80349635381E+02  0.16409952968E+03  0.30309990380E+03  0.35394400861E+03  0.47000000000E+01 0.  1.
         11    1    6    6    0    0 -0.36650713483E+02  0.40512652802E+01  0.29024762860E+02  0.46926798402E+02  0.00000000000E+00 0. -1.
        -12    1    6    6    0    0  0.38422997140E+02  0.32200902211E+02  0.77631931232E+02  0.92411804221E+02  0.00000000000E+00 0.  1.
</event>
<event>
12    1  0.9966151E-001  0.1732281E+03  0.7818608E-02  0.1175358E+00
         21   -1    0    0  503  502  0.00000000000E+00  0.00000000000E+00  0.39308416269E+03  0.39308416269E+03  0.00000000000E+00 0.  1.
         21   -1    0    0  501  503 -0.00000000000E+00 -0.00000000000E+00 -0.77578700959E+02  0.77578700959E+02  0.00000000000E+00 0.  1.
          6    2    1    2  501    0  0.22212702353E+01 -0.22685602287E+02  0.20280359796E+03  0.26671571415E+03  0.17172187466E+03 0.  0.
         24    2    3    3    0    0  0.13067554116E+02  0.34461735251E+02  0.18623143644E+03  0.20605117262E+03  0.80103468415E+02 0.  0.
         -6    2    1    2    0  502 -0.22212702353E+01  0.22685602287E+02  0.11270186377E+03  0.20394714949E+03  0.16844334091E+03 0.  0.
        -24    2    5    5    0    0 -0.33761166568E+02 -0.41754407095E+02  0.64504382067E+02  0.11738868883E+03  0.82073394472E+02 0.  0.
          5    1    3    3  501    0 -0.10846283880E+02 -0.57147337538E+02  0.16572161518E+02  0.60664541530E+02  0.47000000000E+01 0. -1.
        -11    1    4    4    0    0  0.44679026095E+02  0.33567994723E+02  0.13070512454E+03  0.14215081858E+03  0.00000000000E+00 0.  1.
         12    1    4    4    0    0 -0.31611471980E+02  0.89374052751E+00  0.55526311904E+02  0.63900354041E+02  0.00000000000E+00 0. -1.
         -5    1    5    5    0  502  0.31539896332E+02  0.64440009382E+02  0.48197481701E+02  0.86558460662E+02  0.47000000000E+01 0.  1.
         11    1    6    6    0    0  0.80141353609E+00 -0.57686630243E+02  0.26101005427E+02  0.63321813436E+02  0.00000000000E+00 0. -1.
        -12    1    6    6    0    0 -0.34562580104E+02  0.15932223149E+02  0.38403376640E+02  0.54066875397E+02  0.00000000000E+00 0.  1.
</event>
<event>
12    1  0.9966151E-001  0.2828938E+03  0.7818608E-02  0.1094179E+00
         21   -1    0    0  503  502  0.00000000000E+00  0.00000000000E+00  0.13412822728E+03  0.13412822728E+03  0.00000000000E+00 0. -1.
         21   -1    0    0  501  503 -0.00000000000E+00 -0.00000000000E+00 -0.94686592856E+03  0.94686592856E+03  0.00000000000E+00 0. -1.
          6    2    1    2  501    0  0.10568956774E+03 -0.19822716180E+03 -0.77018055655E+02  0.29276049346E+03  0.17120932576E+03 0.  0.
         24    2    3    3    0    0  0.59392252039E+02 -0.71777844544E+02 -0.96833844457E+02  0.15657082145E+03  0.80362492039E+02 0.  0.
         -6    2    1    2    0  502 -0.10568956774E+03  0.19822716180E+03 -0.73571964563E+03  0.78823366238E+03  0.17194364524E+03 0.  0.
        -24    2    5    5    0    0  0.77835989091E+01  0.96217100732E+02 -0.26203726328E+03  0.29055977171E+03  0.80269164084E+02 0.  0.
          5    1    3    3  501    0  0.46297315697E+02 -0.12644931726E+03  0.19815788802E+02  0.13618967201E+03  0.47000000000E+01 0. -1.
        -11    1    4    4    0    0  0.25316735668E+02 -0.60744352899E+00  0.68897297545E+01  0.26244513114E+02  0.00000000000E+00 0.  1.
         12    1    4    4    0    0  0.34075516371E+02 -0.71170401015E+02 -0.10372357421E+03  0.13032630833E+03  0.00000000000E+00 0. -1.
         -5    1    5    5    0  502 -0.11347316664E+03  0.10201006107E+03 -0.47368238235E+03  0.49767389067E+03  0.47000000000E+01 0.  1.
         11    1    6    6    0    0 -0.18477852917E+02 -0.64502140534E+01 -0.40558337136E+02  0.45033487773E+02  0.00000000000E+00 0. -1.
        -12    1    6    6    0    0  0.26261451826E+02  0.10266731479E+03 -0.22147892614E+03  0.24552628393E+03  0.00000000000E+00 0.  1.
</event>
<event>
12    1  0.9966151E-001  0.2368541E+03  0.7818608E-02  0.1121928E+00
         21   -1    0    0  503  502  0.00000000000E+00  0.00000000000E+00  0.26171626724E+03  0.26171626724E+03  0.00000000000E+00 0.  1.
         21   -1    0    0  501  503 -0.00000000000E+00 -0.00000000000E+00 -0.21478871153E+03  0.21478871153E+03  0.00000000000E+00 0.  1.
          6    2    1    2  501    0 -0.11032172039E+03 -0.11840373708E+03  0.11375935278E+02  0.23699765024E+03  0.17276616384E+03 0.  0.
         24    2    3    3    0    0 -0.14486971035E+03 -0.11577691129E+03  0.11908587760E+02  0.20202855614E+03  0.79260310801E+02 0.  0.
         -6    2    1    2    0  502  0.11032172039E+03  0.11840373708E+03  0.35551620430E+02  0.23950732853E+03  0.17294367799E+03 0.  0.
        -24    2    5    5    0    0  0.13824425055E+03  0.59873619048E+02  0.17630976365E+02  0.17206341189E+03  0.81232033810E+02 0.  0.
          5    1    3    3  501    0  0.34547989952E+02 -0.26268257917E+01 -0.53265248242E+00  0.34969094099E+02  0.47000000000E+01 0. -1.
        -13    1    4    4    0    0 -0.54392718232E+02 -0.17060662982E+02 -0.26296323448E+02  0.62778424995E+02  0.00000000000E+00 0.  1.
         14    1    4    4    0    0 -0.90476992115E+02 -0.98716248311E+02  0.38204911208E+02  0.13925013114E+03  0.00000000000E+00 0. -1.
         -5    1    5    5    0  502 -0.27922530154E+02  0.58530118037E+02  0.17920644065E+02  0.67443916637E+02  0.47000000000E+01 0.  1.
         11    1    6    6    0    0  0.12682793889E+03  0.36784804912E+02 -0.12240330875E+02  0.13262078893E+03  0.00000000000E+00 0. -1.
        -12    1    6    6    0    0  0.11416311656E+02  0.23088814135E+02  0.29871307240E+02  0.39442622964E+02  0.00000000000E+00 0.  1.
</event>
<event>
12    1  0.9966151E-001  0.1914138E+03  0.7818608E-02  0.1157979E+00
         21   -1    0    0  503  502  0.00000000000E+00  0.00000000000E+00  0.27102376845E+03  0.27102376845E+03  0.00000000000E+00 0. -1.
         21   -1    0    0  501  503 -0.00000000000E+00 -0.00000000000E+00 -0.29081025615E+03  0.29081025615E+03  0.00000000000E+00 0. -1.
          6    2    1    2  501    0  0.76090542490E+01 -0.76304202514E+02 -0.21704174529E+03  0.28938962375E+03  0.17538245667E+03 0.  0.
         24    2    3    3    0    0 -0.40485377660E+02  0.39151579885E+01 -0.57557442974E+02  0.10444219104E+03  0.77077349214E+02 0.  0.
         -6    2    1    2    0  502 -0.76090542490E+01  0.76304202514E+02  0.19725525759E+03  0.27244440084E+03  0.17156947827E+03 0.  0.
        -24    2    5    5    0    0 -0.66034168390E+02  0.40938938843E+02  0.13469719016E+03  0.17970930696E+03  0.90086590906E+02 0.  0.
          5    1    3    3  501    0  0.48094431909E+02 -0.80219360502E+02 -0.15948430232E+03  0.18494743271E+03  0.47000000000E+01 0. -1.
        -13    1    4    4    0    0 -0.52782449104E+02 -0.12271724978E+02 -0.13388159241E+02  0.55819575198E+02  0.00000000000E+00 0.  1.
         14    1    4    4    0    0  0.12297071444E+02  0.16186882966E+02 -0.44169283733E+02  0.48622615846E+02  0.00000000000E+00 0. -1.
         -5    1    5    5    0  502  0.58425114141E+02  0.35365263671E+02  0.62558067431E+02  0.92735093884E+02  0.47000000000E+01 0.  1.
         11    1    6    6    0    0  0.15535282110E+02 -0.13617603015E+02  0.19893032109E+02  0.28679554191E+02  0.00000000000E+00 0. -1.
        -12    1    6    6    0    0 -0.81569450501E+02  0.54556541857E+02  0.11480415805E+03  0.15102975277E+03  0.00000000000E+00 0.  1.
</event>
<event>
12    1  0.9966151E-001  0.1858598E+03  0.7818608E-02  0.1162408E+00
         21   -1    0    0  503  502  0.00000000000E+00  0.00000000000E+00  0.10987001396E+03  0.10987001396E+03  0.00000000000E+00 0.  1.
         21   -1    0    0  501  503 -0.00000000000E+00 -0.00000000000E+00 -0.37900147375E+03  0.37900147375E+03  0.00000000000E+00 0.  1.
          6    2    1    2  501    0  0.51151588242E+02 -0.45239155995E+02 -0.32552819002E+02  0.18801714647E+03  0.17212697385E+03 0.  0.
         24    2    3    3    0    0  0.39492470104E+02 -0.66059976771E+02  0.33650718609E+02  0.11748743637E+03  0.82142261454E+02 0.  0.
         -6    2    1    2    0  502 -0.51151588242E+02  0.45239155995E+02 -0.23657864079E+03  0.30085434125E+03  0.17286068135E+03 0.  0.
        -24    2    5    5    0    0 -0.18063275682E+02  0.92467102758E+02 -0.12893509542E+03  0.17864739282E+03  0.80088607876E+02 0.  0.
          5    1    3    3  501    0  0.11659118137E+02  0.20820820776E+02 -0.66203537611E+02  0.70529710093E+02  0.47000000000E+01 0. -1.
        -13    1    4    4    0    0  0.39139540339E+01  0.19393636886E+02  0.87442572227E+01  0.21630862725E+02  0.00000000000E+00 0.  1.
         14    1    4    4    0    0  0.35578516070E+02 -0.85453613657E+02  0.24906461386E+02  0.95856573648E+02  0.00000000000E+00 0. -1.
         -5    1    5    5    0  502 -0.33088312559E+02 -0.47227946763E+02 -0.10764354537E+03  0.12220694843E+03  0.47000000000E+01 0.  1.
         11    1    6    6    0    0 -0.21465331804E+02  0.55593366061E+02 -0.12846462151E+03  0.14161405933E+03  0.00000000000E+00 0. -1.
        -12    1    6    6    0    0  0.34020561215E+01  0.36873736697E+02 -0.47047390306E+00  0.37033333492E+02  0.00000000000E+00 0.  1.
</event>
<event>
12    1  0.9966151E-001  0.3894068E+03  0.7818608E-02  0.1047554E+00
         21   -1    0    0  501  502  0.00000000000E+00  0.00000000000E+00  0.47076121136E+03  0.47076121136E+03  0.00000000000E+00 0. -1.
         21   -1    0    0  502  503 -0.00000000000E+00 -0.00000000000E+00 -0.34841981685E+03  0.34841981685E+03  0.00000000000E+00 0. -1.
         -6    2    1    2    0  503 -0.23950271553E+03 -0.25391445384E+03  0.17454357610E+03  0.42629085910E+03  0.17153523247E+03 0.  0.
        -24    2    3    3    0    0 -0.24824403688E+03 -0.20025746072E+03  0.17065257966E+03  0.37158516046E+03  0.85000447709E+02 0.  0.
          6    2    1    2  501    0  0.23950271553E+03  0.25391445384E+03 -0.52202181580E+02  0.39289016911E+03  0.17263695029E+03 0.  0.
         24    2    5    5    0    0  0.17413191788E+03  0.13050917642E+03 -0.87990338312E+02  0.24865048718E+03  0.82037766822E+02 0.  0.
          5    1    5    5  501    0  0.65370797656E+02  0.12340527742E+03  0.35788156732E+02  0.14423968193E+03  0.47000000000E+01 0. -1.
        -13    1    6    6    0    0  0.71701506696E+02  0.69024618433E+02 -0.82133064098E+02  0.12904008769E+03  0.00000000000E+00 0.  1.
         14    1    6    6    0    0  0.10243041118E+03  0.61484557986E+02 -0.58572742149E+01  0.11961039949E+03  0.00000000000E+00 0. -1.
         -5    1    3    3    0  503  0.87413213507E+01 -0.53656993126E+02  0.38909964378E+01  0.54705698639E+02  0.47000000000E+01 0.  1.
         11    1    4    4    0    0 -0.89499642021E+02 -0.50565743867E+02  0.96894592042E+02  0.14126444118E+03  0.00000000000E+00 0. -1.
        -12    1    4    4    0    0 -0.15874439486E+03 -0.14969171685E+03  0.73757987615E+02  0.23032071928E+03  0.00000000000E+00 0.  1.
</event>
<event>
12    1  0.9966151E-001  0.1879892E+03  0.7818608E-02  0.1160722E+00
         21   -1    0    0  501  502  0.00000000000E+00  0.00000000000E+00  0.50233305983E+02  0.50233305983E+02  0.00000000000E+00 0.  1.
         21   -1    0    0  502  503 -0.00000000000E+00 -0.00000000000E+00 -0.92052369219E+03  0.92052369219E+03  0.00000000000E+00 0.  1.
         -6    2    1    2    0  503  0.10593546260E+02  0.69358603793E+02 -0.67627468113E+03  0.70191693296E+03  0.17440498068E+03 0.  0.
        -24    2    3    3    0    0 -0.36280524382E+02  0.22279817291E+02 -0.56857952991E+03  0.57529179235E+03  0.76585232266E+02 0.  0.
          6    2    1    2  501    0 -0.10593546260E+02 -0.69358603793E+02 -0.19401570507E+03  0.26884006521E+03  0.17236602829E+03 0.  0.
         24    2    5    5    0    0 -0.60982614888E+02 -0.13566485786E+02 -0.15230846029E+03  0.18273894480E+03  0.79326704311E+02 0.  0.
          5    1    5    5  501    0  0.50389068628E+02 -0.55792118007E+02 -0.41707244784E+02  0.86101120413E+02  0.47000000000E+01 0. -1.
        -11    1    6    6    0    0  0.29052680298E+00 -0.35739212122E+02 -0.50689727607E+02  0.62022771414E+02  0.00000000000E+00 0.  1.
         12    1    6    6    0    0 -0.61273141691E+02  0.22172726336E+02 -0.10161873268E+03  0.12071617339E+03  0.00000000000E+00 0. -1.
         -5    1    3    3    0  503  0.46874070642E+02  0.47078786502E+02 -0.10769515122E+03  0.12662514061E+03  0.47000000000E+01 0.  1.
         13    1    4    4    0    0  0.19736768089E+02 -0.10867106492E+02 -0.14851550996E+03  0.15021481524E+03  0.00000000000E+00 0. -1.
        -14    1    4    4    0    0 -0.56017292471E+02  0.33146923784E+02 -0.42006401995E+03  0.42507697711E+03  0.00000000000E+00 0.  1.
</event>
<event>
12    1  0.9966151E-001  0.2790613E+03  0.7818608E-02  0.1096623E+00
         21   -1    0    0  501  502  0.00000000000E+00  0.00000000000E+00  0.43530749457E+03  0.43530749457E+03  0.00000000000E+00 0. -1.
         21   -1    0    0  502  503 -0.00000000000E+00 -0.00000000000E+00 -0.26121864986E+03  0.26121864986E+03  0.00000000000E+00 0. -1.
         -6    2    1    2    0  503 -0.20899033385E+03  0.68727763457E+02  0.28452284453E+03  0.39640801373E+03  0.16669012921E+03 0.  0.
        -24    2    3    3    0    0 -0.10284352985E+03 -0.20158046588E+02  0.17750559043E+03  0.22135769553E+03  0.80671285240E+02 0.  0.
          6    2    1    2  501    0  0.20899033385E+03 -0.68727763457E+02 -0.11043399981E+03  0.30011813071E+03  0.17168214512E+03 0.  0.
         24    2    5    5    0    0  0.18467419290E+03 -0.10103792382E+03 -0.12389436974E+03  0.25724048231E+03  0.80682286259E+02 0.  0.
          5    1    5    5  501    0  0.24316140947E+02  0.32310160362E+02  0.13460369925E+02  0.42877648393E+02  0.47000000000E+01 0. -1.
        -11    1    6    6    0    0  0.15957411041E+03 -0.51499730792E+02 -0.76815925966E+02  0.18443645373E+03  0.00000000000E+00 0.  1.
         12    1    6    6    0    0  0.25100082490E+02 -0.49538193027E+02 -0.47078443771E+02  0.72804028579E+02  0.00000000000E+00 0. -1.
         -5    1    3    3    0  503 -0.10614680400E+03  0.88885810045E+02  0.10701725410E+03  0.17505031819E+03  0.47000000000E+01 0.  1.
         11    1    4    4    0    0 -0.52637634920E+02 -0.48939078355E+02  0.11931136456E+03  0.13928731354E+03  0.00000000000E+00 0. -1.
        -12    1    4    4    0    0 -0.50205894929E+02  0.28781031767E+02  0.58194225870E+02  0.82070381989E+02  0.00000000000E+00 0.  1.
</event>
<event>
12    1  0.9966151E-001  0.1767735E+03  0.7818608E-02  0.1171367E+00
         21   -1    0    0  503  502  0.00000000000E+00  0.00000000000E+00  0.21579484035E+03  0.21579484035E+03  0.00000000000E+00 0.  1.
         21   -1    0    0  501  503 -0.00000000000E+00 -0.00000000000E+00 -0.14400076848E+03  0.14400076848E+03  0.00000000000E+00 0.  1.
          6    2    1    2  501    0  0.31267584789E+02 -0.24940411001E+02  0.25268255819E+02  0.17857028191E+03  0.17218935760E+03 0.  0.
         24    2    3    3    0    0  0.15668552026E+02 -0.78908094279E+02 -0.77757230788E+01  0.11322630588E+03  0.79295293740E+02 0.  0.
         -6    2    1    2    0  502 -0.31267584789E+02  0.24940411001E+02  0.46525816051E+02  0.18122532692E+03  0.17052355145E+03 0.  0.
        -24    2    5    5    0    0 -0.47064143886E+02 -0.32789900841E+02 -0.98756455607E+01  0.98850967706E+02  0.79898524419E+02 0.  0.
          5    1    3    3  501    0  0.15599032762E+02  0.53967683278E+02  0.33043978898E+02  0.65343976027E+02  0.47000000000E+01 0. -1.
        -13    1    4    4    0    0 -0.18334341613E+01 -0.54290014813E+02  0.32180600151E+02  0.63137613316E+02  0.00000000000E+00 0.  1.
         14    1    4    4    0    0  0.17501986188E+02 -0.24618079466E+02 -0.39956323229E+02  0.50088692568E+02  0.00000000000E+00 0. -1.
         -5    1    5    5    0  502  0.15796559098E+02  0.57730311841E+02  0.56401461612E+02  0.82374359218E+02  0.47000000000E+01 0.  1.
         11    1    6    6    0    0 -0.24538719060E+02 -0.27394162553E+02  0.33455313571E+02  0.49717671719E+02  0.00000000000E+00 0. -1.
        -12    1    6    6    0    0 -0.22525424827E+02 -0.53957382878E+01 -0.43330959132E+02  0.49133295987E+02  0.00000000000E+00 0.  1.
</event>
<event>
12    1  0.9966151E-001  0.1859428E+03  0.7818608E-02  0.1162421E+00
         21   -1    0    0  503  502  0.00000000000E+00  0.00000000000E+00  0.43347186381E+03  0.43347186381E+03  0.00000000000E+00 0.  1.
         21   -1    0    0  501  503 -0.00000000000E+00 -0.00000000000E+00 -0.90072765858E+02  0.90072765858E+02  0.00000000000E+00 0.  1.
          6    2    1    2  501    0 -0.42702090700E+02 -0.54583985541E+02  0.80751306795E+02  0.20173942898E+03  0.17139178402E+03 0.  0.
         24    2    3    3    0    0 -0.39930886730E+02  0.24940025179E+02  0.81373367614E+02  0.12202603731E+03  0.77796196912E+02 0.  0.
         -6    2    1    2    0  502  0.42702090700E+02  0.54583985541E+02  0.26264779116E+03  0.32180520069E+03  0.17254519686E+03 0.  0.
        -24    2    5    5    0    0  0.87048327556E+02  0.66860083187E+02  0.22190454187E+03  0.26016597893E+03  0.79981428053E+02 0.  0.
          5    1    3    3  501    0 -0.27712039701E+01 -0.79524010720E+02 -0.62206081862E+00  0.79713391673E+02  0.47000000000E+01 0. -1.
        -13    1    4    4    0    0  0.23655319669E+00 -0.48389906770E+01 -0.13740566033E+02  0.14569658304E+02  0.00000000000E+00 0.  1.
         14    1    4    4    0    0 -0.40167439927E+02  0.29779015856E+02  0.95113933646E+02  0.10745637901E+03  0.00000000000E+00 0. -1.
         -5    1    5    5    0  502 -0.44346236856E+02 -0.12276097646E+02  0.40743249287E+02  0.61639221760E+02  0.47000000000E+01 0.  1.
         11    1    6    6    0    0  0.64284949011E+02  0.27230295766E+02  0.19502692475E+03  0.20714619247E+03  0.00000000000E+00 0. -1.
        -12    1    6    6    0    0  0.22763378545E+02  0.39629787421E+02  0.26877617120E+02  0.53019786456E+02  0.00000000000E+00 0.  1.
</event>
<event>
12    1  0.9966151E-001  0.1866764E+03  0.7818608E-02  0.1161812E+00
         21   -1    0    0  503  502  0.00000000000E+00  0.00000000000E+00  0.76713335218E+02  0.76713335218E+02  0.00000000000E+00 0. -1.
         21   -1    0    0  501  503 -0.00000000000E+00 -0.00000000000E+00 -0.70484224729E+03  0.70484224729E+03  0.00000000000E+00 0. -1.
          6    2    1    2  501    0 -0.66138037208E+02  0.17648125724E+02 -0.54935161870E+03  0.58020280430E+03  0.17367324736E+03 0.  0.
         24    2    3    3    0    0  0.25897808383E+02 -0.14357605405E+02 -0.31619468598E+03  0.32745943847E+03  0.79835875953E+02 0.  0.
         -6    2    1    2    0  502  0.66138037208E+02 -0.17648125724E+02 -0.78777293377E+02  0.20135277821E+03  0.17219576950E+03 0.  0.
        -24    2    5    5    0    0  0.82827608487E+02 -0.66373084866E+02 -0.69817448987E+02  0.14886437716E+03  0.77590769309E+02 0.  0.
          5    1    3    3  501    0 -0.92035845591E+02  0.32005731129E+02 -0.23315693272E+03  0.25274336584E+03  0.47000000000E+01 0. -1.
        -13    1    4    4    0    0 -0.83912675621E+01 -0.28820402376E+02 -0.24766301440E+03  0.24947544502E+03  0.00000000000E+00 0.  1.
         14    1    4    4    0    0  0.34289075945E+02  0.14462796971E+02 -0.68531671575E+02  0.77983993449E+02  0.00000000000E+00 0. -1.
         -5    1    5    5    0  502 -0.16689571279E+02  0.48724959141E+02 -0.89598443900E+01  0.52488401046E+02  0.47000000000E+01 0.  1.
         11    1    6    6    0    0 -0.12998806012E+02 -0.17590980141E+02 -0.22518986402E+02  0.31392933737E+02  0.00000000000E+00 0. -1.
        -12    1    6    6    0    0  0.95826414499E+02 -0.48782104725E+02 -0.47298462585E+02  0.11747144342E+03  0.00000000000E+00 0.  1.
</event>
<event>
12    1  0.9966151E-001  0.1736229E+03  0.7818608E-02  0.1174451E+00
         21   -1    0    0  503  502  0.00000000000E+00  0.00000000000E+00  0.44014415126E+03  0.44014415126E+03  0.00000000000E+00 0. -1.
         21   -1    0    0  501  503 -0.00000000000E+00 -0.00000000000E+00 -0.76105538246E+02  0.76105538246E+02  0.00000000000E+00 0. -1.
          6    2    1    2  501    0  0.11805135275E+02  0.89248853651E+01  0.26575658798E+03  0.31673963192E+03  0.17169279418E+03 0.  0.
         24    2    3    3    0    0 -0.13752984507E+02  0.69021427138E+02  0.15907086880E+03  0.19156477623E+03  0.80252228652E+02 0.  0.
         -6    2    1    2    0  502 -0.11805135275E+02 -0.89248853651E+01  0.98282025038E+02  0.19951005759E+03  0.17299101664E+03 0.  0.
        -24    2    5    5    0    0 -0.11819168835E+02  0.59843046069E+02  0.31209213639E+02  0.10333375791E+03  0.77349645080E+02 0.  0.
          5    1    3    3  501    0  0.25558119782E+02 -0.60096541773E+02  0.10668571918E+03  0.12517485569E+03  0.47000000000E+01 0. -1.
        -13    1    4    4    0    0 -0.12492907177E+02  0.30235752115E+02  0.55091678521E+01  0.33175659242E+02  0.00000000000E+00 0.  1.
         14    1    4    4    0    0 -0.12600773294E+01  0.38785675023E+02  0.15356170095E+03  0.15838911698E+03  0.00000000000E+00 0. -1.
         -5    1    5    5    0  502  0.14033559048E-01 -0.68767931434E+02  0.67072811399E+02  0.96176299677E+02  0.47000000000E+01 0.  1.
         11    1    6    6    0    0  0.24367887085E+02  0.54166002176E+02  0.79033604693E+01  0.59918384653E+02  0.00000000000E+00 0. -1.
        -12    1    6    6    0    0 -0.36187055919E+02  0.56770438925E+01  0.23305853169E+02  0.43415373261E+02  0.00000000000E+00 0.  1.
</event>
<event>
12    1  0.9966151E-001  0.5908758E+03  0.7818608E-02  0.9924630E-01
         21   -1    0    0  501  502  0.00000000000E+00  0.00000000000E+00  0.26412117030E+04  0.26412117030E+04  0.00000000000E+00 0.  1.
         21   -1    0    0  502  503 -0.00000000000E+00 -0.00000000000E+00 -0.17619438788E+03  0.17619438788E+03  0.00000000000E+00 0. -1.
         -6    2    1    2    0  503 -0.54179706682E+03 -0.16107069834E+03  0.52794571418E+03  0.79221953064E+03  0.17145633884E+03 0.  0.
        -24    2    3    3    0    0 -0.26319528420E+03 -0.33482740156E+02  0.18964868183E+03  0.33574980278E+03  0.79802606692E+02 0.  0.
          6    2    1    2  501    0  0.54179706682E+03  0.16107069834E+03  0.19370716009E+04  0.20251865602E+04  0.17218125661E+03 0.  0.
         24    2    5    5    0    0  0.33357933455E+03  0.10326223348E+03  0.96705814519E+03  0.10313834424E+04  0.81314745451E+02 0.  0.
          5    1    5    5  501    0  0.20821773227E+03  0.57808464854E+02  0.97001345576E+03  0.99380311782E+03  0.47000000000E+01 0. -1.
        -13    1    6    6    0    0  0.30052103698E+03  0.10590339804E+03  0.92149509974E+03  0.97502904686E+03  0.00000000000E+00 0.  1.
         14    1    6    6    0    0  0.33058297571E+02 -0.26411645534E+01  0.45563045453E+02  0.56354395565E+02  0.00000000000E+00 0. -1.
         -5    1    3    3    0  503 -0.27860178262E+03 -0.12758795818E+03  0.33829703236E+03  0.45646972786E+03  0.47000000000E+01 0.  1.
         11    1    4    4    0    0 -0.48023449342E+02  0.24506468743E+02  0.30934990980E+02  0.62159410904E+02  0.00000000000E+00 0. -1.
        -12    1    4    4    0    0 -0.21517183486E+03 -0.57989208899E+02  0.15871369085E+03  0.27359039188E+03  0.00000000000E+00 0.  1.
</event>
<event>
12    1  0.9966151E-001  0.4227253E+03  0.7818608E-02  0.1036447E+00
         21   -1    0    0  501  502  0.00000000000E+00  0.00000000000E+00  0.78372029353E+03  0.78372029353E+03  0.00000000000E+00 0.  1.
         21   -1    0    0  502  503 -0.00000000000E+00 -0.00000000000E+00 -0.23096421283E+03  0.23096421283E+03  0.00000000000E+00 0.  1.
         -6    2    1    2    0  503  0.27418637206E+03 -0.26618298810E+03  0.20498197477E+03  0.46980240771E+03  0.18073500637E+03 0.  0.
        -24    2    3    3    0    0  0.26042513244E+03 -0.19665004467E+03  0.11424467013E+03  0.35456547617E+03  0.78564257499E+02 0.  0.
          6    2    1    2  501    0 -0.27418637206E+03  0.26618298810E+03  0.34777410593E+03  0.54488209866E+03  0.17296856045E+03 0.  0.
         24    2    5    5    0    0 -0.22667600767E+03  0.15623310645E+03  0.17929464599E+03  0.33811259022E+03  0.79892162183E+02 0.  0.
          5    1    5    5  501    0 -0.47510364389E+02  0.10994988165E+03  0.16847945994E+03  0.20676950844E+03  0.47000000000E+01 0. -1.
        -11    1    6    6    0    0 -0.39413265010E+01 -0.30188972613E+01  0.21548310258E+02  0.22112834966E+02  0.00000000000E+00 0.  1.
         12    1    6    6    0    0 -0.22273468117E+03  0.15925200372E+03  0.15774633573E+03  0.31599975525E+03  0.00000000000E+00 0. -1.
         -5    1    3    3    0  503  0.13761239615E+02 -0.69532943431E+02  0.90737304637E+02  0.11523693154E+03  0.47000000000E+01 0.  1.
         13    1    4    4    0    0  0.18339731543E+03 -0.17855267926E+03  0.95946095126E+02  0.27335194850E+03  0.00000000000E+00 0. -1.
        -14    1    4    4    0    0  0.77027817014E+02 -0.18097365412E+02  0.18298575007E+02  0.81213527666E+02  0.00000000000E+00 0.  1.
</event>
<event>
12    1  0.9966151E-001  0.1951615E+03  0.7818608E-02  0.1153936E+00
         21   -1    0    0  503  502  0.00000000000E+00  0.00000000000E+00  0.93415085210E+03  0.93415085210E+03  0.00000000000E+00 0. -1.
         21   -1    0    0  501  503 -0.00000000000E+00 -0.00000000000E+00 -0.47885079870E+02  0.47885079870E+02  0.00000000000E+00 0. -1.
          6    2    1    2  501    0 -0.72215499733E+02  0.58834291211E+02  0.25304861865E+03  0.31942597474E+03  0.17123900758E+03 0.  0.
         24    2    3    3    0    0 -0.25348787432E+00  0.20734972823E+02  0.44418173380E+02  0.95419631295E+02  0.81865307402E+02 0.  0.
         -6    2    1    2    0  502  0.72215499733E+02 -0.58834291211E+02  0.63321715359E+03  0.66260995723E+03  0.17149763730E+03 0.  0.
        -24    2    5    5    0    0  0.15211023948E+02  0.15375280505E+02  0.44487838608E+03  0.45225275593E+03  0.78409198079E+02 0.  0.
          5    1    3    3  501    0 -0.71962011859E+02  0.38099318388E+02  0.20863044527E+03  0.22400634345E+03  0.47000000000E+01 0. -1.
        -11    1    4    4    0    0  0.19700365984E+02  0.28726518104E+02  0.59649708900E+02  0.69075357647E+02  0.00000000000E+00 0.  1.
         12    1    4    4    0    0 -0.19953853858E+02 -0.79915452812E+01 -0.15231535519E+02  0.26344273648E+02  0.00000000000E+00 0. -1.
         -5    1    5    5    0  502  0.57004475786E+02 -0.74209571716E+02  0.18833876751E+03  0.21035720130E+03  0.47000000000E+01 0.  1.
         11    1    6    6    0    0 -0.24315998445E+02  0.30447176520E+02  0.22262576027E+03  0.22601001632E+03  0.00000000000E+00 0. -1.
        -12    1    6    6    0    0  0.39527022393E+02 -0.15071896015E+02  0.22225262581E+03  0.22624273961E+03  0.00000000000E+00 0.  1.
</event>
<event>
12    1  0.9966151E-001  0.3243110E+03  0.7818608E-02  0.1074516E+00
         21   -1    0    0  503  502  0.00000000000E+00  0.00000000000E+00  0.14712372170E+03  0.14712372170E+03  0.00000000000E+00 0.  1.
         21   -1    0    0  501  503 -0.00000000000E+00 -0.00000000000E+00 -0.73752669783E+03  0.73752669783E+03  0.00000000000E+00 0. -1.
          6    2    1    2  501    0 -0.19774853134E+03  0.17784133204E+03 -0.19083169589E+03  0.37002934276E+03  0.17254842022E+03 0.  0.
         24    2    3    3    0    0 -0.14252484311E+03  0.54678441746E+02 -0.60945438902E+02  0.18264929302E+03  0.79645180781E+02 0.  0.
         -6    2    1    2    0  502  0.19774853134E+03 -0.17784133204E+03 -0.39957128024E+03  0.51462107678E+03  0.18559532225E+03 0.  0.
        -24    2    5    5    0    0  0.10828098308E+03 -0.48005380956E+02 -0.28914120612E+03  0.32206275403E+03  0.78054420529E+02 0.  0.
          5    1    3    3  501    0 -0.55223688224E+02  0.12316289030E+03 -0.12988625699E+03  0.18738004974E+03  0.47000000000E+01 0. -1.
        -13    1    4    4    0    0 -0.20557648745E+02  0.23500815972E+01  0.18680675809E+02  0.27876647110E+02  0.00000000000E+00 0.  1.
         14    1    4    4    0    0 -0.12196719437E+03  0.52328360149E+02 -0.79626114711E+02  0.15477264591E+03  0.00000000000E+00 0. -1.
         -5    1    5    5    0  502  0.89467548260E+02 -0.12983595109E+03 -0.11043007413E+03  0.19255832274E+03  0.47000000000E+01 0.  1.
         11    1    6    6    0    0  0.25223792537E+02 -0.42137239666E+02 -0.16825663173E+03  0.17527715424E+03  0.00000000000E+00 0. -1.
        -12    1    6    6    0    0  0.83057190539E+02 -0.58681412892E+01 -0.12088457439E+03  0.14678559979E+03  0.00000000000E+00 0.  1.
</event>
<event>
12    1  0.9966151E-001  0.3102820E+03  0.7818608E-02  0.1080395E+00
         21   -1    0    0  503  502  0.00000000000E+00  0.00000000000E+00  0.24859458473E+03  0.24859458473E+03  0.00000000000E+00 0.  1.
         21   -1    0    0  501  503 -0.00000000000E+00 -0.00000000000E+00 -0.46966340163E+03  0.46966340163E+03  0.00000000000E+00 0.  1.
          6    2    1    2  501    0 -0.25900658454E+03  0.11765453777E+02  0.41835924573E+02  0.31157157853E+03  0.16764178246E+03 0.  0.
         24    2    3    3    0    0 -0.39443300980E+02 -0.21376677498E+02 -0.24614489426E+01  0.85096891971E+02  0.72268153146E+02 0.  0.
         -6    2    1    2    0  502  0.25900658454E+03 -0.11765453777E+02 -0.26290474147E+03  0.40668640783E+03  0.17044674973E+03 0.  0.
        -24    2    5    5    0    0  0.21401052686E+03 -0.48024036995E+02 -0.13679726795E+03  0.26788974022E+03  0.70317897155E+02 0.  0.
          5    1    3    3  501    0 -0.21956328356E+03  0.33142131274E+02  0.44297373516E+02  0.22647468656E+03  0.47000000000E+01 0. -1.
        -13    1    4    4    0    0 -0.56306846360E+02 -0.27676753732E+02  0.95382518734E+01  0.63462129597E+02  0.00000000000E+00 0.  1.
         14    1    4    4    0    0  0.16863545379E+02  0.63000762349E+01 -0.11999700816E+02  0.21634762374E+02  0.00000000000E+00 0. -1.
         -5    1    5    5    0  502  0.44996057677E+02  0.36258583218E+02 -0.12610747351E+03  0.13879666761E+03  0.47000000000E+01 0.  1.
         11    1    6    6    0    0  0.46566515022E+02  0.32297583755E+01 -0.16801237976E+01  0.46708612444E+02  0.00000000000E+00 0. -1.
        -12    1    6    6    0    0  0.16744401184E+03 -0.51253795370E+02 -0.13511714416E+03  0.22118112778E+03  0.00000000000E+00 0.  1.
</event>
<event>
12    1  0.9966151E-001  0.2328973E+03  0.7818608E-02  0.1124993E+00
         21   -1    0    0  503  502  0.00000000000E+00  0.00000000000E+00  0.13451457657E+03  0.13451457657E+03  0.00000000000E+00 0.  1.
         21   -1    0    0  501  503 -0.00000000000E+00 -0.00000000000E+00 -0.40009029560E+03  0.40009029560E+03  0.00000000000E+00 0.  1.
          6    2    1    2  501    0  0.11467838810E+03  0.10369958265E+03 -0.14363660201E+03  0.27362864205E+03  0.17417354614E+03 0.  0.
         24    2    3    3    0    0  0.14016626704E+03  0.48884976296E+02 -0.12638938680E+03  0.21059032454E+03  0.79609574623E+02 0.  0.
         -6    2    1    2    0  502 -0.11467838810E+03 -0.10369958265E+03 -0.12193911701E+03  0.26097623011E+03  0.17127378167E+03 0.  0.
        -24    2    5    5    0    0 -0.44293082239E+02 -0.32929744594E+02  0.79436172382E+01  0.97104097288E+02  0.79497543623E+02 0.  0.
          5    1    3    3  501    0 -0.25487878933E+02  0.54814606356E+02 -0.17247215212E+02  0.63038317515E+02  0.47000000000E+01 0. -1.
        -11    1    4    4    0    0  0.96982467118E+02  0.70221585164E+02 -0.97603311713E+02  0.15447678275E+03  0.00000000000E+00 0.  1.
         12    1    4    4    0    0  0.43183799919E+02 -0.21336608868E+02 -0.28786075088E+02  0.56113541791E+02  0.00000000000E+00 0. -1.
         -5    1    5    5    0  502 -0.70385305865E+02 -0.70769838058E+02 -0.12988273425E+03  0.16387213283E+03  0.47000000000E+01 0.  1.
         13    1    6    6    0    0 -0.37943167055E+02 -0.58233172533E+02  0.12506348811E+02  0.70620075545E+02  0.00000000000E+00 0. -1.
        -14    1    6    6    0    0 -0.63499151839E+01  0.25303427939E+02 -0.45627315727E+01  0.26484021743E+02  0.00000000000E+00 0.  1.
</event>
<event>
12    1  0.9966151E-001  0.2229094E+03  0.7818608E-02  0.1131878E+00
         21   -1    0    0  501  502  0.00000000000E+00  0.00000000000E+00  0.24830353006E+03  0.24830353006E+03  0.00000000000E+00 0. -1.
         21   -1    0    0  502  503 -0.00000000000E+00 -0.00000000000E+00 -0.23123183262E+03  0.23123183262E+03  0.00000000000E+00 0. -1.
         -6    2    1    2    0  503  0.13365801887E+03  0.43833875992E+02  0.97482958040E+02  0.24256581039E+03  0.17189930357E+03 0.  0.
        -24    2    3    3    0    0  0.34127049684E+02 -0.39463780156E+02  0.45461297670E+02  0.10266135551E+03  0.75832571266E+02 0.  0.
          6    2    1    2  501    0 -0.13365801887E+03 -0.43833875992E+02 -0.80411260592E+02  0.23696955230E+03  0.17292403879E+03 0.  0.
         24    2    5    5    0    0 -0.78503084783E+02  0.20215321756E+02  0.79403481016E+01  0.11460753513E+03  0.80625333651E+02 0.  0.
          5    1    5    5  501    0 -0.55154934087E+02 -0.64049197748E+02 -0.88351608694E+02  0.12236201717E+03  0.47000000000E+01 0. -1.
        -11    1    6    6    0    0 -0.50229461994E+02 -0.28285762952E+02  0.96126317664E+01  0.58442158819E+02  0.00000000000E+00 0.  1.
         12    1    6    6    0    0 -0.28273622790E+02  0.48501084707E+02 -0.16722836648E+01  0.56165376310E+02  0.00000000000E+00 0. -1.
         -5    1    3    3    0  503  0.99530969186E+02  0.83297656148E+02  0.52021660369E+02  0.13990445488E+03  0.47000000000E+01 0.  1.
         11    1    4    4    0    0  0.23660782137E+02  0.19715451968E+02  0.79145188516E+01  0.31798919263E+02  0.00000000000E+00 0. -1.
        -12    1    4    4    0    0  0.10466267548E+02 -0.59179232124E+02  0.37546778819E+02  0.70862436247E+02  0.00000000000E+00 0.  1.
</event>
<event>
12    1  0.9966151E-001  0.3435411E+03  0.7818608E-02  0.1065420E+00
         21   -1    0    0  503  502  0.00000000000E+00  0.00000000000E+00  0.22054645433E+03  0.22054645433E+03  0.00000000000E+00 0. -1.
         21   -1    0    0  501  503 -0.00000000000E+00 -0.00000000000E+00 -0.66421104306E+03  0.66421104306E+03  0.00000000000E+00 0. -1.
          6    2    1    2  501    0  0.10047076997E+03 -0.27908575402E+03 -0.25750268537E+02  0.34450485594E+03  0.17331268195E+03 0.  0.
         24    2    3    3    0    0  0.98819662905E+02 -0.23369007780E+03  0.35074913657E+02  0.26844378599E+03  0.80345743060E+02 0.  0.
         -6    2    1    2    0  502 -0.10047076997E+03  0.27908575402E+03 -0.41791432020E+03  0.54025264145E+03  0.17098919221E+03 0.  0.
        -24    2    5    5    0    0 -0.35077907931E+01  0.17275553319E+03 -0.20387613736E+03  0.28229456558E+03  0.90928342830E+02 0.  0.
          5    1    3    3  501    0  0.16511070611E+01 -0.45395676220E+02 -0.60825182194E+02  0.76061069957E+02  0.47000000000E+01 0. -1.
        -13    1    4    4    0    0  0.94978575556E+02 -0.21352728172E+03  0.71764720735E+01  0.23380832236E+03  0.00000000000E+00 0.  1.
         14    1    4    4    0    0  0.38410873494E+01 -0.20162796078E+02  0.27898441584E+02  0.34635463625E+02  0.00000000000E+00 0. -1.
         -5    1    5    5    0  502 -0.96962979173E+02  0.10633022083E+03 -0.21403818283E+03  0.25795807586E+03  0.47000000000E+01 0.  1.
         11    1    6    6    0    0  0.13275191250E+02 -0.19085969134E+00 -0.44764571438E+02  0.46691904931E+02  0.00000000000E+00 0. -1.
        -12    1    6    6    0    0 -0.16782982043E+02  0.17294639288E+03 -0.15911156592E+03  0.23560266065E+03  0.00000000000E+00 0.  1.
</event>
<event>
12    1  0.9966151E-001  0.1883810E+03  0.7818608E-02  0.1160029E+00
         21   -1    0    0  501  502  0.00000000000E+00  0.00000000000E+00  0.16211814300E+03  0.16211814300E+03  0.00000000000E+00 0. -1.
         21   -1    0    0  502  503 -0.00000000000E+00 -0.00000000000E+00 -0.22648688540E+03  0.22648688540E+03  0.00000000000E+00 0. -1.
         -6    2    1    2    0  503 -0.74963491651E+02 -0.11586535368E+02  0.45065516086E+01  0.18843484988E+03  0.17243436653E+03 0.  0.
        -24    2    3    3    0    0 -0.51710129820E+02  0.37538339158E+02 -0.47739874298E+02  0.11289842719E+03  0.79899279284E+02 0.  0.
          6    2    1    2  501    0  0.74963491651E+02  0.11586535368E+02 -0.68875294010E+02  0.20017017852E+03  0.17196081345E+03 0.  0.
         24    2    5    5    0    0 -0.21931425336E+02  0.27147400693E+02 -0.46024280193E+02  0.99298853062E+02  0.80771647689E+02 0.  0.
          5    1    5    5  501    0  0.96894916987E+02 -0.15560865325E+02 -0.22851013817E+02  0.10087132546E+03  0.47000000000E+01 0. -1.
        -11    1    6    6    0    0 -0.13411865215E+02 -0.15550007713E+02  0.14213162549E+02  0.24973883520E+02  0.00000000000E+00 0.  1.
         12    1    6    6    0    0 -0.85195601213E+01  0.42697408406E+02 -0.60237442743E+02  0.74324969542E+02  0.00000000000E+00 0. -1.
         -5    1    3    3    0  503 -0.23253361831E+02 -0.49124874525E+02  0.52246425907E+02  0.75536422695E+02  0.47000000000E+01 0.  1.
         11    1    4    4    0    0  0.13291229825E+02 -0.74991845707E+01  0.69306425405E+01  0.16760917800E+02  0.00000000000E+00 0. -1.
        -12    1    4    4    0    0 -0.65001359645E+02  0.45037523728E+02 -0.54670516839E+02  0.96137509385E+02  0.00000000000E+00 0.  1.
</event>
<event>
12    1  0.9966151E-001  0.1748231E+03  0.7818608E-02  0.1173020E+00
         21   -1    0    0  501  502  0.00000000000E+00  0.00000000000E+00  0.31503853787E+02  0.31503853787E+02  0.00000000000E+00 0. -1.
         21   -1    0    0  502  503 -0.00000000000E+00 -0.00000000000E+00 -0.10205948115E+04  0.10205948115E+04  0.00000000000E+00 0. -1.
         -6    2    1    2    0  503 -0.16027135399E+02 -0.20632456014E+02 -0.37537350627E+03  0.41408739932E+03  0.17285987897E+03 0.  0.
        -24    2    3    3    0    0  0.59941523023E+01 -0.43456195990E+02 -0.37181676657E+03  0.38182905752E+03  0.74975665623E+02 0.  0.
          6    2    1    2  501    0  0.16027135399E+02  0.20632456014E+02 -0.61371745145E+03  0.63801126597E+03  0.17241432071E+03 0.  0.
         24    2    5    5    0    0  0.61534200551E-01 -0.46923547055E+02 -0.22558344782E+03  0.24369057320E+03  0.79343433776E+02 0.  0.
          5    1    5    5  501    0  0.15965601199E+02  0.67556003069E+02 -0.38813400363E+03  0.39432069277E+03  0.47000000000E+01 0. -1.
        -11    1    6    6    0    0 -0.62728258503E+01  0.93394700815E+01 -0.14369477545E+03  0.14413452931E+03  0.00000000000E+00 0.  1.
         12    1    6    6    0    0  0.63343600509E+01 -0.56263017137E+02 -0.81888672362E+02  0.99556043894E+02  0.00000000000E+00 0. -1.
         -5    1    3    3    0  503 -0.22021287701E+02  0.22823739976E+02 -0.35567397067E+01  0.32258341803E+02  0.47000000000E+01 0.  1.
         13    1    4    4    0    0  0.19491199889E+02 -0.12611083007E+01 -0.22844602441E+02  0.30056166222E+02  0.00000000000E+00 0. -1.
        -14    1    4    4    0    0 -0.13497047587E+02 -0.42195087689E+02 -0.34897216413E+03  0.35177289130E+03  0.00000000000E+00 0.  1.
</event>
<event>
12    1  0.9966151E-001  0.2258899E+03  0.7818608E-02  0.1130196E+00
         21   -1    0    0  501  502  0.00000000000E+00  0.00000000000E+00  0.89813776620E+02  0.89813776620E+02  0.00000000000E+00 0.  1.
         21   -1    0    0  502  503 -0.00000000000E+00 -0.00000000000E+00 -0.56188120878E+03  0.56188120878E+03  0.00000000000E+00 0.  1.
         -6    2    1    2    0  503 -0.13720450700E+03  0.39565864077E+02 -0.21280838378E+03  0.30783236190E+03  0.17053685961E+03 0.  0.
        -24    2    3    3    0    0 -0.35769349929E+02  0.75082398315E+02 -0.11743228506E+03  0.16406447431E+03  0.78803535620E+02 0.  0.
          6    2    1    2  501    0  0.13720450700E+03 -0.39565864077E+02 -0.25925904838E+03  0.34386262349E+03  0.17503061254E+03 0.  0.
         24    2    5    5    0    0  0.81280357994E+02  0.43740592663E+02 -0.14188138889E+03  0.18937287910E+03  0.84923629114E+02 0.  0.
          5    1    5    5  501    0  0.55924149010E+02 -0.83306456740E+02 -0.11737765949E+03  0.15448974440E+03  0.47000000000E+01 0. -1.
        -13    1    6    6    0    0 -0.14489667892E+02 -0.56839181833E+01 -0.79881918789E+01  0.17494816691E+02  0.00000000000E+00 0.  1.
         14    1    6    6    0    0  0.95770025886E+02  0.49424510846E+02 -0.13389319701E+03  0.17187806241E+03  0.00000000000E+00 0. -1.
         -5    1    3    3    0  503 -0.10143515707E+03 -0.35516534238E+02 -0.95376098719E+02  0.14376788759E+03  0.47000000000E+01 0.  1.
         11    1    4    4    0    0 -0.36957270065E+02 -0.10977545658E+01 -0.50918136376E+02  0.62926159010E+02  0.00000000000E+00 0. -1.
        -12    1    4    4    0    0  0.11879201360E+01  0.76180152881E+02 -0.66514148684E+02  0.10113831530E+03  0.00000000000E+00 0.  1.
</event>
<event>
12    1  0.9966151E-001  0.2244988E+03  0.7818608E-02  0.1130692E+00
         21   -1    0    0  501  502  0.00000000000E+00  0.00000000000E+00  0.65454562551E+02  0.65454562551E+02  0.00000000000E+00 0. -1.
         21   -1    0    0  502  503 -0.00000000000E+00 -0.00000000000E+00 -0.81946012765E+03  0.81946012765E+03  0.00000000000E+00 0. -1.
         -6    2    1    2    0  503  0.74229543751E+02  0.12397720552E+03 -0.26534707357E+03  0.34715372580E+03  0.17095691629E+03 0.  0.
        -24    2    3    3    0    0 -0.51079628311E+01  0.11639496811E+03 -0.19743623340E+03  0.24234006978E+03  0.78573298750E+02 0.  0.
          6    2    1    2  501    0 -0.74229543751E+02 -0.12397720552E+03 -0.48865849153E+03  0.53776096440E+03  0.17181199271E+03 0.  0.
         24    2    5    5    0    0 -0.10287265824E+03 -0.41316207661E+02 -0.27926692837E+03  0.31078038088E+03  0.79401605956E+02 0.  0.
          5    1    5    5  501    0  0.28643114493E+02 -0.82660997862E+02 -0.20939156315E+03  0.22698058352E+03  0.47000000000E+01 0. -1.
        -11    1    6    6    0    0 -0.39836952554E+02 -0.57679267535E+02 -0.16469966985E+03  0.17899682103E+03  0.00000000000E+00 0.  1.
         12    1    6    6    0    0 -0.63035705690E+02  0.16363059874E+02 -0.11456725853E+03  0.13178355985E+03  0.00000000000E+00 0. -1.
         -5    1    3    3    0  503  0.79337506582E+02  0.75822374120E+01 -0.67910840171E+02  0.10481365602E+03  0.47000000000E+01 0.  1.
         13    1    4    4    0    0 -0.18201413945E+02  0.64416841257E+02 -0.44752710721E+02  0.80520966362E+02  0.00000000000E+00 0. -1.
        -14    1    4    4    0    0  0.13093451114E+02  0.51978126855E+02 -0.15268352268E+03  0.16181910342E+03  0.00000000000E+00 0.  1.
</event>
<event>
12    1  0.9966151E-001  0.5408150E+03  0.7818608E-02  0.1003688E+00
         21   -1    0    0  501  502  0.00000000000E+00  0.00000000000E+00  0.11898690223E+04  0.11898690223E+04  0.00000000000E+00 0. -1.
         21   -1    0    0  502  503 -0.00000000000E+00 -0.00000000000E+00 -0.28887834736E+03  0.28887834736E+03  0.00000000000E+00 0. -1.
         -6    2    1    2    0  503  0.48635810403E+03 -0.16386212202E+03  0.73687039501E+03  0.91357810070E+03  0.16808321345E+03 0.  0.
        -24    2    3    3    0    0  0.15450278014E+03 -0.49247011465E+01  0.21840953384E+03  0.27780076994E+03  0.74667138363E+02 0.  0.
          6    2    1    2  501    0 -0.48635810403E+03  0.16386212202E+03  0.16412027994E+03  0.56516926896E+03  0.17054570032E+03 0.  0.
         24    2    5    5    0    0 -0.36746873914E+03  0.70015334028E+02  0.15697098024E+03  0.41346197452E+03  0.79846693667E+02 0.  0.
          5    1    5    5  501    0 -0.11888936489E+03  0.93846787992E+02  0.71492996978E+01  0.15170729444E+03  0.47000000000E+01 0. -1.
        -13    1    6    6    0    0 -0.18574128680E+03  0.75269313515E+02  0.90338671356E+02  0.21983259704E+03  0.00000000000E+00 0.  1.
         14    1    6    6    0    0 -0.18172745235E+03 -0.52539794876E+01  0.66632308882E+02  0.19362937748E+03  0.00000000000E+00 0. -1.
         -5    1    3    3    0  503  0.33185532389E+03 -0.15893742087E+03  0.51846086117E+03  0.63577733076E+03  0.47000000000E+01 0.  1.
         13    1    4    4    0    0  0.57898046707E+01 -0.95838583762E+01 -0.24863288720E+01  0.11469699681E+02  0.00000000000E+00 0. -1.
        -14    1    4    4    0    0  0.14871297547E+03  0.46591572297E+01  0.22089586271E+03  0.26633107026E+03  0.00000000000E+00 0.  1.
</event>
<event>
12    1  0.9966151E-001  0.2177537E+03  0.7818608E-02  0.1135757E+00
         21   -1    0    0  503  502  0.00000000000E+00  0.00000000000E+00  0.31195169211E+03  0.31195169211E+03  0.00000000000E+00 0. -1.
         21   -1    0    0  501  503 -0.00000000000E+00 -0.00000000000E+00 -0.15156981331E+03  0.15156981331E+03  0.00000000000E+00 0. -1.
          6    2    1    2  501    0  0.79725956581E+02  0.10323816074E+03  0.70732175909E+02  0.22895349289E+03  0.17436259695E+03 0.  0.
         24    2    3    3    0    0  0.90014595314E+02  0.81441471670E+02 -0.56611448845E+01  0.14871023023E+03  0.85716645618E+02 0.  0.
         -6    2    1    2    0  502 -0.79725956581E+02 -0.10323816074E+03  0.89649702895E+02  0.23456801253E+03  0.17312058597E+03 0.  0.
        -24    2    5    5    0    0 -0.31493206357E+02 -0.98258878976E+02 -0.26498468360E+01  0.13020092805E+03  0.79363912661E+02 0.  0.
          5    1    3    3  501    0 -0.10288638733E+02  0.21796689071E+02  0.76393320794E+02  0.80243262666E+02  0.47000000000E+01 0. -1.
        -11    1    4    4    0    0  0.22498166606E+02 -0.14674497898E+02  0.12891890483E+02  0.29794449641E+02  0.00000000000E+00 0.  1.
         12    1    4    4    0    0  0.67516428708E+02  0.96115969567E+02 -0.18553035368E+02  0.11891578059E+03  0.00000000000E+00 0. -1.
         -5    1    5    5    0  502 -0.48232750224E+02 -0.49792817639E+01  0.92299549731E+02  0.10436708447E+03  0.47000000000E+01 0.  1.
         11    1    6    6    0    0 -0.40644290659E+02 -0.10386676145E+03 -0.16424369968E+02  0.11273873525E+03  0.00000000000E+00 0. -1.
        -12    1    6    6    0    0  0.91510843018E+01  0.56078824761E+01  0.13774523132E+02  0.17462192797E+02  0.00000000000E+00 0.  1.
</event>
<event>
12    1  0.9966151E-001  0.2655485E+03  0.7818608E-02  0.1103882E+00
         21   -1    0    0  501  502  0.00000000000E+00  0.00000000000E+00  0.88484090163E+03  0.88484090163E+03  0.00000000000E+00 0. -1.
         21   -1    0    0  502  503 -0.00000000000E+00 -0.00000000000E+00 -0.11001526902E+03  0.11001526902E+03  0.00000000000E+00 0. -1.
         -6    2    1    2    0  503  0.14034091288E+03 -0.14583074623E+03  0.12592203839E+03  0.29372003783E+03  0.17161853774E+03 0.  0.
        -24    2    3    3    0    0  0.96505755319E+02 -0.14194918084E+02  0.66892782065E+02  0.14286893444E+03  0.80137579370E+02 0.  0.
          6    2    1    2  501    0 -0.14034091288E+03  0.14583074623E+03  0.64890359421E+03  0.70113613282E+03  0.17191225611E+03 0.  0.
         24    2    5    5    0    0 -0.20435399918E+02  0.11713430635E+03  0.38930399932E+03  0.41370812902E+03  0.73883427382E+02 0.  0.
          5    1    5    5  501    0 -0.11990551296E+03  0.28696439880E+02  0.25959959489E+03  0.28742800380E+03  0.47000000000E+01 0. -1.
        -11    1    6    6    0    0 -0.28997473628E+02  0.74082738837E+01  0.82956112601E+02  0.88189866859E+02  0.00000000000E+00 0.  1.
         12    1    6    6    0    0  0.85620737103E+01  0.10972603247E+03  0.30634788672E+03  0.32551826216E+03  0.00000000000E+00 0. -1.
         -5    1    3    3    0  503  0.43835157561E+02 -0.13163582814E+03  0.59029256327E+02  0.15085110338E+03  0.47000000000E+01 0.  1.
         13    1    4    4    0    0  0.80477467023E+02 -0.51083406799E+01  0.78528995581E+01  0.81020897764E+02  0.00000000000E+00 0. -1.
        -14    1    4    4    0    0  0.16028288296E+02 -0.90865774045E+01  0.59039882507E+02  0.61848036679E+02  0.00000000000E+00 0.  1.
</event>
<event>
12    1  0.9966151E-001  0.1786578E+03  0.7818608E-02  0.1169224E+00
         21   -1    0    0  503  502  0.00000000000E+00  0.00000000000E+00  0.97857000532E+02  0.97857000532E+02  0.00000000000E+00 0.  1.
         21   -1    0    0  501  503 -0.00000000000E+00 -0.00000000000E+00 -0.32561172865E+03  0.32561172865E+03  0.00000000000E+00 0.  1.
          6    2    1    2  501    0 -0.42390654086E+02 -0.14950165663E+02 -0.12015317386E+03  0.21491007777E+03  0.17242123225E+03 0.  0.
         24    2    3    3    0    0 -0.23874697261E+01 -0.30823803453E+02 -0.14204652542E+03  0.16639579144E+03  0.80960096059E+02 0.  0.
         -6    2    1    2    0  502  0.42390654086E+02  0.14950165663E+02 -0.10760155426E+03  0.20855865141E+03  0.17291079085E+03 0.  0.
        -24    2    5    5    0    0  0.56962807108E+02 -0.40795983628E+02 -0.10893144502E+03  0.15073271075E+03  0.77105231347E+02 0.  0.
          5    1    3    3  501    0 -0.40003184360E+02  0.15873637790E+02  0.21893351562E+02  0.48514286331E+02  0.47000000000E+01 0. -1.
        -13    1    4    4    0    0  0.93170056031E+01  0.26533387984E+02 -0.45659748332E+02  0.53624993138E+02  0.00000000000E+00 0.  1.
         14    1    4    4    0    0 -0.11704475329E+02 -0.57357191436E+02 -0.96386777088E+02  0.11277079830E+03  0.00000000000E+00 0. -1.
         -5    1    5    5    0  502 -0.14572153022E+02  0.55746149290E+02  0.13298907584E+01  0.57825940665E+02  0.47000000000E+01 0.  1.
         11    1    6    6    0    0  0.41323647593E+02 -0.88936090590E+01 -0.70755696738E+01  0.42857949305E+02  0.00000000000E+00 0. -1.
        -12    1    6    6    0    0  0.15639159515E+02 -0.31902374569E+02 -0.10185587534E+03  0.10787476144E+03  0.00000000000E+00 0.  1.
</event>
<event>
12    1  0.9966151E-001  0.2341643E+03  0.7818608E-02  0.1123773E+00
         21   -1    0    0  503  502  0.00000000000E+00  0.00000000000E+00  0.26948994861E+03  0.26948994861E+03  0.00000000000E+00 0.  1.
         21   -1    0    0  501  503 -0.00000000000E+00 -0.00000000000E+00 -0.20473667591E+03  0.20473667591E+03  0.00000000000E+00 0.  1.
          6    2    1    2  501    0  0.53423067651E+02 -0.14935674437E+03  0.52142083005E+02  0.23989936130E+03  0.17225401442E+03 0.  0.
         24    2    3    3    0    0 -0.21595167944E+02 -0.52531124010E+02 -0.16463238806E+02  0.99429732512E+02  0.79933492399E+02 0.  0.
         -6    2    1    2    0  502 -0.53423067651E+02  0.14935674437E+03  0.12611189700E+02  0.23432726322E+03  0.17201384519E+03 0.  0.
        -24    2    5    5    0    0 -0.14779566723E+02  0.46448029140E+02 -0.51945362116E+02  0.10676095804E+03  0.79521861858E+02 0.  0.
          5    1    3    3  501    0  0.75018235594E+02 -0.96825620361E+02  0.68605321811E+02  0.14046962878E+03  0.47000000000E+01 0. -1.
        -13    1    4    4    0    0 -0.27413834328E+02 -0.71515210284E+02 -0.55935775583E+01  0.76793435425E+02  0.00000000000E+00 0.  1.
         14    1    4    4    0    0  0.58186663847E+01  0.18984086274E+02 -0.10869661248E+02  0.22636297087E+02  0.00000000000E+00 0. -1.
         -5    1    5    5    0  502 -0.38643500928E+02  0.10290871523E+03  0.64556551817E+02  0.12756630518E+03  0.47000000000E+01 0.  1.
         11    1    6    6    0    0 -0.37933728788E+02  0.22993246489E+02 -0.58238040202E+02  0.73207421007E+02  0.00000000000E+00 0. -1.
        -12    1    6    6    0    0  0.23154162066E+02  0.23454782651E+02  0.62926780856E+01  0.33553537036E+02  0.00000000000E+00 0.  1.
</event>
<event>
12    1  0.9966151E-001  0.2007461E+03  0.7818608E-02  0.1149123E+00
         21   -1    0    0  503  502  0.00000000000E+00  0.00000000000E+00  0.99146227936E+02  0.99146227936E+02  0.00000000000E+00 0.  1.
         21   -1    0    0  501  503 -0.00000000000E+00 -0.00000000000E+00 -0.41090096234E+03  0.41090096234E+03  0.00000000000E+00 0.  1.
          6    2    1    2  501    0 -0.85280783449E+02  0.57295322420E+02 -0.12903970193E+03  0.23864246892E+03  0.17246279976E+03 0.  0.
         24    2    3    3    0    0 -0.98897928797E+02  0.59104902601E+02 -0.35183839956E+02  0.14367029376E+03  0.78288318950E+02 0.  0.
         -6    2    1    2    0  502  0.85280783449E+02 -0.57295322420E+02 -0.18271503248E+03  0.27140472136E+03  0.17239539926E+03 0.  0.
        -24    2    5    5    0    0  0.90317222017E+02 -0.95526778783E+02 -0.17280002788E+03  0.23131223721E+03  0.79768009826E+02 0.  0.
          5    1    3    3  501    0  0.13617145348E+02 -0.18095801810E+01 -0.93855861969E+02  0.94972175156E+02  0.47000000000E+01 0. -1.
        -11    1    4    4    0    0 -0.30324419035E+02  0.65536832438E+01  0.23765298500E+02  0.39080820957E+02  0.00000000000E+00 0.  1.
         12    1    4    4    0    0 -0.68573509762E+02  0.52551219357E+02 -0.58949138457E+02  0.10458947281E+03  0.00000000000E+00 0. -1.
         -5    1    5    5    0  502 -0.50364385682E+01  0.38231456363E+02 -0.99150046070E+01  0.40092484152E+02  0.47000000000E+01 0.  1.
         11    1    6    6    0    0  0.17882421761E+02 -0.37340536034E+02 -0.80611645732E+01  0.42179130072E+02  0.00000000000E+00 0. -1.
        -12    1    6    6    0    0  0.72434800256E+02 -0.58186242749E+02 -0.16473886330E+03  0.18913310714E+03  0.00000000000E+00 0.  1.
</event>
<event>
12    1  0.9966151E-001  0.2189687E+03  0.7818608E-02  0.1134660E+00
         21   -1    0    0  503  502  0.00000000000E+00  0.00000000000E+00  0.17585848960E+03  0.17585848960E+03  0.00000000000E+00 0.  1.
         21   -1    0    0  501  503 -0.00000000000E+00 -0.00000000000E+00 -0.27330099980E+03  0.27330099980E+03  0.00000000000E+00 0.  1.
          6    2    1    2  501    0  0.99922591099E+02 -0.90536190192E+02 -0.60018158897E+02  0.22701570446E+03  0.17248949164E+03 0.  0.
         24    2    3    3    0    0  0.34309057127E+02  0.22589481051E+02 -0.30811847639E+02  0.92934937932E+02  0.77460549174E+02 0.  0.
         -6    2    1    2    0  502 -0.99922591099E+02  0.90536190192E+02 -0.37424351302E+02  0.22214378494E+03  0.17252812284E+03 0.  0.
        -24    2    5    5    0    0 -0.18592825899E+02 -0.76391474334E+01  0.14273971372E+02  0.84493015987E+02  0.80816296274E+02 0.  0.
          5    1    3    3  501    0  0.65613533972E+02 -0.11312567124E+03 -0.29206311258E+02  0.13408076652E+03  0.47000000000E+01 0. -1.
        -11    1    4    4    0    0  0.55947575764E+02  0.73666878052E+00 -0.26395879403E+02  0.61866116447E+02  0.00000000000E+00 0.  1.
         12    1    4    4    0    0 -0.21638518637E+02  0.21852812271E+02 -0.44159682355E+01  0.31068821484E+02  0.00000000000E+00 0. -1.
         -5    1    5    5    0  502 -0.81329765200E+02  0.98175337625E+02 -0.51698322674E+02  0.13765076895E+03  0.47000000000E+01 0.  1.
         13    1    6    6    0    0 -0.46582973882E+02 -0.20946597346E+02  0.18685773287E+01  0.51109930320E+02  0.00000000000E+00 0. -1.
        -14    1    6    6    0    0  0.27990147983E+02  0.13307449913E+02  0.12405394043E+02  0.33383085667E+02  0.00000000000E+00 0.  1.
</event>
<event>
12    1  0.9966151E-001  0.2677478E+03  0.7818608E-02  0.1102675E+00
         21   -1    0    0  501  502  0.00000000000E+00  0.00000000000E+00  0.17669339889E+04  0.17669339889E+04  0.00000000000E+00 0. -1.
         21   -1    0    0  502  503 -0.00000000000E+00 -0.00000000000E+00 -0.40538252487E+02  0.40538252487E+02  0.00000000000E+00 0. -1.
         -6    2    1    2    0  503 -0.16169325427E+03 -0.12667379730E+03  0.82694577417E+03  0.86921125313E+03  0.17174961355E+03 0.  0.
        -24    2    3    3    0    0 -0.20618804735E+02 -0.53630580569E+02  0.19787663582E+03  0.22037584824E+03  0.78159946275E+02 0.  0.
          6    2    1    2  501    0  0.16169325427E+03  0.12667379730E+03  0.89944996222E+03  0.93826098823E+03  0.17068241884E+03 0.  0.
         24    2    5    5    0    0  0.16355733918E+03  0.12702430444E+03  0.61382717857E+03  0.65259324030E+03  0.78790576950E+02 0.  0.
          5    1    5    5  501    0 -0.18640849084E+01 -0.35050714162E+00  0.28562278365E+03  0.28566774793E+03  0.47000000000E+01 0. -1.
        -11    1    6    6    0    0  0.19440826100E+02  0.97159161649E+01  0.17256214896E+02  0.27751066627E+02  0.00000000000E+00 0.  1.
         12    1    6    6    0    0  0.14411651308E+03  0.11730838828E+03  0.59657096367E+03  0.62484217367E+03  0.00000000000E+00 0. -1.
         -5    1    3    3    0  503 -0.14107444954E+03 -0.73043216730E+02  0.62906913835E+03  0.64883540489E+03  0.47000000000E+01 0.  1.
         11    1    4    4    0    0  0.11547008091E+02 -0.36257042138E+01  0.12823870680E+03  0.12880855969E+03  0.00000000000E+00 0. -1.
        -12    1    4    4    0    0 -0.32165812826E+02 -0.50004876355E+02  0.69637929017E+02  0.91567288547E+02  0.00000000000E+00 0.  1.
</event>
<event>
12    1  0.9966151E-001  0.2501585E+03  0.7818608E-02  0.1113903E+00
         21   -1    0    0  501  502  0.00000000000E+00  0.00000000000E+00  0.26632641011E+02  0.26632641011E+02  0.00000000000E+00 0.  1.
         21   -1    0    0  502  503 -0.00000000000E+00 -0.00000000000E+00 -0.23585004025E+04  0.23585004025E+04  0.00000000000E+00 0. -1.
         -6    2    1    2    0  503  0.62732586624E+02 -0.16902570115E+03 -0.10028090755E+04  0.10335401777E+04  0.17341912260E+03 0.  0.
        -24    2    3    3    0    0 -0.24358894523E+02 -0.54879878472E+02 -0.52958420158E+03  0.53899183208E+03  0.80297021649E+02 0.  0.
          6    2    1    2  501    0 -0.62732586624E+02  0.16902570115E+03 -0.13290586860E+04  0.13515928658E+04  0.16703657938E+03 0.  0.
         24    2    5    5    0    0 -0.39776362135E+02  0.61806447766E+02 -0.96993600995E+03  0.97607436689E+03  0.80889494543E+02 0.  0.
          5    1    5    5  501    0 -0.22956224490E+02  0.10721925338E+03 -0.35912267609E+03  0.37551849891E+03  0.47000000000E+01 0. -1.
        -13    1    6    6    0    0 -0.21909158424E+02  0.54537541675E+02 -0.29159910427E+03  0.29746326208E+03  0.00000000000E+00 0.  1.
         14    1    6    6    0    0 -0.17867203711E+02  0.72689060918E+01 -0.67833690568E+03  0.67861110481E+03  0.00000000000E+00 0. -1.
         -5    1    3    3    0  503  0.87091481148E+02 -0.11414582268E+03 -0.47322487388E+03  0.49454834565E+03  0.47000000000E+01 0.  1.
         13    1    4    4    0    0 -0.14846658351E+02  0.19223757535E+02 -0.96457600338E+02  0.99468813107E+02  0.00000000000E+00 0. -1.
        -14    1    4    4    0    0 -0.95122361721E+01 -0.74103636007E+02 -0.43312660124E+03  0.43952301897E+03  0.00000000000E+00 0.  1.
</event>
<event>
12    1  0.9966151E-001  0.2250301E+03  0.7818608E-02  0.1130804E+00
         21   -1    0    0  501  502  0.00000000000E+00  0.00000000000E+00  0.71734562411E+02  0.71734562411E+02  0.00000000000E+00 0. -1.
         21   -1    0    0  502  503 -0.00000000000E+00 -0.00000000000E+00 -0.72270396755E+03  0.72270396755E+03  0.00000000000E+00 0. -1.
         -6    2    1    2    0  503 -0.29409690864E+02  0.14069768954E+03 -0.25058547852E+03  0.33679611807E+03  0.17314090605E+03 0.  0.
        -24    2    3    3    0    0 -0.60179871859E+01  0.97408897049E+02 -0.58636449975E+02  0.13858509186E+03  0.79011929636E+02 0.  0.
          6    2    1    2  501    0  0.29409690864E+02 -0.14069768954E+03 -0.40038392663E+03  0.45764241189E+03  0.16872616484E+03 0.  0.
         24    2    5    5    0    0  0.55862482725E+02 -0.15894349020E+03 -0.35156852527E+03  0.39901057030E+03  0.85002101137E+02 0.  0.
          5    1    5    5  501    0 -0.26452791860E+02  0.18245800658E+02 -0.48815401355E+02  0.58631841591E+02  0.47000000000E+01 0. -1.
        -11    1    6    6    0    0  0.22534789240E+02 -0.50602644351E+02 -0.42521836468E+02  0.69832305690E+02  0.00000000000E+00 0.  1.
         12    1    6    6    0    0  0.33327693484E+02 -0.10834084585E+03 -0.30904668880E+03  0.32917826461E+03  0.00000000000E+00 0. -1.
         -5    1    3    3    0  503 -0.23391703678E+02  0.43288792493E+02 -0.19194902854E+03  0.19821102622E+03  0.47000000000E+01 0.  1.
         13    1    4    4    0    0 -0.41553547266E+02  0.48355282556E+02 -0.39764134351E+02  0.75140648269E+02  0.00000000000E+00 0. -1.
        -14    1    4    4    0    0  0.35535560080E+02  0.49053614493E+02 -0.18872315624E+02  0.63444443587E+02  0.00000000000E+00 0.  1.
</event>
<event>
12    1  0.9966151E-001  0.1927752E+03  0.7818608E-02  0.1156395E+00
         21   -1    0    0  501  502  0.00000000000E+00  0.00000000000E+00  0.11343517421E+03  0.11343517421E+03  0.00000000000E+00 0. -1.
         21   -1    0    0  502  503 -0.00000000000E+00 -0.00000000000E+00 -0.53374842423E+03  0.53374842423E+03  0.00000000000E+00 0. -1.
         -6    2    1    2    0  503 -0.26771848016E+02  0.77834439199E+02 -0.81464282532E+01  0.19294724403E+03  0.17431965728E+03 0.  0.
        -24    2    3    3    0    0 -0.18072089421E+02 -0.26703038597E+02 -0.81597129372E+00  0.87687585747E+02  0.81540138574E+02 0.  0.
          6    2    1    2  501    0  0.26771848016E+02 -0.77834439199E+02 -0.41216682177E+03  0.45423635441E+03  0.17226214013E+03 0.  0.
         24    2    5    5    0    0 -0.33206624017E+02 -0.82213336789E+02 -0.33979896549E+03  0.36002495130E+03  0.79327901699E+02 0.  0.
          5    1    5    5  501    0  0.59978472033E+02  0.43788975892E+01 -0.72367856284E+02  0.94211403103E+02  0.47000000000E+01 0. -1.
        -11    1    6    6    0    0 -0.22472575303E+02  0.32984998968E+01 -0.14826365613E+03  0.14999336143E+03  0.00000000000E+00 0.  1.
         12    1    6    6    0    0 -0.10734048713E+02 -0.85511836686E+02 -0.19153530936E+03  0.21003158988E+03  0.00000000000E+00 0. -1.
         -5    1    3    3    0  503 -0.86997585954E+01  0.10453747780E+03 -0.73304569595E+01  0.10525965829E+03  0.47000000000E+01 0.  1.
         11    1    4    4    0    0 -0.45698010706E+02 -0.32821912294E+02 -0.11527892553E+02  0.57432381249E+02  0.00000000000E+00 0. -1.
        -12    1    4    4    0    0  0.27625921285E+02  0.61188736978E+01  0.10711921259E+02  0.30255204498E+02  0.00000000000E+00 0.  1.
</event>
<event>
12    1  0.9966151E-001  0.3342086E+03  0.7818608E-02  0.1069414E+00
         21   -1    0    0  503  502  0.00000000000E+00  0.00000000000E+00  0.94565531479E+02  0.94565531479E+02  0.00000000000E+00 0. -1.
         21   -1    0    0  501  503 -0.00000000000E+00 -0.00000000000E+00 -0.15392036691E+04  0.15392036691E+04  0.00000000000E+00 0. -1.
          6    2    1    2  501    0  0.14632209753E+02 -0.28723526409E+03 -0.11194585281E+04  0.11682819904E+04  0.17022694944E+03 0.  0.
         24    2    3    3    0    0 -0.12844652707E+02 -0.19440323939E+03 -0.51963686726E+03  0.56067942485E+03  0.79883283868E+02 0.  0.
         -6    2    1    2    0  502 -0.14632209753E+02  0.28723526409E+03 -0.32517960947E+03  0.46548721019E+03  0.16798323112E+03 0.  0.
        -24    2    5    5    0    0 -0.51003332128E+02  0.26868912159E+03 -0.25302366695E+03  0.38244873727E+03  0.86318460661E+02 0.  0.
          5    1    3    3  501    0  0.27476862460E+02 -0.92832024699E+02 -0.59982166086E+03  0.60760256551E+03  0.47000000000E+01 0. -1.
        -11    1    4    4    0    0 -0.33138413713E+01 -0.18684758477E+03 -0.51466015067E+03  0.54753819243E+03  0.00000000000E+00 0.  1.
         12    1    4    4    0    0 -0.95308113352E+01 -0.75556546237E+01 -0.49767165903E+01  0.13141232420E+02  0.00000000000E+00 0. -1.
         -5    1    5    5    0  502  0.36371122374E+02  0.18546142498E+02 -0.72155942520E+02  0.83038472922E+02  0.47000000000E+01 0.  1.
         13    1    6    6    0    0 -0.75031153764E+02  0.22091605080E+03 -0.20610647560E+03  0.31130925913E+03  0.00000000000E+00 0. -1.
        -14    1    6    6    0    0  0.24027821636E+02  0.47773070795E+02 -0.46917191348E+02  0.71139478138E+02  0.00000000000E+00 0.  1.
</event>
<event>
12    1  0.1882039E+000  0.1866704E+03  0.7818608E-02  0.1161916E+00
         21   -1    0    0  501  502  0.00000000000E+00  0.00000000000E+00  0.31516878726E+03  0.31516878726E+03  0.00000000000E+00 0. -1.
         21   -1    0    0  502  503 -0.00000000000E+00 -0.00000000000E+00 -0.44874818878E+03  0.44874818878E+03  0.00000000000E+00 0. -1.
         -6    2    1    2    0  503  0.57619559542E+02 -0.35916020263E+02  0.26539104575E+03  0.32343628611E+03  0.17195537170E+03 0.  0.
        -24    2    3    3    0    0  0.84005503506E+02  0.11404008839E+02  0.23213247113E+03  0.25968970990E+03  0.79789004498E+02 0.  0.
          6    2    1    2  501    0 -0.57619559542E+02  0.35916020263E+02 -0.39897044727E+03  0.44048068993E+03  0.17388457738E+03 0.  0.
         24    2    5    5    0    0  0.55164906701E+01  0.13928347951E+02 -0.80350060431E+02  0.11488790825E+03  0.80738272864E+02 0.  0.
          5    1    5    5  501    0 -0.63136050212E+02  0.21987672312E+02 -0.31862038684E+03  0.32559278168E+03  0.47000000000E+01 0. -1.
        -11    1    6    6    0    0 -0.22721824821E+02  0.37428066796E+02 -0.32335126450E+02  0.54430707416E+02  0.00000000000E+00 0.  1.
         12    1    6    6    0    0  0.28238315491E+02 -0.23499718846E+02 -0.48014933981E+02  0.60457200835E+02  0.00000000000E+00 0. -1.
         -5    1    3    3    0  503 -0.26385943964E+02 -0.47320029102E+02  0.33258574618E+02  0.63746576211E+02  0.47000000000E+01 0.  1.
         11    1    4    4    0    0 -0.68244979512E+01  0.21704177917E+02  0.69475510273E+02  0.73106030114E+02  0.00000000000E+00 0. -1.
        -12    1    4    4    0    0  0.90830001457E+02 -0.10300169078E+02  0.16265696086E+03  0.18658367979E+03  0.00000000000E+00 0.  1.
</event>
<event>
12    1  0.9966151E-001  0.5152130E+03  0.7818608E-02  0.1010043E+00
         21   -1    0    0  503  502  0.00000000000E+00  0.00000000000E+00  0.59158573086E+03  0.59158573086E+03  0.00000000000E+00 0. -1.
         21   -1    0    0  501  503 -0.00000000000E+00 -0.00000000000E+00 -0.81124281939E+03  0.81124281939E+03  0.00000000000E+00 0.  1.
          6    2    1    2  501    0 -0.90689783343E+02  0.47832776663E+03  0.36065107131E+03  0.62681183194E+03  0.16062935065E+03 0.  0.
         24    2    3    3    0    0 -0.81689860685E+02  0.29500328754E+03  0.15863932417E+03  0.35382886686E+03  0.79550354180E+02 0.  0.
         -6    2    1    2    0  502  0.90689783343E+02 -0.47832776663E+03 -0.58030815985E+03  0.77601671831E+03  0.16858913839E+03 0.  0.
        -24    2    5    5    0    0  0.12828310506E+03 -0.35031272518E+03 -0.41830164794E+03  0.56608980585E+03  0.79409314011E+02 0.  0.
          5    1    3    3  501    0 -0.89999226587E+01  0.18332447908E+03  0.20201174715E+03  0.27298296508E+03  0.47000000000E+01 0. -1.
        -13    1    4    4    0    0 -0.44075681711E+02  0.12810251153E+03  0.27431501715E+02  0.13822230813E+03  0.00000000000E+00 0.  1.
         14    1    4    4    0    0 -0.37614178974E+02  0.16690077601E+03  0.13120782245E+03  0.21560655873E+03  0.00000000000E+00 0. -1.
         -5    1    5    5    0  502 -0.37593321717E+02 -0.12801504144E+03 -0.16200651191E+03  0.20992691246E+03  0.47000000000E+01 0.  1.
         13    1    6    6    0    0  0.24417992486E+02 -0.17714585421E+03 -0.17974077317E+03  0.25354218103E+03  0.00000000000E+00 0. -1.
        -14    1    6    6    0    0  0.10386511257E+03 -0.17316687098E+03 -0.23856087477E+03  0.31254762483E+03  0.00000000000E+00 0.  1.
</event>
<event>
12    1  0.9966151E-001  0.2486695E+03  0.7818608E-02  0.1114244E+00
         21   -1    0    0  503  502  0.00000000000E+00  0.00000000000E+00  0.12854727423E+03  0.12854727423E+03  0.00000000000E+00 0.  1.
         21   -1    0    0  501  503 -0.00000000000E+00 -0.00000000000E+00 -0.59336592449E+03  0.59336592449E+03  0.00000000000E+00 0. -1.
          6    2    1    2  501    0 -0.40317875450E+02 -0.17465251766E+03 -0.74781594946E+02  0.25967058206E+03  0.17235861231E+03 0.  0.
         24    2    3    3    0    0 -0.23969334161E+02 -0.22470640847E+02  0.43163005715E+01  0.87318716651E+02  0.80786565385E+02 0.  0.
         -6    2    1    2    0  502  0.40317875450E+02  0.17465251766E+03 -0.39003705532E+03  0.46224261667E+03  0.17149431225E+03 0.  0.
        -24    2    5    5    0    0 -0.11665159453E+02  0.13884530886E+03 -0.35647179429E+03  0.39059689894E+03  0.77972441301E+02 0.  0.
          5    1    3    3  501    0 -0.16348541290E+02 -0.15218187682E+03 -0.79097895518E+02  0.17235186541E+03  0.47000000000E+01 0. -1.
        -13    1    4    4    0    0  0.28105025064E+02 -0.33142610707E+01 -0.10001474151E+02  0.30015100291E+02  0.00000000000E+00 0.  1.
         14    1    4    4    0    0 -0.52074359225E+02 -0.19156379777E+02  0.14317774722E+02  0.57303616359E+02  0.00000000000E+00 0. -1.
         -5    1    5    5    0  502  0.51983034903E+02  0.35807208805E+02 -0.33565261030E+02  0.71645717724E+02  0.47000000000E+01 0.  1.
         13    1    6    6    0    0 -0.40029050919E+02  0.41713897593E+02 -0.11286413216E+03  0.12680964671E+03  0.00000000000E+00 0. -1.
        -14    1    6    6    0    0  0.28363891466E+02  0.97131411265E+02 -0.24360766213E+03  0.26378725224E+03  0.00000000000E+00 0.  1.
</event>
<event>
12    1  0.9966151E-001  0.2821589E+03  0.7818608E-02  0.1096549E+00
         21   -1    0    0  501  502  0.00000000000E+00  0.00000000000E+00  0.58771365257E+02  0.58771365257E+02  0.00000000000E+00 0. -1.
         21   -1    0    0  502  503 -0.00000000000E+00 -0.00000000000E+00 -0.12947541862E+04  0.12947541862E+04  0.00000000000E+00 0. -1.
         -6    2    1    2    0  503  0.13660228478E+03 -0.15546587708E+03 -0.65929337426E+03  0.71150970778E+03  0.16955379025E+03 0.  0.
        -24    2    3    3    0    0  0.16674055064E+03 -0.12020094196E+03 -0.53940373584E+03  0.58287244212E+03  0.80828311032E+02 0.  0.
          6    2    1    2  501    0 -0.13660228478E+03  0.15546587708E+03 -0.57668944669E+03  0.64201584367E+03  0.19179103854E+03 0.  0.
         24    2    5    5    0    0 -0.84615697075E+02  0.54952144151E+02 -0.13925596881E+03  0.19015773167E+03  0.81167627346E+02 0.  0.
          5    1    5    5  501    0 -0.51986587705E+02  0.10051373293E+03 -0.43743347788E+03  0.45185811200E+03  0.47000000000E+01 0. -1.
        -13    1    6    6    0    0 -0.46821148871E+02  0.73685852495E+02 -0.94635282459E+02  0.12875426799E+03  0.00000000000E+00 0.  1.
         14    1    6    6    0    0 -0.37794548204E+02 -0.18733708345E+02 -0.44620686348E+02  0.61403463684E+02  0.00000000000E+00 0. -1.
         -5    1    3    3    0  503 -0.30138265864E+02 -0.35264935127E+02 -0.11988963841E+03  0.12863726566E+03  0.47000000000E+01 0.  1.
         13    1    4    4    0    0  0.64600492296E+02 -0.60793147314E+02 -0.33722354768E+03  0.34869578643E+03  0.00000000000E+00 0. -1.
        -14    1    4    4    0    0  0.10214005835E+03 -0.59407794641E+02 -0.20218018816E+03  0.23417665569E+03  0.00000000000E+00 0.  1.
</event>
<event>
12    1  0.9966151E-001  0.2860834E+03  0.7818608E-02  0.1092431E+00
         21   -1    0    0  501  502  0.00000000000E+00  0.00000000000E+00  0.30194367515E+02  0.30194367515E+02  0.00000000000E+00 0.  1.
         21   -1    0    0  502  503 -0.00000000000E+00 -0.00000000000E+00 -0.28695905843E+04  0.28695905843E+04  0.00000000000E+00 0. -1.
         -6    2    1    2    0  503 -0.20239794720E+03 -0.10581436774E+03 -0.10765713013E+04  0.11138971077E+04  0.17204473377E+03 0.  0.
        -24    2    3    3    0    0 -0.61847718183E+02  0.22832519246E+01 -0.21803952012E+03  0.23723390472E+03  0.70059544175E+02 0.  0.
          6    2    1    2  501    0  0.20239794720E+03  0.10581436774E+03 -0.17628249155E+04  0.17858878441E+04  0.17228493687E+03 0.  0.
         24    2    5    5    0    0  0.12220563168E+03  0.92796398144E+02 -0.75474235987E+03  0.77452598798E+03  0.81909024879E+02 0.  0.
          5    1    5    5  501    0  0.80192315522E+02  0.13017969599E+02 -0.10080825557E+04  0.10113618561E+04  0.47000000000E+01 0. -1.
        -11    1    6    6    0    0  0.11089479274E+03  0.38401673387E+02 -0.54988236922E+03  0.56226591890E+03  0.00000000000E+00 0.  1.
         12    1    6    6    0    0  0.11310838943E+02  0.54394724758E+02 -0.20485999064E+03  0.21226006908E+03  0.00000000000E+00 0. -1.
         -5    1    3    3    0  503 -0.14055022902E+03 -0.10809761967E+03 -0.85853178114E+03  0.87666320300E+03  0.47000000000E+01 0.  1.
         11    1    4    4    0    0 -0.22987019125E+02  0.28736012886E+02 -0.15057476971E+03  0.15500620232E+03  0.00000000000E+00 0. -1.
        -12    1    4    4    0    0 -0.38860699057E+02 -0.26452760961E+02 -0.67464750415E+02  0.82227702401E+02  0.00000000000E+00 0.  1.
</event>
<event>
12    1  0.9966151E-001  0.1777798E+03  0.7818608E-02  0.1170452E+00
         21   -1    0    0  503  502  0.00000000000E+00  0.00000000000E+00  0.78136708980E+02  0.78136708980E+02  0.00000000000E+00 0. -1.
         21   -1    0    0  501  503 -0.00000000000E+00 -0.00000000000E+00 -0.73163349270E+03  0.73163349270E+03  0.00000000000E+00 0. -1.
          6    2    1    2  501    0 -0.34704347164E+02 -0.69417598990E+01 -0.59832579565E+03  0.62362649346E+03  0.17223143109E+03 0.  0.
         24    2    3    3    0    0  0.45290461837E+02 -0.13026239279E+02 -0.26226877175E+03  0.27809414523E+03  0.79564666359E+02 0.  0.
         -6    2    1    2    0  502  0.34704347164E+02  0.69417598990E+01 -0.55170988066E+02  0.18614370822E+03  0.17422130307E+03 0.  0.
        -24    2    5    5    0    0  0.35550995131E+02 -0.63149149733E+02 -0.28256235019E+02  0.11091109324E+03  0.79064324564E+02 0.  0.
          5    1    3    3  501    0 -0.79994809002E+02  0.60844793803E+01 -0.33605702391E+03  0.34553234823E+03  0.47000000000E+01 0. -1.
        -13    1    4    4    0    0  0.32983401298E+02 -0.39138940958E+02 -0.22608258776E+03  0.23180400762E+03  0.00000000000E+00 0.  1.
         14    1    4    4    0    0  0.12307060539E+02  0.26112701679E+02 -0.36186183983E+02  0.46290137603E+02  0.00000000000E+00 0. -1.
         -5    1    5    5    0  502 -0.84664796668E+00  0.70090909632E+02 -0.26914753047E+02  0.75232614984E+02  0.47000000000E+01 0.  1.
         11    1    6    6    0    0  0.40374918096E+02 -0.31220776266E+02  0.18328573150E+02  0.54229212383E+02  0.00000000000E+00 0. -1.
        -12    1    6    6    0    0 -0.48239229652E+01 -0.31928373467E+02 -0.46584808169E+02  0.56681880854E+02  0.00000000000E+00 0.  1.
</event>
<event>
12    1  0.9966151E-001  0.1850300E+03  0.7818608E-02  0.1163459E+00
         21   -1    0    0  503  502  0.00000000000E+00  0.00000000000E+00  0.30610904515E+02  0.30610904515E+02  0.00000000000E+00 0.  1.
         21   -1    0    0  501  503 -0.00000000000E+00 -0.00000000000E+00 -0.13098214118E+04  0.13098214118E+04  0.00000000000E+00 0.  1.
          6    2    1    2  501    0 -0.55437665257E+02  0.33483846814E+02 -0.90595208530E+03  0.92465414726E+03  0.17332515239E+03 0.  0.
         24    2    3    3    0    0 -0.68966557356E+02 -0.20895825728E+02 -0.76705426946E+03  0.77480464624E+03  0.82200766325E+02 0.  0.
         -6    2    1    2    0  502  0.55437665257E+02 -0.33483846814E+02 -0.37325842200E+03  0.41577816908E+03  0.17133339884E+03 0.  0.
        -24    2    5    5    0    0  0.35385392108E+02  0.19018717018E+02 -0.33786615372E+03  0.34919502165E+03  0.78547996422E+02 0.  0.
          5    1    3    3  501    0  0.13528892099E+02  0.54379672543E+02 -0.13889781584E+03  0.14984950101E+03  0.47000000000E+01 0. -1.
        -11    1    4    4    0    0  0.14009633663E+01  0.24880726483E+02 -0.20680881387E+03  0.20830482170E+03  0.00000000000E+00 0.  1.
         12    1    4    4    0    0 -0.70367520722E+02 -0.45776552212E+02 -0.56024545559E+03  0.56649982455E+03  0.00000000000E+00 0. -1.
         -5    1    5    5    0  502  0.20052273149E+02 -0.52502563832E+02 -0.35392268279E+02  0.66583147427E+02  0.47000000000E+01 0.  1.
         13    1    6    6    0    0  0.32649255426E+01 -0.27327839359E+02 -0.16731952964E+03  0.16956796732E+03  0.00000000000E+00 0. -1.
        -14    1    6    6    0    0  0.32120466566E+02  0.46346556377E+02 -0.17054662409E+03  0.17962705433E+03  0.00000000000E+00 0.  1.
</event>
<event>
12    1  0.9966151E-001  0.2201975E+03  0.7818608E-02  0.1133940E+00
         21   -1    0    0  501  502  0.00000000000E+00  0.00000000000E+00  0.39702370683E+03  0.39702370683E+03  0.00000000000E+00 0.  1.
         21   -1    0    0  502  503 -0.00000000000E+00 -0.00000000000E+00 -0.12261061439E+03  0.12261061439E+03  0.00000000000E+00 0.  1.
         -6    2    1    2    0  503  0.12256608950E+03  0.60015792910E+02  0.11237457299E+03  0.24624188104E+03  0.17141376149E+03 0.  0.
        -24    2    3    3    0    0  0.14532671807E+03  0.22845302243E+02  0.12102473322E+03  0.20155847404E+03  0.65856431617E+02 0.  0.
          6    2    1    2  501    0 -0.12256608950E+03 -0.60015792910E+02  0.16203851944E+03  0.27339244018E+03  0.17280799423E+03 0.  0.
         24    2    5    5    0    0 -0.13076611149E+03 -0.16779535869E+02  0.17111078091E+03  0.22821489917E+03  0.73632955401E+02 0.  0.
          5    1    5    5  501    0  0.82000219894E+01 -0.43236257041E+02 -0.90722614699E+01  0.45177541010E+02  0.47000000000E+01 0. -1.
        -13    1    6    6    0    0  0.18734221419E+01 -0.16833166896E+02  0.30692051026E+02  0.35055202388E+02  0.00000000000E+00 0.  1.
         14    1    6    6    0    0 -0.13263953363E+03  0.53631026834E-01  0.14041872989E+03  0.19315969679E+03  0.00000000000E+00 0. -1.
         -5    1    3    3    0  503 -0.22760628571E+02  0.37170490667E+02 -0.86501602289E+01  0.44683407003E+02  0.47000000000E+01 0.  1.
         11    1    4    4    0    0  0.50214810486E+02  0.36940192408E+02  0.65958208630E+02  0.90755662595E+02  0.00000000000E+00 0. -1.
        -12    1    4    4    0    0  0.95111907587E+02 -0.14094890165E+02  0.55066524593E+02  0.11080281145E+03  0.00000000000E+00 0.  1.
</event>
<event>
12    1  0.9966151E-001  0.1887930E+03  0.7818608E-02  0.1160499E+00
         21   -1    0    0  503  502  0.00000000000E+00  0.00000000000E+00  0.14782717699E+03  0.14782717699E+03  0.00000000000E+00 0. -1.
         21   -1    0    0  501  503 -0.00000000000E+00 -0.00000000000E+00 -0.29423111134E+03  0.29423111134E+03  0.00000000000E+00 0. -1.
          6    2    1    2  501    0  0.72812098017E+02 -0.10937633656E+02  0.25853910417E+02  0.18648921203E+03  0.16937699983E+03 0.  0.
         24    2    3    3    0    0  0.29156444700E+01  0.27120429973E+02  0.56015440312E+02  0.10124991176E+03  0.79811004082E+02 0.  0.
         -6    2    1    2    0  502 -0.72812098017E+02  0.10937633656E+02 -0.17225784476E+03  0.25556907630E+03  0.17384347624E+03 0.  0.
        -24    2    5    5    0    0  0.21234130069E+01  0.28628323598E+02 -0.25273438801E+02  0.89572700081E+02  0.80996494344E+02 0.  0.
          5    1    3    3  501    0  0.69896453547E+02 -0.38058063629E+02 -0.30161529895E+02  0.85239300274E+02  0.47000000000E+01 0. -1.
        -13    1    4    4    0    0  0.12282870159E+02  0.41888505437E+02  0.11528792245E+01  0.43667435436E+02  0.00000000000E+00 0.  1.
         14    1    4    4    0    0 -0.93672256894E+01 -0.14768075464E+02  0.54862561087E+02  0.57582476320E+02  0.00000000000E+00 0. -1.
         -5    1    5    5    0  502 -0.74935511024E+02 -0.17690689942E+02 -0.14698440596E+03  0.16599637622E+03  0.47000000000E+01 0.  1.
         13    1    6    6    0    0 -0.48127146596E+01  0.56662557700E+02 -0.13950445205E+02  0.58552733403E+02  0.00000000000E+00 0. -1.
        -14    1    6    6    0    0  0.69361276665E+01 -0.28034234102E+02 -0.11322993596E+02  0.31019966678E+02  0.00000000000E+00 0.  1.
</event>
<event>
12    1  0.9966151E-001  0.1985803E+03  0.7818608E-02  0.1151762E+00
         21   -1    0    0  503  502  0.00000000000E+00  0.00000000000E+00  0.19973835586E+03  0.19973835586E+03  0.00000000000E+00 0.  1.
         21   -1    0    0  501  503 -0.00000000000E+00 -0.00000000000E+00 -0.19389625982E+03  0.19389625982E+03  0.00000000000E+00 0.  1.
          6    2    1    2  501    0 -0.96753552011E+02  0.19869880917E+02 -0.40018696086E+01  0.19481047072E+03  0.16786614474E+03 0.  0.
         24    2    3    3    0    0  0.25293277668E+01 -0.20611890005E+02 -0.23782507604E+02  0.85681062984E+02  0.79651675297E+02 0.  0.
         -6    2    1    2    0  502  0.96753552011E+02 -0.19869880917E+02  0.98439656502E+01  0.19882414495E+03  0.17227325666E+03 0.  0.
        -24    2    5    5    0    0  0.63195848985E+02  0.52881012709E+02 -0.13708083180E+02  0.11518443572E+03  0.79305900501E+02 0.  0.
          5    1    3    3  501    0 -0.99282879777E+02  0.40481770922E+02  0.19780637996E+02  0.10912940774E+03  0.47000000000E+01 0. -1.
        -13    1    4    4    0    0  0.40705607386E+02 -0.16468391093E+02 -0.13053493263E+02  0.45809912292E+02  0.00000000000E+00 0.  1.
         14    1    4    4    0    0 -0.38176279619E+02 -0.41434989123E+01 -0.10729014341E+02  0.39871150692E+02  0.00000000000E+00 0. -1.
         -5    1    5    5    0  502  0.33557703026E+02 -0.72750893626E+02  0.23552048830E+02  0.83639709228E+02  0.47000000000E+01 0.  1.
         13    1    6    6    0    0  0.78218046639E+02  0.44564757894E+02 -0.26421108522E+02  0.93819803036E+02  0.00000000000E+00 0. -1.
        -14    1    6    6    0    0 -0.15022197654E+02  0.83162548145E+01  0.12713025341E+02  0.21364632687E+02  0.00000000000E+00 0.  1.
</event>
<event>
12    1  0.9966151E-001  0.2840696E+03  0.7818608E-02  0.1093571E+00
         21   -1    0    0  503  502  0.00000000000E+00  0.00000000000E+00  0.19139282697E+03  0.19139282697E+03  0.00000000000E+00 0.  1.
         21   -1    0    0  501  503 -0.00000000000E+00 -0.00000000000E+00 -0.42413988687E+03  0.42413988687E+03  0.00000000000E+00 0.  1.
          6    2    1    2  501    0 -0.20031248602E+03 -0.10510536532E+03 -0.14400869068E+03  0.31792556504E+03  0.17078036198E+03 0.  0.
         24    2    3    3    0    0 -0.20550457530E+03 -0.76580253570E+02 -0.79156506575E+02  0.24673191662E+03  0.80710720723E+02 0.  0.
         -6    2    1    2    0  502  0.20031248602E+03  0.10510536532E+03 -0.88738369212E+02  0.29760714880E+03  0.17182341800E+03 0.  0.
        -24    2    5    5    0    0  0.19528661036E+03  0.13613405759E+03 -0.81860336118E+02  0.26508889994E+03  0.83076280713E+02 0.  0.
          5    1    3    3  501    0  0.51920892781E+01 -0.28525111749E+02 -0.64852184106E+02  0.71193648416E+02  0.47000000000E+01 0. -1.
        -11    1    4    4    0    0 -0.38485328597E+02  0.12506577494E+02 -0.32166688686E+02  0.51693624935E+02  0.00000000000E+00 0.  1.
         12    1    4    4    0    0 -0.16701924670E+03 -0.89086831064E+02 -0.46989817888E+02  0.19503829169E+03  0.00000000000E+00 0. -1.
         -5    1    5    5    0  502  0.50258756579E+01 -0.31028692270E+02 -0.68780330946E+01  0.32518248867E+02  0.47000000000E+01 0.  1.
         13    1    6    6    0    0  0.83001754389E+02  0.14332474238E+02 -0.44519840015E+02  0.95271859457E+02  0.00000000000E+00 0. -1.
        -14    1    6    6    0    0  0.11228485598E+03  0.12180158335E+03 -0.37340496103E+02  0.16981704048E+03  0.00000000000E+00 0.  1.
</event>
<event>
12    1  0.9966151E-001  0.1761603E+03  0.7818608E-02  0.1171818E+00
         21   -1    0    0  503  502  0.00000000000E+00  0.00000000000E+00  0.28481326128E+03  0.28481326128E+03  0.00000000000E+00 0.  1.
         21   -1    0    0  501  503 -0.00000000000E+00 -0.00000000000E+00 -0.12851241072E+03  0.12851241072E+03  0.00000000000E+00 0. -1.
          6    2    1    2  501    0  0.23406931626E+02  0.32159596748E+02  0.16019519160E+03  0.23810704816E+03  0.17161102197E+03 0.  0.
         24    2    3    3    0    0 -0.57293348618E+02  0.13364662551E+02  0.75796705247E+02  0.11973906566E+03  0.71632124896E+02 0.  0.
         -6    2    1    2    0  502 -0.23406931626E+02 -0.32159596748E+02 -0.38943410356E+01  0.17521862384E+03  0.17059975421E+03 0.  0.
        -24    2    5    5    0    0 -0.71800641815E+02  0.70085168204E+01 -0.24125788934E+02  0.10958712385E+03  0.78884932333E+02 0.  0.
          5    1    3    3  501    0  0.80700280244E+02  0.18794934197E+02  0.84398486355E+02  0.11836798250E+03  0.47000000000E+01 0. -1.
        -11    1    4    4    0    0 -0.40913498840E+02  0.42670675711E+02  0.48981952123E+02  0.76771951823E+02  0.00000000000E+00 0.  1.
         12    1    4    4    0    0 -0.16379849778E+02 -0.29306013160E+02  0.26814753124E+02  0.42967113834E+02  0.00000000000E+00 0. -1.
         -5    1    5    5    0  502  0.48393710189E+02 -0.39168113568E+02  0.20231447898E+02  0.65631499986E+02  0.47000000000E+01 0.  1.
         13    1    6    6    0    0 -0.48603951461E+02 -0.34245313615E+02 -0.15939394244E+02  0.61556071115E+02  0.00000000000E+00 0. -1.
        -14    1    6    6    0    0 -0.23196690354E+02  0.41253830435E+02 -0.81863946904E+01  0.48031052736E+02  0.00000000000E+00 0.  1.
</event>
<event>
12    1  0.9966151E-001  0.2552999E+03  0.7818608E-02  0.1110060E+00
         21   -1    0    0  503  502  0.00000000000E+00  0.00000000000E+00  0.44717802539E+03  0.44717802539E+03  0.00000000000E+00 0. -1.
         21   -1    0    0  501  503 -0.00000000000E+00 -0.00000000000E+00 -0.35249038011E+03  0.35249038011E+03  0.00000000000E+00 0. -1.
          6    2    1    2  501    0 -0.18809952510E+03 -0.26834988627E+01  0.35369821973E+03  0.43598651961E+03  0.17202669017E+03 0.  0.
         24    2    3    3    0    0 -0.19779554764E+03 -0.20251941379E+02  0.24614939086E+03  0.32648079548E+03  0.80417457067E+02 0.  0.
         -6    2    1    2    0  502  0.18809952510E+03  0.26834988627E+01 -0.25901057446E+03  0.36368188589E+03  0.17259607161E+03 0.  0.
        -24    2    5    5    0    0  0.64584388455E+02  0.18577010931E+02 -0.20081212577E+03  0.22614010265E+03  0.79357341211E+02 0.  0.
          5    1    3    3  501    0  0.96960225384E+01  0.17568442516E+02  0.10754882887E+03  0.10950572413E+03  0.47000000000E+01 0. -1.
        -13    1    4    4    0    0 -0.31972656010E+02 -0.18073257326E+02  0.95937827506E+02  0.10272760150E+03  0.00000000000E+00 0.  1.
         14    1    4    4    0    0 -0.16582289163E+03 -0.21786840532E+01  0.15021156335E+03  0.22375319398E+03  0.00000000000E+00 0. -1.
         -5    1    5    5    0  502  0.12351513665E+03 -0.15893512068E+02 -0.58198448689E+02  0.13754178324E+03  0.47000000000E+01 0.  1.
         11    1    6    6    0    0  0.73501122459E+01  0.19382709589E+02 -0.39206721211E+01  0.21097043654E+02  0.00000000000E+00 0. -1.
        -12    1    6    6    0    0  0.57234276209E+02 -0.80569865878E+00 -0.19689145365E+03  0.20504305900E+03  0.00000000000E+00 0.  1.
</event>
<event>
12    1  0.9966151E-001  0.2225555E+03  0.7818608E-02  0.1133710E+00
         21   -1    0    0  501  502  0.00000000000E+00  0.00000000000E+00  0.67061525293E+03  0.67061525293E+03  0.00000000000E+00 0.  1.
         21   -1    0    0  502  503 -0.00000000000E+00 -0.00000000000E+00 -0.71807926818E+02  0.71807926818E+02  0.00000000000E+00 0.  1.
         -6    2    1    2    0  503 -0.11231745654E+03 -0.86533239928E+02  0.25043392153E+03  0.32902870961E+03  0.15949774305E+03 0.  0.
        -24    2    3    3    0    0 -0.44503808435E+02  0.71307272904E+01  0.73600139821E+02  0.11769034116E+03  0.80016245752E+02 0.  0.
          6    2    1    2  501    0  0.11231745654E+03  0.86533239928E+02  0.34837340458E+03  0.41339447013E+03  0.17154517266E+03 0.  0.
         24    2    5    5    0    0  0.33699761703E+02  0.23546626713E+02  0.67256544919E+02  0.11473607971E+03  0.83371503430E+02 0.  0.
          5    1    5    5  501    0  0.78617694839E+02  0.62986613216E+02  0.28111685966E+03  0.29865839042E+03  0.47000000000E+01 0. -1.
        -13    1    6    6    0    0  0.39518403191E+02 -0.21528562841E+02  0.46699886244E+02  0.64854163968E+02  0.00000000000E+00 0.  1.
         14    1    6    6    0    0 -0.58186414879E+01  0.45075189554E+02  0.20556658675E+02  0.49881915741E+02  0.00000000000E+00 0. -1.
         -5    1    3    3    0  503 -0.67813648107E+02 -0.93663967219E+02  0.17683378171E+03  0.21133836845E+03  0.47000000000E+01 0.  1.
         13    1    4    4    0    0 -0.26627435474E+02  0.10718763642E+02  0.89193773282E+02  0.93698673450E+02  0.00000000000E+00 0. -1.
        -14    1    4    4    0    0 -0.17876372961E+02 -0.35880363516E+01 -0.15593633461E+02  0.23991667712E+02  0.00000000000E+00 0.  1.
</event>
<event>
12    1  0.9966151E-001  0.2230309E+03  0.7818608E-02  0.1131942E+00
         21   -1    0    0  503  502  0.00000000000E+00  0.00000000000E+00  0.46981336308E+02  0.46981336308E+02  0.00000000000E+00 0.  1.
         21   -1    0    0  501  503 -0.00000000000E+00 -0.00000000000E+00 -0.10576185635E+04  0.10576185635E+04  0.00000000000E+00 0.  1.
          6    2    1    2  501    0  0.12701765475E+03  0.63352627329E+02 -0.54691684477E+03  0.59003271319E+03  0.16992212198E+03 0.  0.
         24    2    3    3    0    0  0.29463621343E+02 -0.15788849951E+02 -0.31100798957E+03  0.32272158207E+03  0.79409427608E+02 0.  0.
         -6    2    1    2    0  502 -0.12701765475E+03 -0.63352627329E+02 -0.46372038245E+03  0.51456718665E+03  0.17203417237E+03 0.  0.
        -24    2    5    5    0    0 -0.10172046463E+03 -0.25781801995E+01 -0.16832103451E+03  0.21188526447E+03  0.78801616101E+02 0.  0.
          5    1    3    3  501    0  0.97554033406E+02  0.79141477280E+02 -0.23590885520E+03  0.26731113112E+03  0.47000000000E+01 0. -1.
        -11    1    4    4    0    0  0.24713488596E+02  0.64043628369E+01 -0.29200988350E+03  0.29312376983E+03  0.00000000000E+00 0.  1.
         12    1    4    4    0    0  0.47501327476E+01 -0.22193212788E+02 -0.18998106078E+02  0.29597812242E+02  0.00000000000E+00 0. -1.
         -5    1    5    5    0  502 -0.25297190118E+02 -0.60774447130E+02 -0.29539934794E+03  0.30268192218E+03  0.47000000000E+01 0.  1.
         11    1    6    6    0    0 -0.42743065992E+02 -0.39865190342E+02 -0.67723744112E+02  0.89457859397E+02  0.00000000000E+00 0. -1.
        -12    1    6    6    0    0 -0.58977398639E+02  0.37287010143E+02 -0.10059729040E+03  0.12242740507E+03  0.00000000000E+00 0.  1.
</event>
<event>
12    1  0.9966151E-001  0.2203536E+03  0.7818608E-02  0.1133771E+00
         21   -1    0    0  501  502  0.00000000000E+00  0.00000000000E+00  0.45094579785E+02  0.45094579785E+02  0.00000000000E+00 0. -1.
         21   -1    0    0  502  503 -0.00000000000E+00 -0.00000000000E+00 -0.12592391526E+04  0.12592391526E+04  0.00000000000E+00 0. -1.
         -6    2    1    2    0  503  0.10573627769E+03  0.85795859749E+02 -0.85706099336E+03  0.88473344462E+03  0.17221681602E+03 0.  0.
        -24    2    3    3    0    0  0.11381733350E+03  0.12005807978E+03 -0.73188656707E+03  0.75461837946E+03  0.80141273009E+02 0.  0.
          6    2    1    2  501    0 -0.10573627769E+03 -0.85795859749E+02 -0.35708357948E+03  0.41960028779E+03  0.17324730534E+03 0.  0.
         24    2    5    5    0    0 -0.38105463465E+02 -0.71534395714E+02 -0.32322626399E+03  0.34249176555E+03  0.79096116362E+02 0.  0.
          5    1    5    5  501    0 -0.67630814227E+02 -0.14261464035E+02 -0.33857315494E+02  0.77108522240E+02  0.47000000000E+01 0. -1.
        -11    1    6    6    0    0 -0.38772994504E+02 -0.80794837939E+02 -0.20292316283E+03  0.22183092876E+03  0.00000000000E+00 0.  1.
         12    1    6    6    0    0  0.66753103886E+00  0.92604422257E+01 -0.12030310115E+03  0.12066083679E+03  0.00000000000E+00 0. -1.
         -5    1    3    3    0  503 -0.80810558073E+01 -0.34262220027E+02 -0.12517442630E+03  0.13011506516E+03  0.47000000000E+01 0.  1.
         11    1    4    4    0    0 -0.38908023417E+01  0.44493217046E+01 -0.14118213070E+03  0.14130579902E+03  0.00000000000E+00 0. -1.
        -12    1    4    4    0    0  0.11770813584E+03  0.11560875807E+03 -0.59070443637E+03  0.61331258044E+03  0.00000000000E+00 0.  1.
</event>
<event>
12    1  0.9966151E-001  0.5078225E+03  0.7818608E-02  0.1011770E+00
         21   -1    0    0  503  502  0.00000000000E+00  0.00000000000E+00  0.56778008728E+03  0.56778008728E+03  0.00000000000E+00 0. -1.
         21   -1    0    0  501  503 -0.00000000000E+00 -0.00000000000E+00 -0.45446462690E+03  0.45446462690E+03  0.00000000000E+00 0. -1.
          6    2    1    2  501    0  0.45787805744E+03  0.13566439794E+03  0.72779208634E+02  0.51301121316E+03  0.17270364000E+03 0.  0.
         24    2    3    3    0    0  0.39955575109E+03  0.16863109620E+03  0.54314812727E+02  0.44335980594E+03  0.74408156881E+02 0.  0.
         -6    2    1    2    0  502 -0.45787805744E+03 -0.13566439794E+03  0.40536251749E+02  0.50923350101E+03  0.17210004792E+03 0.  0.
        -24    2    5    5    0    0 -0.27952151873E+03 -0.91226214126E+02  0.92712392496E+02  0.31810462631E+03  0.78361112691E+02 0.  0.
          5    1    3    3  501    0  0.58322306347E+02 -0.32966698253E+02  0.18464395907E+02  0.69651407219E+02  0.47000000000E+01 0. -1.
        -13    1    4    4    0    0  0.12622901168E+03  0.28513532196E+02  0.41662124235E+02  0.13595042296E+03  0.00000000000E+00 0.  1.
         14    1    4    4    0    0  0.27332673941E+03  0.14011756400E+03  0.12652688492E+02  0.30740938298E+03  0.00000000000E+00 0. -1.
         -5    1    5    5    0  502 -0.17835653871E+03 -0.44438183817E+02 -0.52176140747E+02  0.19112887470E+03  0.47000000000E+01 0.  1.
         11    1    6    6    0    0 -0.16921727143E+03 -0.78154893919E+02  0.90026206988E+02  0.20699611189E+03  0.00000000000E+00 0. -1.
        -12    1    6    6    0    0 -0.11030424730E+03 -0.13071320207E+02  0.26861855082E+01  0.11110851442E+03  0.00000000000E+00 0.  1.
</event>
<event>
12    1  0.9966151E-001  0.2037452E+03  0.7818608E-02  0.1148102E+00
         21   -1    0    0  501  502  0.00000000000E+00  0.00000000000E+00  0.11053621070E+04  0.11053621070E+04  0.00000000000E+00 0.  1.
         21   -1    0    0  502  503 -0.00000000000E+00 -0.00000000000E+00 -0.40395248602E+02  0.40395248602E+02  0.00000000000E+00 0.  1.
         -6    2    1    2    0  503 -0.10207294636E+02 -0.10107219001E+03  0.72414868363E+03  0.75226552962E+03  0.17661351755E+03 0.  0.
        -24    2    3    3    0    0  0.18240525007E+02 -0.12056199114E+03  0.36481703389E+03  0.39125243387E+03  0.71547804529E+02 0.  0.
          6    2    1    2  501    0  0.10207294636E+02  0.10107219001E+03  0.34081817476E+03  0.39349182598E+03  0.16840134326E+03 0.  0.
         24    2    5    5    0    0 -0.22438777254E+02  0.10717347066E+03  0.16033579397E+03  0.20991903004E+03  0.79804641513E+02 0.  0.
          5    1    5    5  501    0  0.32646071889E+02 -0.61012806491E+01  0.18048238079E+03  0.18357279594E+03  0.47000000000E+01 0. -1.
        -11    1    6    6    0    0  0.27723499171E+02  0.18750941845E+02  0.46571713492E+02  0.57350804039E+02  0.00000000000E+00 0.  1.
         12    1    6    6    0    0 -0.50162276425E+02  0.88422528811E+02  0.11376408048E+03  0.15256822600E+03  0.00000000000E+00 0. -1.
         -5    1    3    3    0  503 -0.28447819642E+02  0.19489801137E+02  0.35933164974E+03  0.36101309574E+03  0.47000000000E+01 0.  1.
         13    1    4    4    0    0  0.35071742879E+02 -0.74398445617E+02  0.29233299276E+03  0.30368360923E+03  0.00000000000E+00 0. -1.
        -14    1    4    4    0    0 -0.16831217873E+02 -0.46163545527E+02  0.72484041135E+02  0.87568824647E+02  0.00000000000E+00 0.  1.
</event>
<event>
12    1  0.9966151E-001  0.2337690E+03  0.7818608E-02  0.1124390E+00
         21   -1    0    0  501  502  0.00000000000E+00  0.00000000000E+00  0.25633409981E+03  0.25633409981E+03  0.00000000000E+00 0. -1.
         21   -1    0    0  502  503 -0.00000000000E+00 -0.00000000000E+00 -0.21314923534E+03  0.21314923534E+03  0.00000000000E+00 0. -1.
         -6    2    1    2    0  503  0.13451948966E+03  0.83897970707E+02 -0.85446416209E+00  0.23160229986E+03  0.16883285404E+03 0.  0.
        -24    2    3    3    0    0  0.50810331188E+00  0.56275663475E+02  0.70466299269E+01  0.94465285099E+02  0.75543541267E+02 0.  0.
          6    2    1    2  501    0 -0.13451948966E+03 -0.83897970707E+02  0.44039328634E+02  0.23788103529E+03  0.17179511604E+03 0.  0.
         24    2    5    5    0    0 -0.24362180775E+02 -0.61875686993E+02  0.66769481938E+02  0.12317112486E+03  0.79314852251E+02 0.  0.
          5    1    5    5  501    0 -0.11015730889E+03 -0.22022283714E+02 -0.22730153304E+02  0.11470991043E+03  0.47000000000E+01 0. -1.
        -13    1    6    6    0    0 -0.46682559191E+01 -0.37858692982E+02 -0.10774818611E+02  0.39637986373E+02  0.00000000000E+00 0.  1.
         14    1    6    6    0    0 -0.19693924856E+02 -0.24016994012E+02  0.77544300549E+02  0.83533138485E+02  0.00000000000E+00 0. -1.
         -5    1    3    3    0  503  0.13401138635E+03  0.27622307232E+02 -0.79010940890E+01  0.13713701476E+03  0.47000000000E+01 0.  1.
         11    1    4    4    0    0  0.10371762683E+02  0.53999457710E+02  0.34698166963E+02  0.65019056320E+02  0.00000000000E+00 0. -1.
        -12    1    4    4    0    0 -0.98636593708E+01  0.22762057648E+01 -0.27651537036E+02  0.29446228780E+02  0.00000000000E+00 0.  1.
</event>
<event>
12    1  0.9966151E-001  0.2139833E+03  0.7818608E-02  0.1138602E+00
         21   -1    0    0  503  502  0.00000000000E+00  0.00000000000E+00  0.71688807576E+03  0.71688807576E+03  0.00000000000E+00 0.  1.
         21   -1    0    0  501  503 -0.00000000000E+00 -0.00000000000E+00 -0.69085759828E+02  0.69085759828E+02  0.00000000000E+00 0.  1.
          6    2    1    2  501    0  0.37220948981E+02  0.12438340707E+03  0.43371040221E+03  0.48327894714E+03  0.16910705710E+03 0.  0.
         24    2    3    3    0    0  0.65124132438E+02  0.28060577200E+02  0.16725945083E+03  0.19854244668E+03  0.80092637755E+02 0.  0.
         -6    2    1    2    0  502 -0.37220948981E+02 -0.12438340707E+03  0.21409191372E+03  0.30269488845E+03  0.17009472942E+03 0.  0.
        -24    2    5    5    0    0  0.12918483481E+02 -0.13901191305E+03  0.15563092585E+03  0.22415997279E+03  0.80842495857E+02 0.  0.
          5    1    3    3  501    0 -0.27903183456E+02  0.96322829870E+02  0.26645095138E+03  0.28473650046E+03  0.47000000000E+01 0. -1.
        -13    1    4    4    0    0  0.43238595981E+02  0.56811052723E+01  0.19972756133E+02  0.47966260299E+02  0.00000000000E+00 0.  1.
         14    1    4    4    0    0  0.21885536457E+02  0.22379471928E+02  0.14728669470E+03  0.15057618638E+03  0.00000000000E+00 0. -1.
         -5    1    5    5    0  502 -0.50139432462E+02  0.14628505980E+02  0.58460987873E+02  0.78534915661E+02  0.47000000000E+01 0.  1.
         13    1    6    6    0    0 -0.19867602121E+02 -0.12328813224E+03  0.11739884711E+03  0.17139770847E+03  0.00000000000E+00 0. -1.
        -14    1    6    6    0    0  0.32786085601E+02 -0.15723780811E+02  0.38232078736E+02  0.52762264323E+02  0.00000000000E+00 0.  1.
</event>
<event>
12    1  0.9966151E-001  0.1815334E+03  0.7818608E-02  0.1167017E+00
         21   -1    0    0  503  502  0.00000000000E+00  0.00000000000E+00  0.13443933159E+03  0.13443933159E+03  0.00000000000E+00 0. -1.
         21   -1    0    0  501  503 -0.00000000000E+00 -0.00000000000E+00 -0.24981262737E+03  0.24981262737E+03  0.00000000000E+00 0. -1.
          6    2    1    2  501    0  0.32178812708E+02 -0.48005590321E+02 -0.22620871772E+02  0.18293733879E+03  0.17208821399E+03 0.  0.
         24    2    3    3    0    0 -0.26159574909E+02  0.24324166459E+02 -0.22438549849E+02  0.89893884280E+02  0.79381568883E+02 0.  0.
         -6    2    1    2    0  502 -0.32178812708E+02  0.48005590321E+02 -0.92752424015E+02  0.20131462017E+03  0.16906966447E+03 0.  0.
        -24    2    5    5    0    0 -0.43275380823E+02  0.93168416716E+02 -0.80186702879E+02  0.15291211962E+03  0.79994353236E+02 0.  0.
          5    1    3    3  501    0  0.58338387617E+02 -0.72329756779E+02 -0.18232192324E+00  0.93043454508E+02  0.47000000000E+01 0. -1.
        -11    1    4    4    0    0 -0.11359916469E+01  0.83790011824E+01 -0.49209089847E+02  0.49930278002E+02  0.00000000000E+00 0.  1.
         12    1    4    4    0    0 -0.25023583262E+02  0.15945165277E+02  0.26770539998E+02  0.39963606278E+02  0.00000000000E+00 0. -1.
         -5    1    5    5    0  502  0.11096568115E+02 -0.45162826396E+02 -0.12565721136E+02  0.48402500552E+02  0.47000000000E+01 0.  1.
         11    1    6    6    0    0 -0.43237767757E+02  0.22936684737E+02 -0.64468283209E+02  0.80942915732E+02  0.00000000000E+00 0. -1.
        -12    1    6    6    0    0 -0.37613066404E-01  0.70231731979E+02 -0.15718419670E+02  0.71969203889E+02  0.00000000000E+00 0.  1.
</event>
<event>
12    1  0.9966151E-001  0.3227057E+03  0.7818608E-02  0.1074465E+00
         21   -1    0    0  503  502  0.00000000000E+00  0.00000000000E+00  0.27988420610E+03  0.27988420610E+03  0.00000000000E+00 0. -1.
         21   -1    0    0  501  503 -0.00000000000E+00 -0.00000000000E+00 -0.38195475594E+03  0.38195475594E+03  0.00000000000E+00 0. -1.
          6    2    1    2  501    0  0.17894197210E+03  0.20392134876E+03 -0.10574400105E+03  0.33958909746E+03  0.17474214001E+03 0.  0.
         24    2    3    3    0    0  0.14111473085E+03  0.93363781961E+02 -0.11855103416E+03  0.22194562822E+03  0.81088538901E+02 0.  0.
         -6    2    1    2    0  502 -0.17894197210E+03 -0.20392134876E+03  0.36734512135E+01  0.32224986458E+03  0.17386010215E+03 0.  0.
        -24    2    5    5    0    0 -0.74193418596E+02 -0.15246086289E+03  0.54238469352E+02  0.19497318908E+03  0.79522039874E+02 0.  0.
          5    1    3    3  501    0  0.37827241250E+02  0.11055756680E+03  0.12807033110E+02  0.11764346924E+03  0.47000000000E+01 0. -1.
        -11    1    4    4    0    0  0.14130745084E+03  0.62002228161E+02 -0.85634384589E+02  0.17648036657E+03  0.00000000000E+00 0.  1.
         12    1    4    4    0    0 -0.19271999762E+00  0.31361553800E+02 -0.32916649573E+02  0.45465261649E+02  0.00000000000E+00 0. -1.
         -5    1    5    5    0  502 -0.10474855350E+03 -0.51460485870E+02 -0.50565018138E+02  0.12727667550E+03  0.47000000000E+01 0.  1.
         13    1    6    6    0    0 -0.55538516728E+02 -0.12928457213E+03  0.92183753423E+01  0.14101065873E+03  0.00000000000E+00 0. -1.
        -14    1    6    6    0    0 -0.18654901868E+02 -0.23176290761E+02  0.45020094010E+02  0.53962530350E+02  0.00000000000E+00 0.  1.
</event>
<event>
12    1  0.9966151E-001  0.1938897E+03  0.7818608E-02  0.1155535E+00
         21   -1    0    0  503  502  0.00000000000E+00  0.00000000000E+00  0.21516470656E+03  0.21516470656E+03  0.00000000000E+00 0. -1.
         21   -1    0    0  501  503 -0.00000000000E+00 -0.00000000000E+00 -0.48507059968E+03  0.48507059968E+03  0.00000000000E+00 0.  1.
          6    2    1    2  501    0  0.58520364699E+02  0.65624879448E+02  0.14638077538E+03  0.24101006998E+03  0.17008017093E+03 0.  0.
         24    2    3    3    0    0  0.93095914166E+02  0.81710619343E+02  0.90596502107E+02  0.17327385519E+03  0.80452645394E+02 0.  0.
         -6    2    1    2    0  502 -0.58520364699E+02 -0.65624879448E+02 -0.41628666849E+03  0.45922523627E+03  0.17280616128E+03 0.  0.
        -24    2    5    5    0    0 -0.55036832320E+02  0.16865779809E+01 -0.35511017242E+03  0.36807908456E+03  0.79668566452E+02 0.  0.
          5    1    3    3  501    0 -0.34575549467E+02 -0.16085739896E+02  0.55784273270E+02  0.67736214784E+02  0.47000000000E+01 0. -1.
        -11    1    4    4    0    0  0.67044714800E+02  0.14463060433E+02  0.17921995375E+02  0.70889856946E+02  0.00000000000E+00 0.  1.
         12    1    4    4    0    0  0.26051199366E+02  0.67247558911E+02  0.72674506732E+02  0.10238399824E+03  0.00000000000E+00 0. -1.
         -5    1    5    5    0  502 -0.34835323787E+01 -0.67311457429E+02 -0.61176496072E+02  0.91146151705E+02  0.47000000000E+01 0.  1.
         11    1    6    6    0    0 -0.55751436280E+02  0.23271764435E+02 -0.14814032798E+03  0.15998548197E+03  0.00000000000E+00 0. -1.
        -12    1    6    6    0    0  0.71460395992E+00 -0.21585186454E+02 -0.20696984444E+03  0.20809360259E+03  0.00000000000E+00 0.  1.
</event>
<event>
12    1  0.9966151E-001  0.1885152E+03  0.7818608E-02  0.1160380E+00
         21   -1    0    0  501  502  0.00000000000E+00  0.00000000000E+00  0.36303690764E+03  0.36303690764E+03  0.00000000000E+00 0. -1.
         21   -1    0    0  502  503 -0.00000000000E+00 -0.00000000000E+00 -0.11575477984E+03  0.11575477984E+03  0.00000000000E+00 0. -1.
         -6    2    1    2    0  503 -0.75262649283E+02 -0.19805233634E+02  0.22171014661E+03  0.29102122675E+03  0.17170105314E+03 0.  0.
        -24    2    3    3    0    0 -0.14175780372E+01 -0.63346609407E+02  0.11347169488E+03  0.15286697098E+03  0.80484053254E+02 0.  0.
          6    2    1    2  501    0  0.75262649283E+02  0.19805233634E+02  0.25571981187E+02  0.18777046074E+03  0.16895888863E+03 0.  0.
         24    2    5    5    0    0  0.80933774226E+02  0.39326245473E+02  0.69748296487E+02  0.13891487360E+03  0.79597034181E+02 0.  0.
          5    1    5    5  501    0 -0.56711249429E+01 -0.19521011840E+02 -0.44176315300E+02  0.48855587140E+02  0.47000000000E+01 0. -1.
        -13    1    6    6    0    0  0.27112847533E+02  0.46172276631E+02  0.40312187137E+01  0.53695775951E+02  0.00000000000E+00 0.  1.
         14    1    6    6    0    0  0.53820926693E+02 -0.68460311577E+01  0.65717077773E+02  0.85219097647E+02  0.00000000000E+00 0. -1.
         -5    1    3    3    0  503 -0.73845071246E+02  0.43541375773E+02  0.10823845174E+03  0.13815425577E+03  0.47000000000E+01 0.  1.
         13    1    4    4    0    0 -0.17018082463E+02 -0.38086683383E+02  0.69569332615E+01  0.42291955526E+02  0.00000000000E+00 0. -1.
        -14    1    4    4    0    0  0.15600504426E+02 -0.25259926024E+02  0.10651476161E+03  0.11057501546E+03  0.00000000000E+00 0.  1.
</event>
<event>
12    1  0.9966151E-001  0.5240541E+03  0.7818608E-02  0.1007698E+00
         21   -1    0    0  501  502  0.00000000000E+00  0.00000000000E+00  0.71753257655E+03  0.71753257655E+03  0.00000000000E+00 0.  1.
         21   -1    0    0  502  503 -0.00000000000E+00 -0.00000000000E+00 -0.55126960052E+03  0.55126960052E+03  0.00000000000E+00 0.  1.
         -6    2    1    2    0  503  0.29483164930E+03  0.39792192142E+03  0.43407929720E+03  0.68048330972E+03  0.17136260262E+03 0.  0.
        -24    2    3    3    0    0  0.55630123438E+02  0.15243437891E+03  0.16775343065E+03  0.24639453920E+03  0.78981674732E+02 0.  0.
          6    2    1    2  501    0 -0.29483164930E+03 -0.39792192142E+03 -0.26781632118E+03  0.58831886735E+03  0.17066326734E+03 0.  0.
         24    2    5    5    0    0 -0.20198787377E+03 -0.34844082830E+03 -0.16910874410E+03  0.44398030354E+03  0.79439477740E+02 0.  0.
          5    1    5    5  501    0 -0.92843775532E+02 -0.49481093115E+02 -0.98707577075E+02  0.14433856381E+03  0.47000000000E+01 0. -1.
        -13    1    6    6    0    0  0.24517632890E+01 -0.72356599357E+01  0.56664145690E+01  0.95117912087E+01  0.00000000000E+00 0.  1.
         14    1    6    6    0    0 -0.20443963706E+03 -0.34120516836E+03 -0.17477515867E+03  0.43446851233E+03  0.00000000000E+00 0. -1.
         -5    1    3    3    0  503  0.23920152586E+03  0.24548754251E+03  0.26632586655E+03  0.43408877052E+03  0.47000000000E+01 0.  1.
         11    1    4    4    0    0  0.53440387677E+02  0.14227422607E+03  0.17642430741E+03  0.23285911337E+03  0.00000000000E+00 0. -1.
        -12    1    4    4    0    0  0.21897357618E+01  0.10160152842E+02 -0.86708767549E+01  0.13535425822E+02  0.00000000000E+00 0.  1.
</event>
<event>
12    1  0.9966151E-001  0.2406548E+03  0.7818608E-02  0.1120892E+00
         21   -1    0    0  503  502  0.00000000000E+00  0.00000000000E+00  0.32765999379E+03  0.32765999379E+03  0.00000000000E+00 0.  1.
         21   -1    0    0  501  503 -0.00000000000E+00 -0.00000000000E+00 -0.20911978872E+03  0.20911978872E+03  0.00000000000E+00 0.  1.
          6    2    1    2  501    0  0.14394767671E+03  0.84781410734E+02  0.17417212769E+03  0.28977848066E+03  0.16039581215E+03 0.  0.
         24    2    3    3    0    0  0.11515392876E+02  0.48130927161E+02  0.63314670466E+02  0.11316298426E+03  0.79673854484E+02 0.  0.
         -6    2    1    2    0  502 -0.14394767671E+03 -0.84781410734E+02 -0.55631922625E+02  0.24700130185E+03  0.17322214369E+03 0.  0.
        -24    2    5    5    0    0 -0.16988893087E+03 -0.84294168069E+02 -0.26532168674E+02  0.20773208040E+03  0.80504072255E+02 0.  0.
          5    1    3    3  501    0  0.13243228383E+03  0.36650483573E+02  0.11085745722E+03  0.17661549640E+03  0.47000000000E+01 0. -1.
        -11    1    4    4    0    0 -0.26157546278E+02 -0.68789970915E+01  0.20309867051E+02  0.33823490770E+02  0.00000000000E+00 0.  1.
         12    1    4    4    0    0  0.37672939154E+02  0.55009924253E+02  0.43004803416E+02  0.79339493492E+02  0.00000000000E+00 0. -1.
         -5    1    5    5    0  502  0.25941254168E+02 -0.48724266552E+00 -0.29099753951E+02  0.39269221449E+02  0.47000000000E+01 0.  1.
         13    1    6    6    0    0 -0.11200392152E+03 -0.10910671967E+02 -0.16289855170E+02  0.11370699442E+03  0.00000000000E+00 0. -1.
        -14    1    6    6    0    0 -0.57885009356E+02 -0.73383496102E+02 -0.10242313503E+02  0.94025085983E+02  0.00000000000E+00 0.  1.
</event>
<event>
12    1  0.9966151E-001  0.2993841E+03  0.7818608E-02  0.1085570E+00
         21   -1    0    0  501  502  0.00000000000E+00  0.00000000000E+00  0.57360871513E+03  0.57360871513E+03  0.00000000000E+00 0. -1.
         21   -1    0    0  502  503 -0.00000000000E+00 -0.00000000000E+00 -0.18255063889E+03  0.18255063889E+03  0.00000000000E+00 0. -1.
         -6    2    1    2    0  503 -0.22607676054E+03 -0.94026438444E+02  0.33930778116E+03  0.45250479100E+03  0.17227635574E+03 0.  0.
        -24    2    3    3    0    0 -0.47553414854E+02 -0.64642022341E+02  0.17316835006E+03  0.20682526514E+03  0.79683715536E+02 0.  0.
          6    2    1    2  501    0  0.22607676054E+03  0.94026438444E+02  0.51750295092E+02  0.30365456302E+03  0.17197769570E+03 0.  0.
         24    2    5    5    0    0  0.89550612635E+02  0.19545348287E+02  0.79985741600E+02  0.14552122595E+03  0.79858471568E+02 0.  0.
          5    1    5    5  501    0  0.13652614790E+03  0.74481090157E+02 -0.28235446508E+02  0.15813333706E+03  0.47000000000E+01 0. -1.
        -11    1    6    6    0    0  0.30842579107E+02  0.33898690111E+02  0.71028408251E+00  0.45835470770E+02  0.00000000000E+00 0.  1.
         12    1    6    6    0    0  0.58708033528E+02 -0.14353341824E+02  0.79275457517E+02  0.99685755185E+02  0.00000000000E+00 0. -1.
         -5    1    3    3    0  503 -0.17852334568E+03 -0.29384416103E+02  0.16613943109E+03  0.24567952586E+03  0.47000000000E+01 0.  1.
         13    1    4    4    0    0 -0.39168801548E+02 -0.35064952267E+02  0.30282021609E+02  0.60669157938E+02  0.00000000000E+00 0. -1.
        -14    1    4    4    0    0 -0.83846133066E+01 -0.29577070074E+02  0.14288632845E+03  0.14615610721E+03  0.00000000000E+00 0.  1.
</event>
<event>
12    1  0.9966151E-001  0.5111073E+03  0.7818608E-02  0.1010983E+00
         21   -1    0    0  503  502  0.00000000000E+00  0.00000000000E+00  0.14537736554E+04  0.14537736554E+04  0.00000000000E+00 0. -1.
         21   -1    0    0  501  503 -0.00000000000E+00 -0.00000000000E+00 -0.18779981311E+03  0.18779981311E+03  0.00000000000E+00 0. -1.
          6    2    1    2  501    0  0.45089570926E+03  0.16551516424E+03  0.80660384635E+03  0.95436792151E+03  0.17177355565E+03 0.  0.
         24    2    3    3    0    0  0.30641734863E+03  0.11206929070E+03  0.66544420901E+03  0.74537368401E+03  0.79465816892E+02 0.  0.
         -6    2    1    2    0  502 -0.45089570926E+03 -0.16551516424E+03  0.45936999594E+03  0.68720554700E+03  0.17472395497E+03 0.  0.
        -24    2    5    5    0    0 -0.14914453382E+03 -0.10265448873E+03  0.22793571119E+03  0.30173290912E+03  0.79410477780E+02 0.  0.
          5    1    3    3  501    0  0.14447836063E+03  0.53445873543E+02  0.14115963734E+03  0.20899423749E+03  0.47000000000E+01 0. -1.
        -11    1    4    4    0    0  0.28980772095E+03  0.10056341483E+03  0.56487612293E+03  0.64279588501E+03  0.00000000000E+00 0.  1.
         12    1    4    4    0    0  0.16609627678E+02  0.11505875870E+02  0.10056808608E+03  0.10257779900E+03  0.00000000000E+00 0. -1.
         -5    1    5    5    0  502 -0.30175117544E+03 -0.62860675515E+02  0.23143428475E+03  0.38547263789E+03  0.47000000000E+01 0.  1.
         13    1    6    6    0    0 -0.21734882482E+02  0.13076705526E+02  0.24728415320E+02  0.35424565885E+02  0.00000000000E+00 0. -1.
        -14    1    6    6    0    0 -0.12740965134E+03 -0.11573119425E+03  0.20320729587E+03  0.26630834323E+03  0.00000000000E+00 0.  1.
</event>
<event>
12    1  0.9966151E-001  0.1756597E+03  0.7818608E-02  0.1173884E+00
         21   -1    0    0  503  502  0.00000000000E+00  0.00000000000E+00  0.68179363852E+02  0.68179363852E+02  0.00000000000E+00 0. -1.
         21   -1    0    0  501  503 -0.00000000000E+00 -0.00000000000E+00 -0.49374780362E+03  0.49374780362E+03  0.00000000000E+00 0. -1.
          6    2    1    2  501    0  0.24059493373E+02  0.23281688402E+02 -0.11159142328E+03  0.20215236687E+03  0.16520301887E+03 0.  0.
         24    2    3    3    0    0 -0.74764140364E+01 -0.18594397066E+01 -0.13596597349E+03  0.15479417353E+03  0.73587607159E+02 0.  0.
         -6    2    1    2    0  502 -0.24059493373E+02 -0.23281688402E+02 -0.31397701649E+03  0.35977480061E+03  0.17243968230E+03 0.  0.
        -24    2    5    5    0    0 -0.61122797158E+02 -0.59557414276E+02 -0.17103116398E+03  0.20763925734E+03  0.81113008875E+02 0.  0.
          5    1    3    3  501    0  0.31535907410E+02  0.25141128108E+02  0.24374550211E+02  0.47358193343E+02  0.47000000000E+01 0. -1.
        -11    1    4    4    0    0 -0.29688765549E+02  0.14695089604E+02 -0.28136540276E+02  0.43463011366E+02  0.00000000000E+00 0.  1.
         12    1    4    4    0    0  0.22212351513E+02 -0.16554529311E+02 -0.10782943322E+03  0.11133116216E+03  0.00000000000E+00 0. -1.
         -5    1    5    5    0  502  0.37063303785E+02  0.36275725874E+02 -0.14294585251E+03  0.15213554326E+03  0.47000000000E+01 0.  1.
         13    1    6    6    0    0 -0.43020640689E+02 -0.59620811904E+02 -0.59313037719E+02  0.94464031148E+02  0.00000000000E+00 0. -1.
        -14    1    6    6    0    0 -0.18102156470E+02  0.63397628350E-01 -0.11171812627E+03  0.11317522620E+03  0.00000000000E+00 0.  1.
</event>
<event>
12    1  0.9966151E-001  0.2007393E+03  0.7818608E-02  0.1150592E+00
         21   -1    0    0  503  502  0.00000000000E+00  0.00000000000E+00  0.29854714517E+02  0.29854714517E+02  0.00000000000E+00 0.  1.
         21   -1    0    0  501  503 -0.00000000000E+00 -0.00000000000E+00 -0.19241117245E+04  0.19241117245E+04  0.00000000000E+00 0.  1.
          6    2    1    2  501    0 -0.89405356386E+02  0.17007267600E+02 -0.14905919726E+04  0.15031430696E+04  0.17114933241E+03 0.  0.
         24    2    3    3    0    0 -0.87111027279E+02 -0.24815441131E+02 -0.13705891529E+04  0.13759535667E+04  0.80805039797E+02 0.  0.
         -6    2    1    2    0  502  0.89405356386E+02 -0.17007267600E+02 -0.40366503741E+03  0.45082336945E+03  0.17892367958E+03 0.  0.
        -24    2    5    5    0    0  0.10146206878E+03 -0.39880948207E+02 -0.40286004377E+03  0.42453064055E+03  0.77749652529E+02 0.  0.
          5    1    3    3  501    0 -0.22943291064E+01  0.41822708730E+02 -0.12000281968E+03  0.12718950288E+03  0.47000000000E+01 0. -1.
        -13    1    4    4    0    0 -0.27536577833E+02 -0.87290654020E+01 -0.98781243374E+03  0.98823472108E+03  0.00000000000E+00 0.  1.
         14    1    4    4    0    0 -0.59574449446E+02 -0.16086375729E+02 -0.38277671916E+03  0.38771884561E+03  0.00000000000E+00 0. -1.
         -5    1    5    5    0  502 -0.12056712395E+02  0.22873680608E+02 -0.80499364165E+00  0.26292728902E+02  0.47000000000E+01 0.  1.
         11    1    6    6    0    0 -0.45702932221E+01 -0.26553727173E+02 -0.74962007350E+02  0.79657332072E+02  0.00000000000E+00 0. -1.
        -12    1    6    6    0    0  0.10603236200E+03 -0.13327221034E+02 -0.32789803642E+03  0.34487330848E+03  0.00000000000E+00 0.  1.
</event>
<event>
12    1  0.9966151E-001  0.4063236E+03  0.7818608E-02  0.1041633E+00
         21   -1    0    0  501  502  0.00000000000E+00  0.00000000000E+00  0.15529057588E+04  0.15529057588E+04  0.00000000000E+00 0.  1.
         21   -1    0    0  502  503 -0.00000000000E+00 -0.00000000000E+00 -0.10644021574E+03  0.10644021574E+03  0.00000000000E+00 0.  1.
         -6    2    1    2    0  503 -0.59876457482E+01  0.36806560137E+03  0.75815154839E+03  0.86004939396E+03  0.17141485032E+03 0.  0.
        -24    2    3    3    0    0  0.50452794660E+02  0.23959521262E+03  0.56728349201E+03  0.62310452897E+03  0.80606099736E+02 0.  0.
          6    2    1    2  501    0  0.59876457482E+01 -0.36806560137E+03  0.68831399468E+03  0.79929658060E+03  0.17201956190E+03 0.  0.
         24    2    5    5    0    0  0.10730862460E+02 -0.93394542507E+02  0.14524467393E+03  0.19068088427E+03  0.80159168793E+02 0.  0.
          5    1    5    5  501    0 -0.47432167118E+01 -0.27467105886E+03  0.54306932074E+03  0.60861569632E+03  0.47000000000E+01 0. -1.
        -11    1    6    6    0    0  0.30382265444E+01 -0.34846442323E+01  0.78014833394E+02  0.78151697329E+02  0.00000000000E+00 0.  1.
         12    1    6    6    0    0  0.76926359155E+01 -0.89909898275E+02  0.67229840539E+02  0.11252918694E+03  0.00000000000E+00 0. -1.
         -5    1    3    3    0  503 -0.56440440409E+02  0.12847038875E+03  0.19086805638E+03  0.23694486499E+03  0.47000000000E+01 0.  1.
         13    1    4    4    0    0 -0.82877677663E+01  0.13904848640E+03  0.26968246643E+03  0.30353220812E+03  0.00000000000E+00 0. -1.
        -14    1    4    4    0    0  0.58740562427E+02  0.10054672621E+03  0.29760102558E+03  0.31957232085E+03  0.00000000000E+00 0.  1.
</event>
<event>
12    1  0.9966151E-001  0.1835059E+03  0.7818608E-02  0.1164998E+00
         21   -1    0    0  503  502  0.00000000000E+00  0.00000000000E+00  0.44333429288E+03  0.44333429288E+03  0.00000000000E+00 0. -1.
         21   -1    0    0  501  503 -0.00000000000E+00 -0.00000000000E+00 -0.98987600871E+02  0.98987600871E+02  0.00000000000E+00 0. -1.
          6    2    1    2  501    0  0.75901172790E+01 -0.59442065173E+02  0.30644822322E+03  0.35719031143E+03  0.17344577272E+03 0.  0.
         24    2    3    3    0    0  0.55721064379E+02  0.11003190871E+02  0.16064264884E+03  0.18819185674E+03  0.79901233363E+02 0.  0.
         -6    2    1    2    0  502 -0.75901172790E+01  0.59442065173E+02  0.37898468785E+02  0.18513158231E+03  0.17101590523E+03 0.  0.
        -24    2    5    5    0    0  0.36094577490E+02  0.91139659346E+02  0.30550086226E+02  0.13045819976E+03  0.80478432433E+02 0.  0.
          5    1    3    3  501    0 -0.48130947100E+02 -0.70445256044E+02  0.14580557438E+03  0.16899845469E+03  0.47000000000E+01 0. -1.
        -11    1    4    4    0    0  0.24877304219E+02  0.43742619979E+02  0.10659185018E+03  0.11787332010E+03  0.00000000000E+00 0.  1.
         12    1    4    4    0    0  0.30843760160E+02 -0.32739429108E+02  0.54050798665E+02  0.70318536642E+02  0.00000000000E+00 0. -1.
         -5    1    5    5    0  502 -0.43684694769E+02 -0.31697594173E+02  0.73483825594E+01  0.54673382552E+02  0.47000000000E+01 0.  1.
         11    1    6    6    0    0  0.46466090477E+02  0.20767926409E+02 -0.46223998063E+01  0.51105488076E+02  0.00000000000E+00 0. -1.
        -12    1    6    6    0    0 -0.10371512987E+02  0.70371732937E+02  0.35172486032E+02  0.79352711685E+02  0.00000000000E+00 0.  1.
</event>
<event>
12    1  0.9966151E-001  0.2006118E+03  0.7818608E-02  0.1150602E+00
         21   -1    0    0  501  502  0.00000000000E+00  0.00000000000E+00  0.65883647915E+02  0.65883647915E+02  0.00000000000E+00 0.  1.
         21   -1    0    0  502  503 -0.00000000000E+00 -0.00000000000E+00 -0.59193739106E+03  0.59193739106E+03  0.00000000000E+00 0.  1.
         -6    2    1    2    0  503  0.22254894605E+02  0.99870436077E+02 -0.24860544608E+03  0.31544309440E+03  0.16501604058E+03 0.  0.
        -24    2    3    3    0    0 -0.46277384276E+02  0.73203602042E+02 -0.13910984905E+03  0.18346139471E+03  0.82499512708E+02 0.  0.
          6    2    1    2  501    0 -0.22254894605E+02 -0.99870436077E+02 -0.27744829707E+03  0.34237794458E+03  0.17255641121E+03 0.  0.
         24    2    5    5    0    0  0.37722162545E+02 -0.47941020722E+02 -0.22704376507E+03  0.24826833609E+03  0.79793436017E+02 0.  0.
          5    1    5    5  501    0 -0.59977057150E+02 -0.51929415356E+02 -0.50404531998E+02  0.94109608487E+02  0.47000000000E+01 0. -1.
        -13    1    6    6    0    0  0.10458207325E+02  0.22451242811E+02 -0.62805763706E+02  0.67512934753E+02  0.00000000000E+00 0.  1.
         14    1    6    6    0    0  0.27263955220E+02 -0.70392263533E+02 -0.16423800137E+03  0.18075540134E+03  0.00000000000E+00 0. -1.
         -5    1    3    3    0  503  0.68532278881E+02  0.26666834035E+02 -0.10949559702E+03  0.13198169969E+03  0.47000000000E+01 0.  1.
         13    1    4    4    0    0  0.14412477199E+02  0.34398243406E+02 -0.15489652424E+02  0.40384254118E+02  0.00000000000E+00 0. -1.
        -14    1    4    4    0    0 -0.60689861475E+02  0.38805358636E+02 -0.12362019663E+03  0.14307714059E+03  0.00000000000E+00 0.  1.
</event>
<event>
12    1  0.9966151E-001  0.1813540E+03  0.7818608E-02  0.1167195E+00
         21   -1    0    0  501  502  0.00000000000E+00  0.00000000000E+00  0.79689267073E+03  0.79689267073E+03  0.00000000000E+00 0.  1.
         21   -1    0    0  502  503 -0.00000000000E+00 -0.00000000000E+00 -0.91675852667E+02  0.91675852667E+02  0.00000000000E+00 0.  1.
         -6    2    1    2    0  503 -0.43289261422E+02 -0.38434213763E+02  0.22304587206E+02  0.18272046844E+03  0.17186659371E+03 0.  0.
        -24    2    3    3    0    0 -0.75100718061E+02  0.21421680188E+02  0.22507200724E+02  0.11477322518E+03  0.81038959140E+02 0.  0.
          6    2    1    2  501    0  0.43289261422E+02  0.38434213763E+02  0.68291223086E+03  0.70584805496E+03  0.16882302180E+03 0.  0.
         24    2    5    5    0    0 -0.29999339127E+02 -0.86512676600E+01  0.39454362438E+03  0.40457275770E+03  0.83902562298E+02 0.  0.
          5    1    5    5  501    0  0.73288600549E+02  0.47085481423E+02  0.28836860649E+03  0.30127529726E+03  0.47000000000E+01 0. -1.
        -11    1    6    6    0    0 -0.40243576878E+02  0.23186449574E+02  0.31315014789E+03  0.31657569718E+03  0.00000000000E+00 0.  1.
         12    1    6    6    0    0  0.10244237751E+02 -0.31837717234E+02  0.81393476488E+02  0.87997060522E+02  0.00000000000E+00 0. -1.
         -5    1    3    3    0  503  0.31811456640E+02 -0.59855893951E+02 -0.20261351869E+00  0.67947243259E+02  0.47000000000E+01 0.  1.
         13    1    4    4    0    0 -0.57333167303E+02 -0.88585120930E+01 -0.18404338121E+02  0.60862837358E+02  0.00000000000E+00 0. -1.
        -14    1    4    4    0    0 -0.17767550758E+02  0.30280192281E+02  0.40911538845E+02  0.53910387823E+02  0.00000000000E+00 0.  1.
</event>
<event>
12    1  0.9966151E-001  0.3330390E+03  0.7818608E-02  0.1069822E+00
         21   -1    0    0  503  502  0.00000000000E+00  0.00000000000E+00  0.30372765043E+03  0.30372765043E+03  0.00000000000E+00 0.  1.
         21   -1    0    0  501  503 -0.00000000000E+00 -0.00000000000E+00 -0.56558276186E+03  0.56558276186E+03  0.00000000000E+00 0.  1.
          6    2    1    2  501    0 -0.29037476857E+02 -0.28286941433E+03 -0.38977828441E+03  0.51254818667E+03  0.17297471501E+03 0.  0.
         24    2    3    3    0    0 -0.31099433341E+02 -0.50512855936E+02 -0.13926521864E+03  0.17082796775E+03  0.79174933374E+02 0.  0.
         -6    2    1    2    0  502  0.29037476857E+02  0.28286941433E+03  0.12792317299E+03  0.35676222563E+03  0.17336858661E+03 0.  0.
        -24    2    5    5    0    0 -0.27512948110E+02  0.25166650011E+03  0.83254007147E+02  0.27809204833E+03  0.79441601477E+02 0.  0.
          5    1    3    3  501    0  0.20619564844E+01 -0.23235655839E+03 -0.25051306577E+03  0.34172021891E+03  0.47000000000E+01 0. -1.
        -13    1    4    4    0    0 -0.41459042806E+02 -0.63313535447E+02 -0.13335306289E+03  0.15333132551E+03  0.00000000000E+00 0.  1.
         14    1    4    4    0    0  0.10359609465E+02  0.12800679511E+02 -0.59121557570E+01  0.17496642247E+02  0.00000000000E+00 0. -1.
         -5    1    5    5    0  502  0.56550424967E+02  0.31202914214E+02  0.44669165839E+02  0.78670177299E+02  0.47000000000E+01 0.  1.
         11    1    6    6    0    0  0.49127451041E+01  0.19000191081E+03  0.34789786632E+02  0.19322316225E+03  0.00000000000E+00 0. -1.
        -12    1    6    6    0    0 -0.32425693215E+02  0.61664589304E+02  0.48464220515E+02  0.84868886081E+02  0.00000000000E+00 0.  1.
</event>
<event>
12    1  0.9966151E-001  0.1842445E+03  0.7818608E-02  0.1163807E+00
         21   -1    0    0  501  502  0.00000000000E+00  0.00000000000E+00  0.34332195155E+02  0.34332195155E+02  0.00000000000E+00 0.  1.
         21   -1    0    0  502  503 -0.00000000000E+00 -0.00000000000E+00 -0.10294443486E+04  0.10294443486E+04  0.00000000000E+00 0.  1.
         -6    2    1    2    0  503 -0.18029475220E+02 -0.65417561895E+02 -0.60449732563E+03  0.63188999266E+03  0.17106556272E+03 0.  0.
        -24    2    3    3    0    0  0.16006219492E+02 -0.74114576859E+02 -0.22646423391E+03  0.25219909861E+03  0.81050395045E+02 0.  0.
          6    2    1    2  501    0  0.18029475220E+02  0.65417561895E+02 -0.39061482785E+03  0.43188655113E+03  0.17129369495E+03 0.  0.
         24    2    5    5    0    0  0.29083047881E+02 -0.29381408083E+02 -0.18299275342E+03  0.20333012053E+03  0.78407265582E+02 0.  0.
          5    1    5    5  501    0 -0.11053572661E+02  0.94798969979E+02 -0.20762207443E+03  0.22855643060E+03  0.47000000000E+01 0. -1.
        -11    1    6    6    0    0  0.97677206477E+01  0.23616903016E+02 -0.25768112658E+02  0.36292727986E+02  0.00000000000E+00 0.  1.
         12    1    6    6    0    0  0.19315327233E+02 -0.52998311099E+02 -0.15722464076E+03  0.16703739254E+03  0.00000000000E+00 0. -1.
         -5    1    3    3    0  503 -0.34035694711E+02  0.86970149641E+01 -0.37803309172E+03  0.37969089404E+03  0.47000000000E+01 0.  1.
         13    1    4    4    0    0 -0.31663437568E+02 -0.43972946455E+02 -0.12170004641E+03  0.13321822170E+03  0.00000000000E+00 0. -1.
        -14    1    4    4    0    0  0.47669657060E+02 -0.30141630404E+02 -0.10476418750E+03  0.11898087691E+03  0.00000000000E+00 0.  1.
</event>
<event>
12    1  0.9966151E-001  0.1829047E+03  0.7818608E-02  0.1165735E+00
         21   -1    0    0  503  502  0.00000000000E+00  0.00000000000E+00  0.40473088471E+02  0.40473088471E+02  0.00000000000E+00 0. -1.
         21   -1    0    0  501  503 -0.00000000000E+00 -0.00000000000E+00 -0.85965253321E+03  0.85965253321E+03  0.00000000000E+00 0. -1.
          6    2    1    2  501    0 -0.35340305409E+02  0.40210111282E+02 -0.30809063444E+03  0.35829311107E+03  0.17489518053E+03 0.  0.
         24    2    3    3    0    0 -0.80899391495E+01  0.93102348311E+02 -0.18093980069E+03  0.21783103177E+03  0.77315280178E+02 0.  0.
         -6    2    1    2    0  502  0.35340305409E+02 -0.40210111282E+02 -0.51108881030E+03  0.54183251061E+03  0.17176992551E+03 0.  0.
        -24    2    5    5    0    0  0.14957001469E+02  0.22447292415E+02 -0.12823188644E+03  0.15331874836E+03  0.79596664928E+02 0.  0.
          5    1    3    3  501    0 -0.27250366259E+02 -0.52892237029E+02 -0.12715083375E+03  0.14046207930E+03  0.47000000000E+01 0. -1.
        -11    1    4    4    0    0 -0.15526783262E+02 -0.79910033493E+01 -0.13393672379E+02  0.22007444031E+02  0.00000000000E+00 0.  1.
         12    1    4    4    0    0  0.74368441126E+01  0.10109335166E+03 -0.16754612831E+03  0.19582358773E+03  0.00000000000E+00 0. -1.
         -5    1    5    5    0  502  0.20383303940E+02 -0.62657403696E+02 -0.38285692385E+03  0.38851376225E+03  0.47000000000E+01 0.  1.
         13    1    6    6    0    0 -0.29927372240E+02 -0.25557936802E+01 -0.66740288648E+02  0.73187743642E+02  0.00000000000E+00 0. -1.
        -14    1    6    6    0    0  0.44884373709E+02  0.25003086095E+02 -0.61491597793E+02  0.80131004715E+02  0.00000000000E+00 0.  1.
</event>
<event>
12    1  0.9966151E-001  0.1782675E+03  0.7818608E-02  0.1169596E+00
         21   -1    0    0  501  502  0.00000000000E+00  0.00000000000E+00  0.92959169460E+02  0.92959169460E+02  0.00000000000E+00 0. -1.
         21   -1    0    0  502  503 -0.00000000000E+00 -0.00000000000E+00 -0.36490549888E+03  0.36490549888E+03  0.00000000000E+00 0. -1.
         -6    2    1    2    0  503 -0.46008617762E+02  0.54450262837E+01 -0.19467093168E+03  0.26396228706E+03  0.17214202314E+03 0.  0.
        -24    2    3    3    0    0  0.21467836295E+02  0.38886280122E+02 -0.59129055887E+02  0.10883305254E+03  0.79845959807E+02 0.  0.
          6    2    1    2  501    0  0.46008617762E+02 -0.54450262837E+01 -0.77275397737E+02  0.19390238128E+03  0.17169800567E+03 0.  0.
         24    2    5    5    0    0 -0.27529296391E+02  0.17597883056E+02 -0.39148521254E+01  0.87400455747E+02  0.80968919653E+02 0.  0.
          5    1    5    5  501    0  0.73537914153E+02 -0.23042909339E+02 -0.73360545612E+02  0.10650192553E+03  0.47000000000E+01 0. -1.
        -13    1    6    6    0    0 -0.67864027416E+01 -0.29830121652E+02 -0.15588282707E+02  0.34334909024E+02  0.00000000000E+00 0.  1.
         14    1    6    6    0    0 -0.20742893649E+02  0.47428004707E+02  0.11673430582E+02  0.53065546723E+02  0.00000000000E+00 0. -1.
         -5    1    3    3    0  503 -0.67476454057E+02 -0.33441253838E+02 -0.13554187579E+03  0.15512923452E+03  0.47000000000E+01 0.  1.
         11    1    4    4    0    0  0.24244519593E+02 -0.11204573254E+02  0.52456562322E+01  0.27218671926E+02  0.00000000000E+00 0. -1.
        -12    1    4    4    0    0 -0.27766832980E+01  0.50090853376E+02 -0.64374712119E+02  0.81614380611E+02  0.00000000000E+00 0.  1.
</event>
<event>
12    1  0.9966151E-001  0.1922595E+03  0.7818608E-02  0.1156769E+00
         21   -1    0    0  503  502  0.00000000000E+00  0.00000000000E+00  0.11787713892E+03  0.11787713892E+03  0.00000000000E+00 0. -1.
         21   -1    0    0  501  503 -0.00000000000E+00 -0.00000000000E+00 -0.37653817410E+03  0.37653817410E+03  0.00000000000E+00 0. -1.
          6    2    1    2  501    0 -0.76949183647E+02  0.25578022984E+02 -0.23274671915E+03  0.30188533952E+03  0.17432243350E+03 0.  0.
         24    2    3    3    0    0 -0.74848245508E+02 -0.56565185014E+01 -0.24436094861E+03  0.26816604462E+03  0.81033932523E+02 0.  0.
         -6    2    1    2    0  502  0.76949183647E+02 -0.25578022984E+02 -0.25914316036E+02  0.19252997350E+03  0.17268707767E+03 0.  0.
        -24    2    5    5    0    0 -0.92685537921E+01  0.29102401672E+02  0.18003171524E+01  0.86635507245E+02  0.81053156023E+02 0.  0.
          5    1    3    3  501    0 -0.21009381395E+01  0.31234541485E+02  0.11614229467E+02  0.33719294906E+02  0.47000000000E+01 0. -1.
        -13    1    4    4    0    0 -0.16150656350E+02  0.27437357759E+02 -0.31077386147E+02  0.44491080354E+02  0.00000000000E+00 0.  1.
         14    1    4    4    0    0 -0.58697589158E+02 -0.33093876260E+02 -0.21328356247E+03  0.22367496426E+03  0.00000000000E+00 0. -1.
         -5    1    5    5    0  502  0.86217737439E+02 -0.54680424656E+02 -0.27714633189E+02  0.10589446625E+03  0.47000000000E+01 0.  1.
         13    1    6    6    0    0  0.30999122897E+02  0.31744913526E+02  0.99372280270E+01  0.45469040632E+02  0.00000000000E+00 0. -1.
        -14    1    6    6    0    0 -0.40267676689E+02 -0.26425118534E+01 -0.81369108746E+01  0.41166466613E+02  0.00000000000E+00 0.  1.
</event>
<event>
12    1  0.9966151E-001  0.1960697E+03  0.7818608E-02  0.1153392E+00
         21   -1    0    0  501  502  0.00000000000E+00  0.00000000000E+00  0.89237674391E+03  0.89237674391E+03  0.00000000000E+00 0.  1.
         21   -1    0    0  502  503 -0.00000000000E+00 -0.00000000000E+00 -0.42886206055E+02  0.42886206055E+02  0.00000000000E+00 0.  1.
         -6    2    1    2    0  503  0.83899303848E+02  0.42103754715E+02  0.44625560982E+03  0.48688616238E+03  0.17059380549E+03 0.  0.
        -24    2    3    3    0    0  0.10243078344E+03  0.66082401090E+02  0.42702343199E+03  0.45068729662E+03  0.76883540106E+02 0.  0.
          6    2    1    2  501    0 -0.83899303848E+02 -0.42103754715E+02  0.40323492804E+03  0.44837678759E+03  0.17213807572E+03 0.  0.
         24    2    5    5    0    0 -0.61911654253E+02  0.38698955956E+02  0.19982750076E+03  0.22835586527E+03  0.82974146695E+02 0.  0.
          5    1    5    5  501    0 -0.21987649594E+02 -0.80802710671E+02  0.20340742728E+03  0.22002092232E+03  0.47000000000E+01 0. -1.
        -13    1    6    6    0    0  0.12336629502E+01  0.27737382664E+02  0.13259399192E+03  0.13546974206E+03  0.00000000000E+00 0.  1.
         14    1    6    6    0    0 -0.63145317204E+02  0.10961573292E+02  0.67233508836E+02  0.92886123206E+02  0.00000000000E+00 0. -1.
         -5    1    3    3    0  503 -0.18531479588E+02 -0.23978646375E+02  0.19232177827E+02  0.36198865751E+02  0.47000000000E+01 0.  1.
         13    1    4    4    0    0  0.99681558133E+02  0.76653578407E+02  0.33161648075E+03  0.35465712233E+03  0.00000000000E+00 0. -1.
        -14    1    4    4    0    0  0.27492253022E+01 -0.10571177317E+02  0.95406951244E+02  0.96030174296E+02  0.00000000000E+00 0.  1.
</event>
<event>
12    1  0.9966151E-001  0.1751167E+03  0.7818608E-02  0.1174770E+00
         21   -1    0    0  501  502  0.00000000000E+00  0.00000000000E+00  0.42593169806E+03  0.42593169806E+03  0.00000000000E+00 0.  1.
         21   -1    0    0  502  503 -0.00000000000E+00 -0.00000000000E+00 -0.83038669102E+02  0.83038669102E+02  0.00000000000E+00 0.  1.
         -6    2    1    2    0  503  0.63666677026E+01  0.36382921764E+02  0.27408323944E+03  0.32081975469E+03  0.16260209534E+03 0.  0.
        -24    2    3    3    0    0 -0.44359506519E+02 -0.25263822422E+02  0.11290073654E+03  0.14088822589E+03  0.67058849824E+02 0.  0.
          6    2    1    2  501    0 -0.63666677026E+01 -0.36382921764E+02  0.68809789517E+02  0.18815061246E+03  0.17117714328E+03 0.  0.
         24    2    5    5    0    0  0.57574557884E+02 -0.29933032686E+02  0.14593071143E+02  0.10393883211E+03  0.79871815642E+02 0.  0.
          5    1    5    5  501    0 -0.63941225587E+02 -0.64498890784E+01  0.54216718375E+02  0.84211780352E+02  0.47000000000E+01 0. -1.
        -11    1    6    6    0    0 -0.11734702299E+02 -0.29213030871E+02 -0.50776081794E+01  0.31888658102E+02  0.00000000000E+00 0.  1.
         12    1    6    6    0    0  0.69309260183E+02 -0.72000181541E+00  0.19670679322E+02  0.72050174009E+02  0.00000000000E+00 0. -1.
         -5    1    3    3    0  503  0.50726174221E+02  0.61646744187E+02  0.16118250289E+03  0.17993152881E+03  0.47000000000E+01 0.  1.
         13    1    4    4    0    0 -0.20010070807E+01 -0.31199661431E+02  0.16335562140E+02  0.35274261058E+02  0.00000000000E+00 0. -1.
        -14    1    4    4    0    0 -0.42358499438E+02  0.59358390092E+01  0.96565174404E+02  0.10561396483E+03  0.00000000000E+00 0.  1.
</event>
<event>
12    1  0.9966151E-001  0.1965728E+03  0.7818608E-02  0.1152809E+00
         21   -1    0    0  503  502  0.00000000000E+00  0.00000000000E+00  0.45678228799E+02  0.45678228799E+02  0.00000000000E+00 0. -1.
         21   -1    0    0  501  503 -0.00000000000E+00 -0.00000000000E+00 -0.97077494209E+03  0.97077494209E+03  0.00000000000E+00 0. -1.
          6    2    1    2  501    0 -0.70669300411E+02 -0.65501824053E+02 -0.64759731069E+03  0.67677406217E+03  0.17133655605E+03 0.  0.
         24    2    3    3    0    0 -0.34794683053E+02  0.13329678443E+02 -0.18307055356E+03  0.20421867701E+03  0.82474785008E+02 0.  0.
         -6    2    1    2    0  502  0.70669300411E+02  0.65501824053E+02 -0.27749940260E+03  0.33967910871E+03  0.17056183477E+03 0.  0.
        -24    2    5    5    0    0  0.10389337314E+03  0.44376485968E+02 -0.14111668768E+03  0.19764934477E+03  0.79926456558E+02 0.  0.
          5    1    3    3  501    0 -0.35874617358E+02 -0.78831502496E+02 -0.46452675713E+03  0.47255538517E+03  0.47000000000E+01 0. -1.
        -11    1    4    4    0    0 -0.22964178157E+02  0.48187796492E+02 -0.11653936896E+03  0.12818284490E+03  0.00000000000E+00 0.  1.
         12    1    4    4    0    0 -0.11830504896E+02 -0.34858118049E+02 -0.66531184596E+02  0.76035832104E+02  0.00000000000E+00 0. -1.
         -5    1    5    5    0  502 -0.33224072725E+02  0.21125338085E+02 -0.13638271492E+03  0.14202976395E+03  0.47000000000E+01 0.  1.
         11    1    6    6    0    0  0.10406061874E+02 -0.15836232746E+02 -0.12856344063E+01  0.18992768285E+02  0.00000000000E+00 0. -1.
        -12    1    6    6    0    0  0.93487311262E+02  0.60212718714E+02 -0.13983105327E+03  0.17865657648E+03  0.00000000000E+00 0.  1.
</event>
<event>
12    1  0.9966151E-001  0.2207679E+03  0.7818608E-02  0.1133446E+00
         21   -1    0    0  501  502  0.00000000000E+00  0.00000000000E+00  0.13676636584E+03  0.13676636584E+03  0.00000000000E+00 0. -1.
         21   -1    0    0  502  503 -0.00000000000E+00 -0.00000000000E+00 -0.57161030851E+03  0.57161030851E+03  0.00000000000E+00 0.  1.
         -6    2    1    2    0  503 -0.52455236043E+02  0.12837139692E+03  0.28905427588E+00  0.22076807662E+03  0.17177803343E+03 0.  0.
        -24    2    3    3    0    0 -0.68308864820E+02  0.82599522626E+02 -0.57595902070E+02  0.14514294725E+03  0.79122721449E+02 0.  0.
          6    2    1    2  501    0  0.52455236043E+02 -0.12837139692E+03 -0.43513299694E+03  0.48760859772E+03  0.17085272081E+03 0.  0.
         24    2    5    5    0    0 -0.14841847605E+02 -0.12859172211E+03 -0.31827331486E+03  0.35267446080E+03  0.79531508927E+02 0.  0.
          5    1    5    5  501    0  0.67297083648E+02  0.22032518841E+00 -0.11685968208E+03  0.13493413692E+03  0.47000000000E+01 0. -1.
        -13    1    6    6    0    0  0.26039128197E+02 -0.87326049770E+02 -0.16074440984E+03  0.18477727258E+03  0.00000000000E+00 0.  1.
         14    1    6    6    0    0 -0.40880975803E+02 -0.41265672337E+02 -0.15752890502E+03  0.16789718822E+03  0.00000000000E+00 0. -1.
         -5    1    3    3    0  503  0.15853628777E+02  0.45771874293E+02  0.57884956346E+02  0.75625129374E+02  0.47000000000E+01 0.  1.
         13    1    4    4    0    0 -0.61623507676E+01 -0.13404500327E+02  0.39468545485E+01  0.15271963097E+02  0.00000000000E+00 0. -1.
        -14    1    4    4    0    0 -0.62146514052E+02  0.96004022954E+02 -0.61542756619E+02  0.12987098415E+03  0.00000000000E+00 0.  1.
</event>
<event>
12    1  0.9966151E-001  0.1924709E+03  0.7818608E-02  0.1158605E+00
         21   -1    0    0  501  502  0.00000000000E+00  0.00000000000E+00  0.14728027234E+04  0.14728027234E+04  0.00000000000E+00 0. -1.
         21   -1    0    0  502  503 -0.00000000000E+00 -0.00000000000E+00 -0.24425223481E+02  0.24425223481E+02  0.00000000000E+00 0. -1.
         -6    2    1    2    0  503  0.63198703353E+02 -0.55883219007E+02  0.58731671086E+03  0.61491805341E+03  0.16145055986E+03 0.  0.
        -24    2    3    3    0    0  0.27873055959E+02 -0.19996772818E+02  0.14250392522E+03  0.16723932636E+03  0.80528537839E+02 0.  0.
          6    2    1    2  501    0 -0.63198703353E+02  0.55883219007E+02  0.86106078904E+03  0.88230989345E+03  0.17299726989E+03 0.  0.
         24    2    5    5    0    0 -0.94380238904E+02  0.45788461204E+01  0.68696871000E+03  0.69809651494E+03  0.80524159932E+02 0.  0.
          5    1    5    5  501    0  0.31181535551E+02  0.51304372886E+02  0.17409207904E+03  0.18421337851E+03  0.47000000000E+01 0. -1.
        -11    1    6    6    0    0 -0.40193316622E+02  0.42037278612E+02  0.30724911707E+03  0.31270538121E+03  0.00000000000E+00 0.  1.
         12    1    6    6    0    0 -0.54186922281E+02 -0.37458432491E+02  0.37971959293E+03  0.38539113374E+03  0.00000000000E+00 0. -1.
         -5    1    3    3    0  503  0.35325647394E+02 -0.35886446189E+02  0.44481278564E+03  0.44767872705E+03  0.47000000000E+01 0.  1.
         11    1    4    4    0    0 -0.89065258801E+01 -0.42931053178E+02  0.79035330892E+02  0.90382437782E+02  0.00000000000E+00 0. -1.
        -12    1    4    4    0    0  0.36779581839E+02  0.22934280360E+02  0.63468594332E+02  0.76856888581E+02  0.00000000000E+00 0.  1.
</event>
<event>
12    1  0.9966151E-001  0.1778846E+03  0.7818608E-02  0.1170279E+00
         21   -1    0    0  501  502  0.00000000000E+00  0.00000000000E+00  0.14867901251E+03  0.14867901251E+03  0.00000000000E+00 0.  1.
         21   -1    0    0  502  503 -0.00000000000E+00 -0.00000000000E+00 -0.25758634040E+03  0.25758634040E+03  0.00000000000E+00 0.  1.
         -6    2    1    2    0  503  0.95949731423E+01 -0.40590724012E+01  0.32297623118E+02  0.17914916231E+03  0.17590550395E+03 0.  0.
        -24    2    3    3    0    0 -0.59915974741E+02 -0.18395938815E+01 -0.48573173495E+01  0.10016006457E+03  0.80094549556E+02 0.  0.
          6    2    1    2  501    0 -0.95949731424E+01  0.40590724012E+01 -0.14120495100E+03  0.22711619060E+03  0.17757923940E+03 0.  0.
         24    2    5    5    0    0 -0.61010204633E+02 -0.41944808179E+02 -0.90954907927E+02  0.14163496526E+03  0.79410680039E+02 0.  0.
          5    1    5    5  501    0  0.51415231490E+02  0.46003880580E+02 -0.50250043075E+02  0.85481225346E+02  0.47000000000E+01 0. -1.
        -11    1    6    6    0    0 -0.49668126547E+02  0.13733427103E+02 -0.38791411430E+02  0.64500414072E+02  0.00000000000E+00 0.  1.
         12    1    6    6    0    0 -0.11342078085E+02 -0.55678235282E+02 -0.52163496497E+02  0.77134551183E+02  0.00000000000E+00 0. -1.
         -5    1    3    3    0  503  0.69510947884E+02 -0.22194785196E+01  0.37154940467E+02  0.78989097740E+02  0.47000000000E+01 0.  1.
         11    1    4    4    0    0 -0.68715548864E+01 -0.31853689385E+00  0.33808567582E+02  0.34501289458E+02  0.00000000000E+00 0. -1.
        -12    1    4    4    0    0 -0.53044419855E+02 -0.15210569877E+01 -0.38665884931E+02  0.65658775115E+02  0.00000000000E+00 0.  1.
</event>
<event>
12    1  0.9966151E-001  0.2232444E+03  0.7818608E-02  0.1131661E+00
         21   -1    0    0  503  502  0.00000000000E+00  0.00000000000E+00  0.11683438063E+03  0.11683438063E+03  0.00000000000E+00 0.  1.
         21   -1    0    0  501  503 -0.00000000000E+00 -0.00000000000E+00 -0.42972477298E+03  0.42972477298E+03  0.00000000000E+00 0.  1.
          6    2    1    2  501    0 -0.40106950620E+02 -0.13542029347E+03 -0.18550217100E+03  0.28952641195E+03  0.17166031691E+03 0.  0.
         24    2    3    3    0    0  0.27458413453E+02 -0.10462989433E+03 -0.68987059601E+02  0.15128391384E+03  0.80163763237E+02 0.  0.
         -6    2    1    2    0  502  0.40106950620E+02  0.13542029347E+03 -0.12738822135E+03  0.25703274166E+03  0.17288969888E+03 0.  0.
        -24    2    5    5    0    0  0.90302222707E+02  0.83510243932E+02 -0.10807776616E+03  0.18213813397E+03  0.79781226107E+02 0.  0.
          5    1    3    3  501    0 -0.67565364073E+02 -0.30790399138E+02 -0.11651511139E+03  0.13824249811E+03  0.47000000000E+01 0. -1.
        -11    1    4    4    0    0 -0.12871334301E+02 -0.32315950417E+02  0.10673549924E+02  0.36385664293E+02  0.00000000000E+00 0.  1.
         12    1    4    4    0    0  0.40329747755E+02 -0.72313943913E+02 -0.79660609525E+02  0.11489824954E+03  0.00000000000E+00 0. -1.
         -5    1    5    5    0  502 -0.50195272088E+02  0.51910049536E+02 -0.19310455190E+02  0.74894607699E+02  0.47000000000E+01 0.  1.
         13    1    6    6    0    0  0.47312231560E+02  0.57380025421E+02 -0.14320555556E+02  0.75736337936E+02  0.00000000000E+00 0. -1.
        -14    1    6    6    0    0  0.42989991147E+02  0.26130218511E+02 -0.93757210603E+02  0.10640179603E+03  0.00000000000E+00 0.  1.
</event>
<event>
12    1  0.9966151E-001  0.1793765E+03  0.7818608E-02  0.1169160E+00
         21   -1    0    0  503  502  0.00000000000E+00  0.00000000000E+00  0.91924472227E+02  0.91924472227E+02  0.00000000000E+00 0.  1.
         21   -1    0    0  501  503 -0.00000000000E+00 -0.00000000000E+00 -0.34643970317E+03  0.34643970317E+03  0.00000000000E+00 0.  1.
          6    2    1    2  501    0  0.47257747799E+01 -0.41443739499E+02 -0.11022078300E+03  0.21053392480E+03  0.17445915280E+03 0.  0.
         24    2    3    3    0    0  0.15377047057E+02 -0.95074196090E+02 -0.73597708433E+02  0.14455654181E+03  0.78768107479E+02 0.  0.
         -6    2    1    2    0  502 -0.47257747799E+01  0.41443739499E+02 -0.14429444794E+03  0.22783025059E+03  0.17130621380E+03 0.  0.
        -24    2    5    5    0    0 -0.28644623988E+02 -0.16945627095E+02 -0.13968833772E+03  0.16438944566E+03  0.80021180875E+02 0.  0.
          5    1    3    3  501    0 -0.10651272277E+02  0.53630456591E+02 -0.36623074566E+02  0.65977382988E+02  0.47000000000E+01 0. -1.
        -11    1    4    4    0    0 -0.15285281057E+02 -0.77311534530E+02 -0.75409175272E+02  0.10907454746E+03  0.00000000000E+00 0.  1.
         12    1    4    4    0    0  0.30662328114E+02 -0.17762661560E+02  0.18114668396E+01  0.35481994352E+02  0.00000000000E+00 0. -1.
         -5    1    5    5    0  502  0.23918849208E+02  0.58389366594E+02 -0.46061102162E+01  0.63440804929E+02  0.47000000000E+01 0.  1.
         13    1    6    6    0    0 -0.43169015362E+02  0.16677219915E+01 -0.13301517700E+03  0.13985486225E+03  0.00000000000E+00 0. -1.
        -14    1    6    6    0    0  0.14524391374E+02 -0.18613349087E+02 -0.66731607240E+01  0.24534583409E+02  0.00000000000E+00 0.  1.
</event>
<event>
12    1  0.9966151E-001  0.2238974E+03  0.7818608E-02  0.1131366E+00
         21   -1    0    0  501  502  0.00000000000E+00  0.00000000000E+00  0.19415883821E+03  0.19415883821E+03  0.00000000000E+00 0.  1.
         21   -1    0    0  502  503 -0.00000000000E+00 -0.00000000000E+00 -0.25693914935E+03  0.25693914935E+03  0.00000000000E+00 0. -1.
         -6    2    1    2    0  503 -0.72383816156E+02 -0.12124647926E+03 -0.17280272310E+02  0.22262411595E+03  0.17123890802E+03 0.  0.
        -24    2    3    3    0    0  0.48183418017E+01 -0.10512064670E+02  0.18732404183E+02  0.82833963810E+02  0.79855135544E+02 0.  0.
          6    2    1    2  501    0  0.72383816156E+02  0.12124647926E+03 -0.45500038826E+02  0.22847387160E+03  0.17375249897E+03 0.  0.
         24    2    5    5    0    0 -0.61064748253E+00  0.12530223912E+03 -0.15818295898E+02  0.14943124530E+03  0.79865227520E+02 0.  0.
          5    1    5    5  501    0  0.72994463639E+02 -0.40557598618E+01 -0.29681742929E+02  0.79042626306E+02  0.47000000000E+01 0. -1.
        -11    1    6    6    0    0  0.29747074269E+02  0.19572004786E+02 -0.16919424892E+02  0.39423580984E+02  0.00000000000E+00 0.  1.
         12    1    6    6    0    0 -0.30357721752E+02  0.10573023434E+03  0.11011289947E+01  0.11000766431E+03  0.00000000000E+00 0. -1.
         -5    1    3    3    0  503 -0.77202157958E+02 -0.11073441459E+03 -0.36012676493E+02  0.13979015214E+03  0.47000000000E+01 0.  1.
         13    1    4    4    0    0  0.21877542123E+02 -0.35503772736E+01 -0.26172373219E+02  0.34296138967E+02  0.00000000000E+00 0. -1.
        -14    1    4    4    0    0 -0.17059200321E+02 -0.69616873962E+01  0.44904777402E+02  0.48537824843E+02  0.00000000000E+00 0.  1.
</event>
<event>
12    1  0.9966151E-001  0.2168328E+03  0.7818608E-02  0.1136590E+00
         21   -1    0    0  501  502  0.00000000000E+00  0.00000000000E+00  0.17098316906E+03  0.17098316906E+03  0.00000000000E+00 0.  1.
         21   -1    0    0  502  503 -0.00000000000E+00 -0.00000000000E+00 -0.27283425093E+03  0.27283425093E+03  0.00000000000E+00 0.  1.
         -6    2    1    2    0  503  0.10463832537E+03 -0.75404869869E+02 -0.50378368929E+02  0.22095895376E+03  0.17219118926E+03 0.  0.
        -24    2    3    3    0    0  0.32632808285E+02  0.83583032757E+01 -0.68612701110E+02  0.10890698129E+03  0.77577486488E+02 0.  0.
          6    2    1    2  501    0 -0.10463832537E+03  0.75404869869E+02 -0.51472712939E+02  0.22285846622E+03  0.17430255952E+03 0.  0.
         24    2    5    5    0    0 -0.11308127634E+03  0.11046485259E+03 -0.25543860983E+02  0.17819437356E+03  0.78172163962E+02 0.  0.
          5    1    5    5  501    0  0.84429509776E+01 -0.35059982718E+02 -0.25928851956E+02  0.44664092661E+02  0.47000000000E+01 0. -1.
        -11    1    6    6    0    0 -0.45292063135E+02  0.91761298014E+02 -0.32898548996E+02  0.10748870323E+03  0.00000000000E+00 0.  1.
         12    1    6    6    0    0 -0.67789213209E+02  0.18703554573E+02  0.73546880127E+01  0.70705670330E+02  0.00000000000E+00 0. -1.
         -5    1    3    3    0  503  0.72005517081E+02 -0.83763173145E+02  0.18234332180E+02  0.11205197247E+03  0.47000000000E+01 0.  1.
         11    1    4    4    0    0  0.33113067617E+02 -0.21724475196E+02 -0.68144316614E+02  0.78816723836E+02  0.00000000000E+00 0. -1.
        -12    1    4    4    0    0 -0.48025933183E+00  0.30082778471E+02 -0.46838449606E+00  0.30090257454E+02  0.00000000000E+00 0.  1.
</event>
<event>
12    1  0.9966151E-001  0.4678837E+03  0.7818608E-02  0.1022555E+00
         21   -1    0    0  501  502  0.00000000000E+00  0.00000000000E+00  0.42725741443E+03  0.42725741443E+03  0.00000000000E+00 0. -1.
         21   -1    0    0  502  503 -0.00000000000E+00 -0.00000000000E+00 -0.63201224318E+03  0.63201224318E+03  0.00000000000E+00 0. -1.
         -6    2    1    2    0  503 -0.34467245140E+03 -0.26569459195E+03  0.12862990733E+03  0.48476070362E+03  0.17045401658E+03 0.  0.
        -24    2    3    3    0    0 -0.11212429916E+03 -0.16192450471E+03  0.53401080718E+02  0.21918897984E+03  0.80004560963E+02 0.  0.
          6    2    1    2  501    0  0.34467245140E+03  0.26569459195E+03 -0.33338473608E+03  0.57450895399E+03  0.17182095629E+03 0.  0.
         24    2    5    5    0    0  0.33470996816E+03  0.21891978024E+03 -0.33301391463E+03  0.52645313654E+03  0.79359968915E+02 0.  0.
          5    1    5    5  501    0  0.99624832413E+01  0.46774811708E+02 -0.37082144864E+00  0.48055817454E+02  0.47000000000E+01 0. -1.
        -11    1    6    6    0    0  0.17727130873E+03  0.95407119208E+02 -0.21316889692E+03  0.29320404824E+03  0.00000000000E+00 0.  1.
         12    1    6    6    0    0  0.15743865943E+03  0.12351266104E+03 -0.11984501771E+03  0.23324908829E+03  0.00000000000E+00 0. -1.
         -5    1    3    3    0  503 -0.23254815224E+03 -0.10377008725E+03  0.75228826607E+02  0.26557172378E+03  0.47000000000E+01 0.  1.
         13    1    4    4    0    0 -0.94294785528E+02 -0.12469181445E+03  0.61607270976E+01  0.15645289939E+03  0.00000000000E+00 0. -1.
        -14    1    4    4    0    0 -0.17829513628E+02 -0.37232690255E+02  0.47240353621E+02  0.62736080449E+02  0.00000000000E+00 0.  1.
</event>
<event>
12    1  0.9966151E-001  0.1868977E+03  0.7818608E-02  0.1161569E+00
         21   -1    0    0  503  502  0.00000000000E+00  0.00000000000E+00  0.17298991243E+03  0.17298991243E+03  0.00000000000E+00 0.  1.
         21   -1    0    0  501  503 -0.00000000000E+00 -0.00000000000E+00 -0.22063588235E+03  0.22063588235E+03  0.00000000000E+00 0.  1.
          6    2    1    2  501    0  0.71874805373E+00  0.72908049266E+02 -0.83032878818E+02  0.20340758133E+03  0.17077495405E+03 0.  0.
         24    2    3    3    0    0  0.24630552588E+02  0.45482232233E+02 -0.10824491304E+03  0.15889144374E+03  0.10418364616E+03 0.  0.
         -6    2    1    2    0  502 -0.71874805373E+00 -0.72908049266E+02  0.35386908900E+02  0.19021821345E+03  0.17208903266E+03 0.  0.
        -24    2    5    5    0    0  0.60050735029E+02 -0.56611009750E+02 -0.44171109779E+01  0.11561946300E+03  0.80854512253E+02 0.  0.
          5    1    3    3  501    0 -0.23911804535E+02  0.27425817033E+02  0.25212034219E+02  0.44516137585E+02  0.47000000000E+01 0. -1.
        -11    1    4    4    0    0 -0.11732035283E+02 -0.30173190773E+02 -0.30584265529E+02  0.44536045976E+02  0.00000000000E+00 0.  1.
         12    1    4    4    0    0  0.36362587871E+02  0.75655423006E+02 -0.77660647508E+02  0.11435539777E+03  0.00000000000E+00 0. -1.
         -5    1    5    5    0  502 -0.60769483083E+02 -0.16297039517E+02  0.39804019878E+02  0.74598750456E+02  0.47000000000E+01 0.  1.
         11    1    6    6    0    0  0.32866880036E+02 -0.11592773443E+02 -0.39289066865E+02  0.52519091524E+02  0.00000000000E+00 0. -1.
        -12    1    6    6    0    0  0.27183854993E+02 -0.45018236307E+02  0.34871955887E+02  0.63100371472E+02  0.00000000000E+00 0.  1.
</event>
<event>
12    1  0.9966151E-001  0.1986653E+03  0.7818608E-02  0.1151025E+00
         21   -1    0    0  501  502  0.00000000000E+00  0.00000000000E+00  0.21328620959E+04  0.21328620959E+04  0.00000000000E+00 0.  1.
         21   -1    0    0  502  503 -0.00000000000E+00 -0.00000000000E+00 -0.19668950450E+02  0.19668950450E+02  0.00000000000E+00 0.  1.
         -6    2    1    2    0  503 -0.95427916296E+02  0.27916240303E+02  0.13241175006E+04  0.13388306797E+04  0.17115674092E+03 0.  0.
        -24    2    3    3    0    0 -0.12199472660E+03 -0.14003067322E+02  0.97226612120E+03  0.98346536498E+03  0.82606987933E+02 0.  0.
          6    2    1    2  501    0  0.95427916296E+02 -0.27916240303E+02  0.78907564492E+03  0.81370036667E+03  0.17199450466E+03 0.  0.
         24    2    5    5    0    0  0.76398092186E+01  0.32312422917E+02  0.43286711122E+03  0.44189281820E+03  0.82418853683E+02 0.  0.
          5    1    5    5  501    0  0.87788107077E+02 -0.60228663220E+02  0.35620853370E+03  0.37180754847E+03  0.47000000000E+01 0. -1.
        -13    1    6    6    0    0  0.62535083138E+01  0.54085839708E+02  0.17918535477E+03  0.18727459995E+03  0.00000000000E+00 0.  1.
         14    1    6    6    0    0  0.13863009048E+01 -0.21773416791E+02  0.25368175645E+03  0.25461821825E+03  0.00000000000E+00 0. -1.
         -5    1    3    3    0  503  0.26566810300E+02  0.41919307625E+02  0.35185137936E+03  0.35536531474E+03  0.47000000000E+01 0.  1.
         11    1    4    4    0    0 -0.70781164914E+02  0.30840509972E+02  0.42200524198E+03  0.42900994699E+03  0.00000000000E+00 0. -1.
        -12    1    4    4    0    0 -0.51213561682E+02 -0.44843577294E+02  0.55026087923E+03  0.55445541798E+03  0.00000000000E+00 0.  1.
</event>
<event>
12    1  0.9966151E-001  0.2621532E+03  0.7818608E-02  0.1106561E+00
         21   -1    0    0  503  502  0.00000000000E+00  0.00000000000E+00  0.25125823657E+03  0.25125823657E+03  0.00000000000E+00 0.  1.
         21   -1    0    0  501  503 -0.00000000000E+00 -0.00000000000E+00 -0.29425352604E+03  0.29425352604E+03  0.00000000000E+00 0.  1.
          6    2    1    2  501    0  0.19285602053E+03 -0.18737255561E+02  0.59143325841E+02  0.26416398290E+03  0.16952919356E+03 0.  0.
         24    2    3    3    0    0  0.14325175740E+03  0.49892367107E+02  0.25494581989E+02  0.17292289571E+03  0.79006581100E+02 0.  0.
         -6    2    1    2    0  502 -0.19285602053E+03  0.18737255561E+02 -0.10213861532E+03  0.28134777971E+03  0.17657787802E+03 0.  0.
        -24    2    5    5    0    0 -0.60399591237E+02  0.57723870379E+02 -0.83399603651E+01  0.11435993744E+03  0.77643315994E+02 0.  0.
          5    1    3    3  501    0  0.49604263129E+02 -0.68629622667E+02  0.33648743852E+02  0.91241087186E+02  0.47000000000E+01 0. -1.
        -11    1    4    4    0    0  0.11244079601E+03  0.37664629694E+02  0.52963731854E+02  0.12987191316E+03  0.00000000000E+00 0.  1.
         12    1    4    4    0    0  0.30810961393E+02  0.12227737412E+02 -0.27469149865E+02  0.43050982549E+02  0.00000000000E+00 0. -1.
         -5    1    5    5    0  502 -0.13245642929E+03 -0.38986614818E+02 -0.93798654954E+02  0.16698784227E+03  0.47000000000E+01 0.  1.
         13    1    6    6    0    0 -0.76122005579E+02  0.61400688624E+02 -0.89054578080E+01  0.98203418859E+02  0.00000000000E+00 0. -1.
        -14    1    6    6    0    0  0.15722414343E+02 -0.36768182451E+01  0.56549744290E+00  0.16156518577E+02  0.00000000000E+00 0.  1.
</event>
<event>
12    1  0.9966151E-001  0.2958086E+03  0.7818608E-02  0.1087701E+00
         21   -1    0    0  503  502  0.00000000000E+00  0.00000000000E+00  0.68470783321E+03  0.68470783321E+03  0.00000000000E+00 0. -1.
         21   -1    0    0  501  503 -0.00000000000E+00 -0.00000000000E+00 -0.13371717181E+03  0.13371717181E+03  0.00000000000E+00 0. -1.
          6    2    1    2  501    0  0.23331282115E+03 -0.41428825818E+02  0.18007090112E+03  0.34399463514E+03  0.17249799840E+03 0.  0.
         24    2    3    3    0    0  0.15449110556E+03 -0.89596461391E+02  0.15032417156E+03  0.24683527180E+03  0.80220117530E+02 0.  0.
         -6    2    1    2    0  502 -0.23331282115E+03  0.41428825818E+02  0.37091976028E+03  0.47443036989E+03  0.17706351171E+03 0.  0.
        -24    2    5    5    0    0 -0.14686753347E+03  0.91695073991E+02  0.28192906168E+03  0.34048665818E+03  0.80430775198E+02 0.  0.
          5    1    3    3  501    0  0.78821715587E+02  0.48167635574E+02  0.29746729555E+02  0.97159363337E+02  0.47000000000E+01 0. -1.
        -13    1    4    4    0    0  0.13647789218E+03 -0.69449921121E+02  0.15666732356E+03  0.21907568754E+03  0.00000000000E+00 0.  1.
         14    1    4    4    0    0  0.18013213381E+02 -0.20146540271E+02 -0.63431519979E+01  0.27759584263E+02  0.00000000000E+00 0. -1.
         -5    1    5    5    0  502 -0.86445287673E+02 -0.50266248173E+02  0.88990698603E+02  0.13394371170E+03  0.47000000000E+01 0.  1.
         11    1    6    6    0    0 -0.19786689751E+02  0.20239991035E+02  0.11691962641E+03  0.12029700482E+03  0.00000000000E+00 0. -1.
        -12    1    6    6    0    0 -0.12708084372E+03  0.71455082956E+02  0.16500943527E+03  0.22018965337E+03  0.00000000000E+00 0.  1.
</event>
<event>
12    1  0.9966151E-001  0.1820476E+03  0.7818608E-02  0.1168043E+00
         21   -1    0    0  503  502  0.00000000000E+00  0.00000000000E+00  0.11013301190E+04  0.11013301190E+04  0.00000000000E+00 0. -1.
         21   -1    0    0  501  503 -0.00000000000E+00 -0.00000000000E+00 -0.30059061789E+02  0.30059061789E+02  0.00000000000E+00 0. -1.
          6    2    1    2  501    0 -0.47306337010E+02  0.44293938172E+01  0.39902387586E+03  0.43492840845E+03  0.16638857509E+03 0.  0.
         24    2    3    3    0    0  0.35665610547E+02  0.17744748528E+02  0.18884300123E+03  0.20852228483E+03  0.78949048642E+02 0.  0.
         -6    2    1    2    0  502  0.47306337010E+02 -0.44293938172E+01  0.67224718140E+03  0.69646077238E+03  0.17573794560E+03 0.  0.
        -24    2    5    5    0    0  0.80398964207E+02  0.24846652704E+02  0.60369745653E+03  0.61477011408E+03  0.80064502440E+02 0.  0.
          5    1    3    3  501    0 -0.82971947557E+02 -0.13315354710E+02  0.21018087463E+03  0.22640612362E+03  0.47000000000E+01 0. -1.
        -11    1    4    4    0    0 -0.11948323080E+02  0.34711591251E+02  0.96560389785E+02  0.10330327133E+03  0.00000000000E+00 0.  1.
         12    1    4    4    0    0  0.47613933626E+02 -0.16966842724E+02  0.92282611441E+02  0.10521901350E+03  0.00000000000E+00 0. -1.
         -5    1    5    5    0  502 -0.33092627197E+02 -0.29276046521E+02  0.68549724867E+02  0.81690658303E+02  0.47000000000E+01 0.  1.
         13    1    6    6    0    0  0.76830999344E+02  0.77038113692E+01  0.58097353244E+03  0.58608241448E+03  0.00000000000E+00 0. -1.
        -14    1    6    6    0    0  0.35679648631E+01  0.17142841334E+02  0.22723924093E+02  0.28687699603E+02  0.00000000000E+00 0.  1.
</event>
<event>
12    1  0.9966151E-001  0.1786613E+03  0.7818608E-02  0.1169349E+00
         21   -1    0    0  503  502  0.00000000000E+00  0.00000000000E+00  0.14999206476E+03  0.14999206476E+03  0.00000000000E+00 0. -1.
         21   -1    0    0  501  503 -0.00000000000E+00 -0.00000000000E+00 -0.21391048159E+03  0.21391048159E+03  0.00000000000E+00 0. -1.
          6    2    1    2  501    0  0.12125616523E+01  0.44256722971E+02 -0.13237770813E+02  0.17915102046E+03  0.17308876833E+03 0.  0.
         24    2    3    3    0    0 -0.65193395139E+02  0.19714627140E+02  0.80833218651E+01  0.10506495862E+03  0.79589321800E+02 0.  0.
         -6    2    1    2    0  502 -0.12125616523E+01 -0.44256722971E+02 -0.50680646014E+02  0.18475152589E+03  0.17205949728E+03 0.  0.
        -24    2    5    5    0    0 -0.62065415843E+02 -0.50422888833E+02 -0.19280634685E+02  0.11583750572E+03  0.81559801962E+02 0.  0.
          5    1    3    3  501    0  0.66405956792E+02  0.24542095831E+02 -0.21321092678E+02  0.74086061835E+02  0.47000000000E+01 0. -1.
        -11    1    4    4    0    0 -0.16415012559E+02 -0.97353280268E+01 -0.30693278347E+02  0.36142863539E+02  0.00000000000E+00 0.  1.
         12    1    4    4    0    0 -0.48778382581E+02  0.29449955167E+02  0.38776600212E+02  0.68922095082E+02  0.00000000000E+00 0. -1.
         -5    1    5    5    0  502  0.60852854191E+02  0.61661658620E+01 -0.31400011329E+02  0.68914020171E+02  0.47000000000E+01 0.  1.
         11    1    6    6    0    0 -0.37002152890E+02 -0.68897955405E+02 -0.28702979952E+02  0.83306354114E+02  0.00000000000E+00 0. -1.
        -12    1    6    6    0    0 -0.25063262953E+02  0.18475066572E+02  0.94223452670E+01  0.32531151609E+02  0.00000000000E+00 0.  1.
</event>
<event>
12    1  0.9966151E-001  0.1867678E+03  0.7818608E-02  0.1162133E+00
         21   -1    0    0  501  502  0.00000000000E+00  0.00000000000E+00  0.74105634881E+03  0.74105634881E+03  0.00000000000E+00 0. -1.
         21   -1    0    0  502  503 -0.00000000000E+00 -0.00000000000E+00 -0.46290928436E+02  0.46290928436E+02  0.00000000000E+00 0. -1.
         -6    2    1    2    0  503  0.58518536156E+02  0.26485696370E+02  0.34846256823E+03  0.39535851820E+03  0.17537469963E+03 0.  0.
        -24    2    3    3    0    0  0.55386221627E+02 -0.49848572346E+02  0.22736774777E+03  0.25210078711E+03  0.79411588726E+02 0.  0.
          6    2    1    2  501    0 -0.58518536156E+02 -0.26485696370E+02  0.34630285215E+03  0.39198875905E+03  0.17205699820E+03 0.  0.
         24    2    5    5    0    0 -0.21860275179E+02  0.28090730896E+02  0.84078000937E+02  0.12160684933E+03  0.80325305909E+02 0.  0.
          5    1    5    5  501    0 -0.36658260977E+02 -0.54576427266E+02  0.26222485121E+03  0.27038190972E+03  0.47000000000E+01 0. -1.
        -11    1    6    6    0    0 -0.23865356247E+02 -0.17692485558E+02  0.48808496721E+01  0.30106510384E+02  0.00000000000E+00 0.  1.
         12    1    6    6    0    0  0.20050810676E+01  0.45783216454E+02  0.79197151265E+02  0.91500338947E+02  0.00000000000E+00 0. -1.
         -5    1    3    3    0  503  0.31323145294E+01  0.76334268716E+02  0.12109482046E+03  0.14325773109E+03  0.47000000000E+01 0.  1.
         13    1    4    4    0    0  0.12884293745E+00 -0.47324580531E+02  0.63820413833E+02  0.79452361480E+02  0.00000000000E+00 0. -1.
        -14    1    4    4    0    0  0.55257378689E+02 -0.25239918150E+01  0.16354733394E+03  0.17264842563E+03  0.00000000000E+00 0.  1.
</event>
<event>
12    1  0.9966151E-001  0.2082657E+03  0.7818608E-02  0.1143047E+00
         21   -1    0    0  503  502  0.00000000000E+00  0.00000000000E+00  0.10221584376E+03  0.10221584376E+03  0.00000000000E+00 0. -1.
         21   -1    0    0  501  503 -0.00000000000E+00 -0.00000000000E+00 -0.85868939450E+03  0.85868939450E+03  0.00000000000E+00 0. -1.
          6    2    1    2  501    0  0.10758065430E+03  0.44716227965E+02 -0.35908174042E+02  0.21084586118E+03  0.17202744545E+03 0.  0.
         24    2    3    3    0    0  0.79273943859E+02  0.55051514997E+02  0.38453593206E+02  0.13047266638E+03  0.78926613779E+02 0.  0.
         -6    2    1    2    0  502 -0.10758065430E+03 -0.44716227965E+02 -0.72056537669E+03  0.75005937709E+03  0.17263101936E+03 0.  0.
        -24    2    5    5    0    0 -0.10572192320E+03 -0.88581151958E+02 -0.60075842864E+03  0.62237468247E+03  0.86115098957E+02 0.  0.
          5    1    3    3  501    0  0.28306710439E+02 -0.10335287032E+02 -0.74361767249E+02  0.80373194799E+02  0.47000000000E+01 0. -1.
        -13    1    4    4    0    0  0.68732103145E+02  0.78979239090E+01  0.43763670117E+02  0.81864143720E+02  0.00000000000E+00 0.  1.
         14    1    4    4    0    0  0.10541840714E+02  0.47153591088E+02 -0.53100769103E+01  0.48608522657E+02  0.00000000000E+00 0. -1.
         -5    1    5    5    0  502 -0.18587311000E+01  0.43864923993E+02 -0.11980694805E+03  0.12768469462E+03  0.47000000000E+01 0.  1.
         11    1    6    6    0    0 -0.72892949962E+02 -0.42210793441E+02 -0.19170174588E+03  0.20939124292E+03  0.00000000000E+00 0. -1.
        -12    1    6    6    0    0 -0.32828973236E+02 -0.46370358517E+02 -0.40905668276E+03  0.41298343955E+03  0.00000000000E+00 0.  1.
</event>
<event>
12    1  0.9966151E-001  0.7326207E+03  0.7818608E-02  0.9663136E-01
         21   -1    0    0  503  502  0.00000000000E+00  0.00000000000E+00  0.33618212390E+03  0.33618212390E+03  0.00000000000E+00 0. -1.
         21   -1    0    0  501  503 -0.00000000000E+00 -0.00000000000E+00 -0.17503255151E+04  0.17503255151E+04  0.00000000000E+00 0.  1.
          6    2    1    2  501    0  0.55730665437E+03 -0.44330666660E+03 -0.10170666061E+04  0.12534582485E+04  0.17210924355E+03 0.  0.
         24    2    3    3    0    0  0.50625992866E+03 -0.35687171501E+03 -0.93388545328E+03  0.11230053326E+04  0.73091729617E+02 0.  0.
         -6    2    1    2    0  502 -0.55730665437E+03  0.44330666660E+03 -0.39707678511E+03  0.83304939057E+03  0.17085024494E+03 0.  0.
        -24    2    5    5    0    0 -0.19130826771E+03  0.95190640844E+02 -0.78733115004E+02  0.23596952261E+03  0.61827184988E+02 0.  0.
          5    1    3    3  501    0  0.51046725708E+02 -0.86434951593E+02 -0.83181152847E+02  0.13045291584E+03  0.47000000000E+01 0. -1.
        -11    1    4    4    0    0  0.39669372383E+03 -0.30515350579E+03 -0.71384946947E+03  0.87181743369E+03  0.00000000000E+00 0.  1.
         12    1    4    4    0    0  0.10956620483E+03 -0.51718209220E+02 -0.22003598381E+03  0.25118789895E+03  0.00000000000E+00 0. -1.
         -5    1    5    5    0  502 -0.36599838666E+03  0.34811602576E+03 -0.31834367010E+03  0.59707986796E+03  0.47000000000E+01 0.  1.
         11    1    6    6    0    0 -0.12008293492E+03  0.76528900762E+02 -0.24418824595E+02  0.14447443686E+03  0.00000000000E+00 0. -1.
        -12    1    6    6    0    0 -0.71225332788E+02  0.18661740082E+02 -0.54314290409E+02  0.91495085749E+02  0.00000000000E+00 0.  1.
</event>
<event>
12    1  0.9966151E-001  0.4078738E+03  0.7818608E-02  0.1041290E+00
         21   -1    0    0  503  502  0.00000000000E+00  0.00000000000E+00  0.42244339033E+04  0.42244339033E+04  0.00000000000E+00 0. -1.
         21   -1    0    0  501  503 -0.00000000000E+00 -0.00000000000E+00 -0.54132284586E+02  0.54132284586E+02  0.00000000000E+00 0. -1.
          6    2    1    2  501    0  0.24983978079E+03  0.26671033995E+03  0.32061833586E+04  0.32317208820E+04  0.17565252257E+03 0.  0.
         24    2    3    3    0    0  0.16744260787E+03  0.24148814216E+03  0.20764571281E+04  0.20987032743E+04  0.80794054172E+02 0.  0.
         -6    2    1    2    0  502 -0.24983978079E+03 -0.26671033995E+03  0.96411826010E+03  0.10468453059E+04  0.18112634669E+03 0.  0.
        -24    2    5    5    0    0 -0.98151490963E+02 -0.38229708020E+02  0.28793167744E+03  0.31714459941E+03  0.81122255323E+02 0.  0.
          5    1    3    3  501    0  0.82397172920E+02  0.25222197790E+02  0.11297262305E+04  0.11330176076E+04  0.47000000000E+01 0. -1.
        -13    1    4    4    0    0  0.17554058489E+03  0.22051908207E+03  0.19498269135E+04  0.19700934382E+04  0.00000000000E+00 0.  1.
         14    1    4    4    0    0 -0.80979770186E+01  0.20969060092E+02  0.12663021454E+03  0.12860983612E+03  0.00000000000E+00 0. -1.
         -5    1    5    5    0  502 -0.15168828983E+03 -0.22848063193E+03  0.67618658266E+03  0.72970070646E+03  0.47000000000E+01 0.  1.
         13    1    6    6    0    0 -0.17580616595E+02 -0.95371223240E+01  0.17157120989E+03  0.17273307397E+03  0.00000000000E+00 0. -1.
        -14    1    6    6    0    0 -0.80570874368E+02 -0.28692585696E+02  0.11636046756E+03  0.14441152544E+03  0.00000000000E+00 0.  1.
</event>
<event>
12    1  0.9966151E-001  0.1874094E+03  0.7818608E-02  0.1161633E+00
         21   -1    0    0  501  502  0.00000000000E+00  0.00000000000E+00  0.11476627685E+04  0.11476627685E+04  0.00000000000E+00 0. -1.
         21   -1    0    0  502  503 -0.00000000000E+00 -0.00000000000E+00 -0.30037476107E+02  0.30037476107E+02  0.00000000000E+00 0. -1.
         -6    2    1    2    0  503 -0.60348075283E+02 -0.14032830859E+02  0.54615977620E+03  0.57628931025E+03  0.17314750197E+03 0.  0.
        -24    2    3    3    0    0 -0.68789235309E+01  0.21559243273E+02  0.10816970747E+03  0.13358948392E+03  0.75055606318E+02 0.  0.
          6    2    1    2  501    0  0.60348075283E+02  0.14032830859E+02  0.57146551624E+03  0.60141093440E+03  0.17687132395E+03 0.  0.
         24    2    5    5    0    0  0.10120478735E+03 -0.18565953705E+02  0.44821372987E+03  0.46745181930E+03  0.83836460464E+02 0.  0.
          5    1    5    5  501    0 -0.40856712065E+02  0.32598784565E+02  0.12325178637E+03  0.13395911510E+03  0.47000000000E+01 0. -1.
        -13    1    6    6    0    0  0.82607723646E+01 -0.42933954030E+01 -0.17258563072E+00  0.93114655101E+01  0.00000000000E+00 0.  1.
         14    1    6    6    0    0  0.92944014984E+02 -0.14272558302E+02  0.44838631550E+03  0.45814035379E+03  0.00000000000E+00 0. -1.
         -5    1    3    3    0  503 -0.53469151752E+02 -0.35592074132E+02  0.43799006873E+03  0.44269982633E+03  0.47000000000E+01 0.  1.
         13    1    4    4    0    0 -0.11871917389E+02  0.32528303977E+02  0.11474817610E+03  0.11985898757E+03  0.00000000000E+00 0. -1.
        -14    1    4    4    0    0  0.49929938582E+01 -0.10969060704E+02 -0.65784686335E+01  0.13730496348E+02  0.00000000000E+00 0.  1.
</event>
<event>
12    1  0.9966151E-001  0.2219075E+03  0.7818608E-02  0.1132539E+00
         21   -1    0    0  501  502  0.00000000000E+00  0.00000000000E+00  0.23658382532E+02  0.23658382532E+02  0.00000000000E+00 0.  1.
         21   -1    0    0  502  503 -0.00000000000E+00 -0.00000000000E+00 -0.22910667947E+04  0.22910667947E+04  0.00000000000E+00 0.  1.
         -6    2    1    2    0  503  0.84825216956E+02 -0.11100368240E+03 -0.78152364078E+03  0.81241745983E+03  0.17241169626E+03 0.  0.
        -24    2    3    3    0    0  0.76692834437E+02 -0.10524588726E+03 -0.78587570632E+03  0.80057185623E+03  0.79725676912E+02 0.  0.
          6    2    1    2  501    0 -0.84825216956E+02  0.11100368240E+03 -0.14858847714E+04  0.15023077174E+04  0.17192378827E+03 0.  0.
         24    2    5    5    0    0 -0.25352801618E+02  0.13171043483E+03 -0.11520068157E+04  0.11625102526E+04  0.79498306975E+02 0.  0.
          5    1    5    5  501    0 -0.59472415339E+02 -0.20706752426E+02 -0.33387795573E+03  0.33979746483E+03  0.47000000000E+01 0. -1.
        -13    1    6    6    0    0  0.13086334355E+02 -0.48668085307E+01 -0.93518744360E+02  0.94555240568E+02  0.00000000000E+00 0.  1.
         14    1    6    6    0    0 -0.38439135972E+02  0.13657724336E+03 -0.10584880713E+04  0.10679550120E+04  0.00000000000E+00 0. -1.
         -5    1    3    3    0  503  0.81323825198E+01 -0.57577951440E+01  0.43520655407E+01  0.11845603608E+02  0.47000000000E+01 0.  1.
         13    1    4    4    0    0 -0.18000295217E+01 -0.24311082812E+02 -0.45112658719E+02  0.51277878568E+02  0.00000000000E+00 0. -1.
        -14    1    4    4    0    0  0.78492863958E+02 -0.80934804444E+02 -0.74076304760E+03  0.74929397766E+03  0.00000000000E+00 0.  1.
</event>
<event>
12    1  0.9966151E-001  0.2442396E+03  0.7818608E-02  0.1117217E+00
         21   -1    0    0  503  502  0.00000000000E+00  0.00000000000E+00  0.11931113501E+03  0.11931113501E+03  0.00000000000E+00 0. -1.
         21   -1    0    0  501  503 -0.00000000000E+00 -0.00000000000E+00 -0.13835650026E+04  0.13835650026E+04  0.00000000000E+00 0. -1.
          6    2    1    2  501    0 -0.15075794522E+03 -0.84946775502E+02 -0.12329352686E+04  0.12566367218E+04  0.17047745048E+03 0.  0.
         24    2    3    3    0    0 -0.13241415911E+03 -0.12264212563E+03 -0.96424724674E+03  0.98465735303E+03  0.84869013790E+02 0.  0.
         -6    2    1    2    0  502  0.15075794522E+03  0.84946775502E+02 -0.31318598914E+02  0.24623941580E+03  0.17236322851E+03 0.  0.
        -24    2    5    5    0    0  0.22373027979E+02  0.40113715926E+02  0.30911921800E+02  0.96615160033E+02  0.79178782844E+02 0.  0.
          5    1    3    3  501    0 -0.18343786106E+02  0.37695350132E+02 -0.26868802189E+03  0.27197936873E+03  0.47000000000E+01 0. -1.
        -13    1    4    4    0    0 -0.59922527186E+02 -0.25764686822E+02 -0.18701941998E+03  0.19806764451E+03  0.00000000000E+00 0.  1.
         14    1    4    4    0    0 -0.72491631927E+02 -0.96877438812E+02 -0.77722782676E+03  0.78658970852E+03  0.00000000000E+00 0. -1.
         -5    1    5    5    0  502  0.12838491724E+03  0.44833059576E+02 -0.62230520714E+02  0.14962425577E+03  0.47000000000E+01 0.  1.
         11    1    6    6    0    0  0.43370759477E+02  0.36141391329E+02  0.43981437281E+02  0.71565283274E+02  0.00000000000E+00 0. -1.
        -12    1    6    6    0    0 -0.20997731497E+02  0.39723245963E+01 -0.13069515481E+02  0.25049876759E+02  0.00000000000E+00 0.  1.
</event>
<event>
12    1  0.9966151E-001  0.1819044E+03  0.7818608E-02  0.1166197E+00
         21   -1    0    0  501  502  0.00000000000E+00  0.00000000000E+00  0.29072243866E+02  0.29072243866E+02  0.00000000000E+00 0. -1.
         21   -1    0    0  502  503 -0.00000000000E+00 -0.00000000000E+00 -0.11332028777E+04  0.11332028777E+04  0.00000000000E+00 0. -1.
         -6    2    1    2    0  503  0.21240600620E+02  0.54099098645E+02 -0.56697568713E+03  0.59515552123E+03  0.17137907998E+03 0.  0.
        -24    2    3    3    0    0  0.14966156772E+02  0.57157229590E+02 -0.57498844344E+03  0.58353592252E+03  0.80072017774E+02 0.  0.
          6    2    1    2  501    0 -0.21240600620E+02 -0.54099098645E+02 -0.53715494671E+03  0.56711960035E+03  0.17236974426E+03 0.  0.
         24    2    5    5    0    0 -0.28970967323E+02 -0.92365311391E+02 -0.48826726102E+03  0.50438079721E+03  0.81390433799E+02 0.  0.
          5    1    5    5  501    0  0.77303667038E+01  0.38266212746E+02 -0.48887685695E+02  0.62738803144E+02  0.47000000000E+01 0. -1.
        -13    1    6    6    0    0 -0.14487851177E+02 -0.88928168199E+01 -0.26556363075E+03  0.26610716262E+03  0.00000000000E+00 0.  1.
         14    1    6    6    0    0 -0.14483116146E+02 -0.83472494571E+02 -0.22270363027E+03  0.23827363458E+03  0.00000000000E+00 0. -1.
         -5    1    3    3    0  503  0.62744438480E+01 -0.30581309450E+01  0.80127563103E+01  0.11619598709E+02  0.47000000000E+01 0.  1.
         13    1    4    4    0    0  0.38807385139E+02  0.22496041712E+01 -0.19173236755E+03  0.19563326564E+03  0.00000000000E+00 0. -1.
        -14    1    4    4    0    0 -0.23841228367E+02  0.54907625419E+02 -0.38325607590E+03  0.38790265688E+03  0.00000000000E+00 0.  1.
</event>
<event>
12    1  0.9966151E-001  0.1790482E+03  0.7818608E-02  0.1168836E+00
         21   -1    0    0  503  502  0.00000000000E+00  0.00000000000E+00  0.53458697178E+03  0.53458697178E+03  0.00000000000E+00 0. -1.
         21   -1    0    0  501  503 -0.00000000000E+00 -0.00000000000E+00 -0.28874935312E+03  0.28874935312E+03  0.00000000000E+00 0. -1.
          6    2    1    2  501    0 -0.41469226708E+02 -0.25870192475E+02  0.48950528779E+03  0.52122326137E+03  0.17224778025E+03 0.  0.
         24    2    3    3    0    0 -0.86092736905E+02 -0.49860779282E+02  0.35169441631E+03  0.37431944177E+03  0.80796196462E+02 0.  0.
         -6    2    1    2    0  502  0.41469226708E+02  0.25870192475E+02 -0.24366766912E+03  0.30211306353E+03  0.17178302174E+03 0.  0.
        -24    2    5    5    0    0 -0.24766958398E+02 -0.30882445309E+02 -0.99221015181E+02  0.13330838366E+03  0.79744514818E+02 0.  0.
          5    1    3    3  501    0  0.44623510197E+02  0.23990586807E+02  0.13781087147E+03  0.14690381960E+03  0.47000000000E+01 0. -1.
        -13    1    4    4    0    0 -0.36912388052E+02 -0.50563547822E+02  0.28294087363E+03  0.28978394492E+03  0.00000000000E+00 0.  1.
         14    1    4    4    0    0 -0.49180348853E+02  0.70276853959E+00  0.68753542680E+02  0.84535496852E+02  0.00000000000E+00 0. -1.
         -5    1    5    5    0  502  0.66236185105E+02  0.56752637784E+02 -0.14444665394E+03  0.16880467987E+03  0.47000000000E+01 0.  1.
         11    1    6    6    0    0 -0.20524063411E+02 -0.50747402047E+02 -0.98846531778E+02  0.11299191492E+03  0.00000000000E+00 0. -1.
        -12    1    6    6    0    0 -0.42428949864E+01  0.19864956738E+02 -0.37448340326E+00  0.20316468736E+02  0.00000000000E+00 0.  1.
</event>
<event>
12    1  0.9966151E-001  0.1884725E+03  0.7818608E-02  0.1160266E+00
         21   -1    0    0  501  502  0.00000000000E+00  0.00000000000E+00  0.99391390969E+03  0.99391390969E+03  0.00000000000E+00 0. -1.
         21   -1    0    0  502  503 -0.00000000000E+00 -0.00000000000E+00 -0.64013922264E+02  0.64013922264E+02  0.00000000000E+00 0. -1.
         -6    2    1    2    0  503  0.55275288519E+02  0.48994504051E+02  0.81989739779E+03  0.84128094316E+03  0.17339568475E+03 0.  0.
        -24    2    3    3    0    0 -0.36704167049E+02  0.19152977112E+02  0.46733724959E+03  0.47566983136E+03  0.78381446813E+02 0.  0.
          6    2    1    2  501    0 -0.55275288519E+02 -0.48994504051E+02  0.11000258964E+03  0.21664688879E+03  0.17140445078E+03 0.  0.
         24    2    5    5    0    0 -0.61533205628E+02 -0.33548371341E+02  0.14373222754E+03  0.17873220806E+03  0.79839967116E+02 0.  0.
          5    1    5    5  501    0  0.62579171088E+01 -0.15446132710E+02 -0.33729637899E+02  0.37914680732E+02  0.47000000000E+01 0. -1.
        -13    1    6    6    0    0  0.14864630815E+02 -0.25206717917E+02  0.35888033204E+02  0.46306444526E+02  0.00000000000E+00 0.  1.
         14    1    6    6    0    0 -0.76397836443E+02 -0.83416534245E+01  0.10784419434E+03  0.13242576353E+03  0.00000000000E+00 0. -1.
         -5    1    3    3    0  503  0.91979455568E+02  0.29841526938E+02  0.35256014820E+03  0.36561111180E+03  0.47000000000E+01 0.  1.
         13    1    4    4    0    0  0.26027418217E+01  0.20818531696E+02  0.30239288442E+02  0.36804892235E+02  0.00000000000E+00 0. -1.
        -14    1    4    4    0    0 -0.39306908871E+02 -0.16655545833E+01  0.43709796114E+03  0.43886493913E+03  0.00000000000E+00 0.  1.
</event>
<event>
12    1  0.9966151E-001  0.1857703E+03  0.7818608E-02  0.1163563E+00
         21   -1    0    0  501  502  0.00000000000E+00  0.00000000000E+00  0.20058726178E+03  0.20058726178E+03  0.00000000000E+00 0.  1.
         21   -1    0    0  502  503 -0.00000000000E+00 -0.00000000000E+00 -0.17622642021E+03  0.17622642021E+03  0.00000000000E+00 0.  1.
         -6    2    1    2    0  503 -0.38687716629E+01 -0.57824996242E+02  0.54866547290E+02  0.19370323602E+03  0.17649903129E+03 0.  0.
        -24    2    3    3    0    0  0.23624192013E+02 -0.90990975793E+02 -0.30629712731E+00  0.12354642585E+03  0.80163366942E+02 0.  0.
          6    2    1    2  501    0  0.38687716629E+01  0.57824996242E+02 -0.30505705722E+02  0.18311044598E+03  0.17099748466E+03 0.  0.
         24    2    5    5    0    0  0.49833004544E+02  0.60794911754E+02 -0.61760546493E+02  0.12724913402E+03  0.78731362036E+02 0.  0.
          5    1    5    5  501    0 -0.45964232881E+02 -0.29699155125E+01  0.31254840771E+02  0.55861311962E+02  0.47000000000E+01 0. -1.
        -13    1    6    6    0    0  0.54136314589E+02  0.90447391910E+01 -0.13878280120E+02  0.56614084144E+02  0.00000000000E+00 0.  1.
         14    1    6    6    0    0 -0.43033100449E+01  0.51750172563E+02 -0.47882266373E+02  0.70635049874E+02  0.00000000000E+00 0. -1.
         -5    1    3    3    0  503 -0.27492963676E+02  0.33165979551E+02  0.55172844417E+02  0.70156810164E+02  0.47000000000E+01 0.  1.
         13    1    4    4    0    0  0.32921309504E+02 -0.12558189788E+02 -0.22125644582E+02  0.41606068047E+02  0.00000000000E+00 0. -1.
        -14    1    4    4    0    0 -0.92971174906E+01 -0.78432786005E+02  0.21819347455E+02  0.81940357807E+02  0.00000000000E+00 0.  1.
</event>
<event>
12    1  0.9966151E-001  0.3543427E+03  0.7818608E-02  0.1060863E+00
         21   -1    0    0  503  502  0.00000000000E+00  0.00000000000E+00  0.31555240129E+03  0.31555240129E+03  0.00000000000E+00 0. -1.
         21   -1    0    0  501  503 -0.00000000000E+00 -0.00000000000E+00 -0.47617665322E+03  0.47617665322E+03  0.00000000000E+00 0. -1.
          6    2    1    2  501    0  0.34846926795E+02 -0.30965919280E+03 -0.24098292870E+03  0.42838866283E+03  0.16834770720E+03 0.  0.
         24    2    3    3    0    0 -0.11909118860E+02 -0.28012123346E+03 -0.22210772518E+03  0.36976288219E+03  0.93717740656E+02 0.  0.
         -6    2    1    2    0  502 -0.34846926795E+02  0.30965919280E+03  0.80358676775E+02  0.36334039169E+03  0.16868787540E+03 0.  0.
        -24    2    5    5    0    0 -0.14172219270E+01  0.30607867284E+03  0.87912362644E+02  0.32856233164E+03  0.80860743123E+02 0.  0.
          5    1    3    3  501    0  0.46756045655E+02 -0.29537959341E+02 -0.18875203520E+02  0.58625780637E+02  0.47000000000E+01 0. -1.
        -13    1    4    4    0    0  0.10875012176E+02 -0.13885355781E+03 -0.54958379655E+02  0.14972975623E+03  0.00000000000E+00 0.  1.
         14    1    4    4    0    0 -0.22784131037E+02 -0.14126767565E+03 -0.16714934553E+03  0.22003312596E+03  0.00000000000E+00 0. -1.
         -5    1    5    5    0  502 -0.33429704868E+02  0.35805199585E+01 -0.75536858689E+01  0.34778060052E+02  0.47000000000E+01 0.  1.
         11    1    6    6    0    0 -0.25616434311E+02  0.12404758668E+03  0.68244475233E+02  0.14387951163E+03  0.00000000000E+00 0. -1.
        -12    1    6    6    0    0  0.24199212384E+02  0.18203108616E+03  0.19667887411E+02  0.18468282000E+03  0.00000000000E+00 0.  1.
</event>
<event>
12    1  0.9966151E-001  0.1833542E+03  0.7818608E-02  0.1164994E+00
         21   -1    0    0  503  502  0.00000000000E+00  0.00000000000E+00  0.36897457167E+03  0.36897457167E+03  0.00000000000E+00 0.  1.
         21   -1    0    0  501  503 -0.00000000000E+00 -0.00000000000E+00 -0.10189175234E+03  0.10189175234E+03  0.00000000000E+00 0.  1.
          6    2    1    2  501    0  0.39748403380E+02 -0.38627007973E+02  0.21355652584E+03  0.28146964496E+03  0.17477639997E+03 0.  0.
         24    2    3    3    0    0  0.75711043340E+02  0.10143635257E+02  0.18157311725E+03  0.21278984051E+03  0.80471509831E+02 0.  0.
         -6    2    1    2    0  502 -0.39748403380E+02  0.38627007973E+02  0.53526293497E+02  0.18939667905E+03  0.17301461391E+03 0.  0.
        -24    2    5    5    0    0 -0.33669690519E+02 -0.81138326506E+01  0.92095702822E+02  0.12831193245E+03  0.82358066942E+02 0.  0.
          5    1    3    3  501    0 -0.35962639961E+02 -0.48770643229E+02  0.31983408588E+02  0.68679804447E+02  0.47000000000E+01 0. -1.
        -11    1    4    4    0    0  0.52503429213E+02 -0.21655504331E+02  0.15556272247E+03  0.16560595270E+03  0.00000000000E+00 0.  1.
         12    1    4    4    0    0  0.23207614127E+02  0.31799139588E+02  0.26010394783E+02  0.47183887809E+02  0.00000000000E+00 0. -1.
         -5    1    5    5    0  502 -0.60787128605E+01  0.46740840623E+02 -0.38569409324E+02  0.61084746605E+02  0.47000000000E+01 0.  1.
         11    1    6    6    0    0  0.18366874539E+02  0.15740333735E+02  0.59983074498E+01  0.24921474248E+02  0.00000000000E+00 0. -1.
        -12    1    6    6    0    0 -0.52036565059E+02 -0.23854166386E+02  0.86097395372E+02  0.10339045820E+03  0.00000000000E+00 0.  1.
</event>
<event>
12    1  0.9966151E-001  0.2083326E+03  0.7818608E-02  0.1143463E+00
         21   -1    0    0  501  502  0.00000000000E+00  0.00000000000E+00  0.45151041774E+02  0.45151041774E+02  0.00000000000E+00 0.  1.
         21   -1    0    0  502  503 -0.00000000000E+00 -0.00000000000E+00 -0.97105691934E+03  0.97105691934E+03  0.00000000000E+00 0.  1.
         -6    2    1    2    0  503 -0.68181867850E+01  0.11238476028E+03 -0.53769775307E+03  0.57563106207E+03  0.17191691003E+03 0.  0.
        -24    2    3    3    0    0  0.40693610156E+02  0.34545672709E+02 -0.39458750363E+03  0.40586967690E+03  0.78622663353E+02 0.  0.
          6    2    1    2  501    0  0.68181867850E+01 -0.11238476028E+03 -0.38820812449E+03  0.44057689904E+03  0.17528728997E+03 0.  0.
         24    2    5    5    0    0  0.11606132891E+02 -0.78859015975E+02 -0.38948079967E+03  0.40636272564E+03  0.84154172526E+02 0.  0.
          5    1    5    5  501    0 -0.47879461057E+01 -0.33525744309E+02  0.12726751761E+01  0.34214173401E+02  0.47000000000E+01 0. -1.
        -11    1    6    6    0    0 -0.31555593452E+02 -0.10087782467E+02 -0.14559883956E+03  0.14932026291E+03  0.00000000000E+00 0.  1.
         12    1    6    6    0    0  0.43161726342E+02 -0.68771233509E+02 -0.24388196011E+03  0.25704246273E+03  0.00000000000E+00 0. -1.
         -5    1    3    3    0  503 -0.47511796941E+02  0.77839087576E+02 -0.14311024944E+03  0.16976138518E+03  0.47000000000E+01 0.  1.
         11    1    4    4    0    0  0.10793613467E+02  0.31688605169E+02 -0.51210969863E+02  0.61181968124E+02  0.00000000000E+00 0. -1.
        -12    1    4    4    0    0  0.29899996689E+02  0.28570675398E+01 -0.34337653377E+03  0.34468770877E+03  0.00000000000E+00 0.  1.
</event>
<event>
12    1  0.9966151E-001  0.4074390E+03  0.7818608E-02  0.1041314E+00
         21   -1    0    0  503  502  0.00000000000E+00  0.00000000000E+00  0.70580163359E+03  0.70580163359E+03  0.00000000000E+00 0.  1.
         21   -1    0    0  501  503 -0.00000000000E+00 -0.00000000000E+00 -0.31611164924E+03  0.31611164924E+03  0.00000000000E+00 0.  1.
          6    2    1    2  501    0 -0.12258505621E+03  0.34798425494E+03  0.45405186904E+03  0.60942210196E+03  0.17062256850E+03 0.  0.
         24    2    3    3    0    0 -0.19764939756E+02  0.23846758147E+03  0.32580884342E+03  0.41185124951E+03  0.78820105412E+02 0.  0.
         -6    2    1    2    0  502  0.12258505621E+03 -0.34798425494E+03 -0.64361884691E+02  0.41249118087E+03  0.17287678964E+03 0.  0.
        -24    2    5    5    0    0  0.13063624994E+03 -0.31424812179E+03 -0.12653023052E+02  0.35005045079E+03  0.80978437011E+02 0.  0.
          5    1    3    3  501    0 -0.10282011646E+03  0.10951667348E+03  0.12824302562E+03  0.19757085245E+03  0.47000000000E+01 0. -1.
        -11    1    4    4    0    0 -0.38863205229E+02  0.15190513822E+03  0.16112778123E+03  0.22482811573E+03  0.00000000000E+00 0.  1.
         12    1    4    4    0    0  0.19098265473E+02  0.86562443247E+02  0.16468106219E+03  0.18702313378E+03  0.00000000000E+00 0. -1.
         -5    1    5    5    0  502 -0.80511937221E+01 -0.33736133156E+02 -0.51708861640E+02  0.62440730079E+02  0.47000000000E+01 0.  1.
         11    1    6    6    0    0  0.85581921513E+02 -0.27122260400E+03 -0.28323437705E+02  0.28581144717E+03  0.00000000000E+00 0. -1.
        -12    1    6    6    0    0  0.45054328424E+02 -0.43025517792E+02  0.15670414654E+02  0.64239003623E+02  0.00000000000E+00 0.  1.
</event>
<event>
12    1  0.9966151E-001  0.3581851E+03  0.7818608E-02  0.1059392E+00
         21   -1    0    0  503  502  0.00000000000E+00  0.00000000000E+00  0.15044598702E+03  0.15044598702E+03  0.00000000000E+00 0.  1.
         21   -1    0    0  501  503 -0.00000000000E+00 -0.00000000000E+00 -0.93164018942E+03  0.93164018942E+03  0.00000000000E+00 0.  1.
          6    2    1    2  501    0  0.22697982334E+03  0.21679745956E+03 -0.23067182886E+03  0.42529742899E+03  0.17072618955E+03 0.  0.
         24    2    3    3    0    0  0.53004741564E+02  0.63379802478E+02 -0.29349725954E+02  0.11812160686E+03  0.79150524966E+02 0.  0.
         -6    2    1    2    0  502 -0.22697982334E+03 -0.21679745956E+03 -0.55052237354E+03  0.65678874745E+03  0.17255606724E+03 0.  0.
        -24    2    5    5    0    0 -0.19757653249E+03 -0.18568111732E+03 -0.34166059495E+03  0.44353276789E+03  0.80469811273E+02 0.  0.
          5    1    3    3  501    0  0.17397508178E+03  0.15341765708E+03 -0.20132210291E+03  0.30717582213E+03  0.47000000000E+01 0. -1.
        -13    1    4    4    0    0  0.41408962820E+02  0.32776968800E+02  0.22015932636E+02  0.57216546343E+02  0.00000000000E+00 0.  1.
         14    1    4    4    0    0  0.11595778744E+02  0.30602833678E+02 -0.51365658591E+02  0.60905060514E+02  0.00000000000E+00 0. -1.
         -5    1    5    5    0  502 -0.29403290853E+02 -0.31116342240E+02 -0.20886177858E+03  0.21325597957E+03  0.47000000000E+01 0.  1.
         13    1    6    6    0    0 -0.19728447053E+03 -0.18684168456E+03 -0.34547963487E+03  0.43953060817E+03  0.00000000000E+00 0. -1.
        -14    1    6    6    0    0 -0.29206196560E+00  0.11605672448E+01  0.38190399214E+01  0.40021597223E+01  0.00000000000E+00 0.  1.
</event>
<event>
12    1  0.9966151E-001  0.2423355E+03  0.7818608E-02  0.1118460E+00
         21   -1    0    0  501  502  0.00000000000E+00  0.00000000000E+00  0.18904879645E+04  0.18904879645E+04  0.00000000000E+00 0. -1.
         21   -1    0    0  502  503 -0.00000000000E+00 -0.00000000000E+00 -0.64758398729E+02  0.64758398729E+02  0.00000000000E+00 0. -1.
         -6    2    1    2    0  503 -0.16672875329E+03 -0.33296241258E+02  0.16186105761E+04  0.16364599833E+04  0.17086241015E+03 0.  0.
        -24    2    3    3    0    0 -0.33815631877E+02 -0.52212206051E+02  0.86453889183E+03  0.87051618216E+03  0.80630741653E+02 0.  0.
          6    2    1    2  501    0  0.16672875329E+03  0.33296241258E+02  0.20711898975E+03  0.31878637995E+03  0.17268284012E+03 0.  0.
         24    2    5    5    0    0  0.18809858417E+03  0.13834217762E+02  0.20602966814E+03  0.28948251242E+03  0.76022614348E+02 0.  0.
          5    1    5    5  501    0 -0.21369830885E+02  0.19462023496E+02  0.10893216020E+01  0.29303867529E+02  0.47000000000E+01 0. -1.
        -13    1    6    6    0    0  0.12668856833E+03 -0.26970670144E+02  0.12705333309E+03  0.18143858421E+03  0.00000000000E+00 0.  1.
         14    1    6    6    0    0  0.61410015845E+02  0.40804887906E+02  0.78976335059E+02  0.10804392821E+03  0.00000000000E+00 0. -1.
         -5    1    3    3    0  503 -0.13291312141E+03  0.18915964793E+02  0.75407168424E+03  0.76594380116E+03  0.47000000000E+01 0.  1.
         13    1    4    4    0    0  0.19052025388E+02 -0.31786514249E+02  0.18867248320E+03  0.19227758080E+03  0.00000000000E+00 0. -1.
        -14    1    4    4    0    0 -0.52867657264E+02 -0.20425691802E+02  0.67586640863E+03  0.67823860136E+03  0.00000000000E+00 0.  1.
</event>
<event>
12    1  0.9966151E-001  0.3387456E+03  0.7818608E-02  0.1067338E+00
         21   -1    0    0  501  502  0.00000000000E+00  0.00000000000E+00  0.38936245392E+03  0.38936245392E+03  0.00000000000E+00 0.  1.
         21   -1    0    0  502  503 -0.00000000000E+00 -0.00000000000E+00 -0.42299764320E+03  0.42299764320E+03  0.00000000000E+00 0.  1.
         -6    2    1    2    0  503  0.28055907496E+03 -0.81572743425E+02 -0.24055430717E+03  0.41546958067E+03  0.17140913265E+03 0.  0.
        -24    2    3    3    0    0  0.21983096979E+03 -0.38580846624E+02 -0.10201802299E+03  0.25814635295E+03  0.80110707895E+02 0.  0.
          6    2    1    2  501    0 -0.28055907496E+03  0.81572743425E+02  0.20691911789E+03  0.39689051644E+03  0.17128646671E+03 0.  0.
         24    2    5    5    0    0 -0.13422135608E+03  0.49223125469E+01  0.15490260918E+03  0.22363399074E+03  0.89318205823E+02 0.  0.
          5    1    5    5  501    0 -0.14633771888E+03  0.76650430878E+02  0.52016508701E+02  0.17325652570E+03  0.47000000000E+01 0. -1.
        -11    1    6    6    0    0 -0.47967327285E+02 -0.31846865470E+02  0.23454173686E+02  0.62170616777E+02  0.00000000000E+00 0.  1.
         12    1    6    6    0    0 -0.86254028800E+02  0.36769178016E+02  0.13144843550E+03  0.16146337396E+03  0.00000000000E+00 0. -1.
         -5    1    3    3    0  503  0.60728105170E+02 -0.42991896801E+02 -0.13853628418E+03  0.15732322773E+03  0.47000000000E+01 0.  1.
         11    1    4    4    0    0  0.93147443316E+01  0.46194663903E+01  0.11167972962E+02  0.15258687748E+02  0.00000000000E+00 0. -1.
        -12    1    4    4    0    0  0.21051622546E+03 -0.43200313015E+02 -0.11318599595E+03  0.24288766520E+03  0.00000000000E+00 0.  1.
</event>
<event>
12    1  0.9966151E-001  0.2515909E+03  0.7818608E-02  0.1113702E+00
         21   -1    0    0  501  502  0.00000000000E+00  0.00000000000E+00  0.31123751358E+03  0.31123751358E+03  0.00000000000E+00 0.  1.
         21   -1    0    0  502  503 -0.00000000000E+00 -0.00000000000E+00 -0.26418970160E+03  0.26418970160E+03  0.00000000000E+00 0.  1.
         -6    2    1    2    0  503 -0.15081110386E+03  0.82534003667E+02  0.16960344974E+03  0.30341937625E+03  0.18369032885E+03 0.  0.
        -24    2    3    3    0    0 -0.71505132409E+02  0.98322922088E+02  0.37683337586E+02  0.14861713775E+03  0.76724433748E+02 0.  0.
          6    2    1    2  501    0  0.15081110386E+03 -0.82534003667E+02 -0.12255563776E+03  0.27200783893E+03  0.17150081424E+03 0.  0.
         24    2    5    5    0    0  0.44235769871E+02 -0.41922164040E+02 -0.12156292803E+03  0.15785575264E+03  0.80166214805E+02 0.  0.
          5    1    5    5  501    0  0.10657533399E+03 -0.40611839627E+02 -0.99270973286E+00  0.11415208629E+03  0.47000000000E+01 0. -1.
        -11    1    6    6    0    0  0.18976664841E+02  0.23600329150E+02 -0.41238904523E+02  0.51163821112E+02  0.00000000000E+00 0.  1.
         12    1    6    6    0    0  0.25259105030E+02 -0.65522493190E+02 -0.80324023504E+02  0.10669193153E+03  0.00000000000E+00 0. -1.
         -5    1    3    3    0  503 -0.79305971447E+02 -0.15788918421E+02  0.13192011215E+03  0.15480223849E+03  0.47000000000E+01 0.  1.
         13    1    4    4    0    0 -0.34183504269E+02  0.91122675876E+02  0.33253427975E+01  0.97380244031E+02  0.00000000000E+00 0. -1.
        -14    1    4    4    0    0 -0.37321628140E+02  0.72002462124E+01  0.34357994788E+02  0.51236893724E+02  0.00000000000E+00 0.  1.
</event>
<event>
12    1  0.9966151E-001  0.1944082E+03  0.7818608E-02  0.1155373E+00
         21   -1    0    0  503  502  0.00000000000E+00  0.00000000000E+00  0.73079518749E+02  0.73079518749E+02  0.00000000000E+00 0. -1.
         21   -1    0    0  501  503 -0.00000000000E+00 -0.00000000000E+00 -0.68055885804E+03  0.68055885804E+03  0.00000000000E+00 0. -1.
          6    2    1    2  501    0 -0.79670981913E+02 -0.18533392213E+02 -0.49609366862E+03  0.53282594290E+03  0.17636214276E+03 0.  0.
         24    2    3    3    0    0 -0.77801637641E+02 -0.59758633488E+02 -0.28138665974E+03  0.31413848412E+03  0.99399928723E+02 0.  0.
         -6    2    1    2    0  502  0.79670981913E+02  0.18533392213E+02 -0.11138567067E+03  0.22081243388E+03  0.17222198275E+03 0.  0.
        -24    2    5    5    0    0 -0.22091659691E+02 -0.71835175399E+01 -0.24641555034E+02  0.84564034735E+02  0.77486936860E+02 0.  0.
          5    1    3    3  501    0 -0.18693442713E+01  0.41225241275E+02 -0.21470700888E+03  0.21868745878E+03  0.47000000000E+01 0. -1.
        -11    1    4    4    0    0 -0.31615472328E+02  0.20783366666E+02 -0.13976890290E+03  0.14479928397E+03  0.00000000000E+00 0.  1.
         12    1    4    4    0    0 -0.46186165313E+02 -0.80542000154E+02 -0.14161775684E+03  0.16933920015E+03  0.00000000000E+00 0. -1.
         -5    1    5    5    0  502  0.10176264160E+03  0.25716909753E+02 -0.86744115635E+02  0.13624839915E+03  0.47000000000E+01 0.  1.
         13    1    6    6    0    0  0.20923641436E+02 -0.23815958862E+02 -0.21567850620E+02  0.38342806990E+02  0.00000000000E+00 0. -1.
        -14    1    6    6    0    0 -0.43015301127E+02  0.16632441322E+02 -0.30737044133E+01  0.46221227745E+02  0.00000000000E+00 0.  1.
</event>
<event>
12    1  0.9966151E-001  0.2923851E+03  0.7818608E-02  0.1089157E+00
         21   -1    0    0  503  502  0.00000000000E+00  0.00000000000E+00  0.15592068132E+04  0.15592068132E+04  0.00000000000E+00 0. -1.
         21   -1    0    0  501  503 -0.00000000000E+00 -0.00000000000E+00 -0.66863902643E+02  0.66863902643E+02  0.00000000000E+00 0. -1.
          6    2    1    2  501    0  0.18422878560E+03  0.14892441411E+03  0.39988804527E+03  0.49516547072E+03  0.17076202178E+03 0.  0.
         24    2    3    3    0    0  0.21357677298E+02  0.50655100203E+02  0.92894777826E+02  0.13398572014E+03  0.79376595399E+02 0.  0.
         -6    2    1    2    0  502 -0.18422878560E+03 -0.14892441411E+03  0.10924548653E+04  0.11309052451E+04  0.17137769456E+03 0.  0.
        -24    2    5    5    0    0 -0.43692753497E+02 -0.34907137233E+01  0.35145592936E+03  0.36278881477E+03  0.78569790962E+02 0.  0.
          5    1    3    3  501    0  0.16287110831E+03  0.98269313905E+02  0.30699326744E+03  0.36117975058E+03  0.47000000000E+01 0. -1.
        -13    1    4    4    0    0  0.30930415073E+02 -0.11959566453E+02  0.29888003677E+02  0.44643191755E+02  0.00000000000E+00 0.  1.
         14    1    4    4    0    0 -0.95727377754E+01  0.62614666655E+02  0.63006774149E+02  0.89342528381E+02  0.00000000000E+00 0. -1.
         -5    1    5    5    0  502 -0.14053603211E+03 -0.14543370038E+03  0.74099893594E+03  0.76811643036E+03  0.47000000000E+01 0.  1.
         11    1    6    6    0    0  0.50804629079E+01 -0.20940321523E+01 -0.20993839169E+01  0.58824728511E+01  0.00000000000E+00 0. -1.
        -12    1    6    6    0    0 -0.48773216405E+02 -0.13966815710E+01  0.35355531327E+03  0.35690634192E+03  0.00000000000E+00 0.  1.
</event>
<event>
12    1  0.9966151E-001  0.2304803E+03  0.7818608E-02  0.1126426E+00
         21   -1    0    0  503  502  0.00000000000E+00  0.00000000000E+00  0.29220549205E+03  0.29220549205E+03  0.00000000000E+00 0.  1.
         21   -1    0    0  501  503 -0.00000000000E+00 -0.00000000000E+00 -0.18594200687E+03  0.18594200687E+03  0.00000000000E+00 0.  1.
          6    2    1    2  501    0  0.15330399157E+03  0.53452543187E+01  0.15030451227E+02  0.23026723976E+03  0.17107425776E+03 0.  0.
         24    2    3    3    0    0  0.10745302252E+02  0.17375999283E+02 -0.15679212634E+02  0.83867471388E+02  0.79815588557E+02 0.  0.
         -6    2    1    2    0  502 -0.15330399157E+03 -0.53452543187E+01  0.91233033958E+02  0.24788025916E+03  0.17201880950E+03 0.  0.
        -24    2    5    5    0    0 -0.40337999925E+02  0.53378502265E+02  0.53819218501E+02  0.11509592860E+03  0.76642975925E+02 0.  0.
          5    1    3    3  501    0  0.14255868932E+03 -0.12030744964E+02  0.30709663861E+02  0.14639976837E+03  0.47000000000E+01 0. -1.
        -13    1    4    4    0    0 -0.76433894639E+01  0.20447876815E+02  0.28509273258E+02  0.35907042908E+02  0.00000000000E+00 0.  1.
         14    1    4    4    0    0  0.18388691716E+02 -0.30718775320E+01 -0.44188485891E+02  0.47960428480E+02  0.00000000000E+00 0. -1.
         -5    1    5    5    0  502 -0.11296599164E+03 -0.58723756584E+02  0.37413815457E+02  0.13278433056E+03  0.47000000000E+01 0.  1.
         13    1    6    6    0    0 -0.40689086592E+02  0.16276897223E+02 -0.64754152894E+01  0.44299776005E+02  0.00000000000E+00 0. -1.
        -14    1    6    6    0    0  0.35108666696E+00  0.37101605042E+02  0.60294633791E+02  0.70796152596E+02  0.00000000000E+00 0.  1.
</event>
<event>
12    1  0.9966151E-001  0.4215182E+03  0.7818608E-02  0.1037350E+00
         21   -1    0    0  503  502  0.00000000000E+00  0.00000000000E+00  0.32355676126E+03  0.32355676126E+03  0.00000000000E+00 0.  1.
         21   -1    0    0  501  503 -0.00000000000E+00 -0.00000000000E+00 -0.58981551350E+03  0.58981551350E+03  0.00000000000E+00 0.  1.
          6    2    1    2  501    0  0.40711134849E+02 -0.37232662591E+03  0.23257457425E+01  0.42152466380E+03  0.19337300804E+03 0.  0.
         24    2    3    3    0    0  0.28499386137E+02 -0.19473836545E+03  0.80855126938E+02  0.22690793592E+03  0.78831553603E+02 0.  0.
         -6    2    1    2    0  502 -0.40711134849E+02  0.37232662591E+03 -0.26858449798E+03  0.49184761095E+03  0.17173213729E+03 0.  0.
        -24    2    5    5    0    0 -0.52392441035E+02  0.32254528336E+03 -0.16032749278E+03  0.37202981530E+03  0.76947065136E+02 0.  0.
          5    1    3    3  501    0  0.12211748713E+02 -0.17758826046E+03 -0.78529381196E+02  0.19461672788E+03  0.47000000000E+01 0. -1.
        -11    1    4    4    0    0  0.57681785070E+00 -0.60114135831E+02  0.64949824913E+02  0.88501535589E+02  0.00000000000E+00 0.  1.
         12    1    4    4    0    0  0.27922568286E+02 -0.13462422962E+03  0.15905302025E+02  0.13840640033E+03  0.00000000000E+00 0. -1.
         -5    1    5    5    0  502  0.11681306186E+02  0.49781342551E+02 -0.10825700520E+03  0.11981779565E+03  0.47000000000E+01 0.  1.
         11    1    6    6    0    0 -0.18919773277E+02  0.21070753061E+03 -0.13960250310E+03  0.25346494856E+03  0.00000000000E+00 0. -1.
        -12    1    6    6    0    0 -0.33472667758E+02  0.11183775276E+03 -0.20724989682E+02  0.11856486674E+03  0.00000000000E+00 0.  1.
</event>
<event>
12    1  0.9966151E-001  0.2249643E+03  0.7818608E-02  0.1130272E+00
         21   -1    0    0  501  502  0.00000000000E+00  0.00000000000E+00  0.50424038454E+02  0.50424038454E+02  0.00000000000E+00 0.  1.
         21   -1    0    0  502  503 -0.00000000000E+00 -0.00000000000E+00 -0.20623489096E+04  0.20623489096E+04  0.00000000000E+00 0. -1.
         -6    2    1    2    0  503 -0.13135879632E+03 -0.61408410853E+02 -0.24854822946E+03  0.33510422217E+03  0.17173377959E+03 0.  0.
        -24    2    3    3    0    0 -0.41284837383E+02 -0.79881320823E+02 -0.19358005437E+03  0.22787476374E+03  0.79801048155E+02 0.  0.
          6    2    1    2  501    0  0.13135879632E+03  0.61408410853E+02 -0.17633766416E+04  0.17776687258E+04  0.17199648911E+03 0.  0.
         24    2    5    5    0    0  0.12170638369E+03  0.52358666185E+02 -0.17540666536E+04  0.17608213870E+04  0.78665481207E+02 0.  0.
          5    1    5    5  501    0  0.96524126334E+01  0.90497446683E+01 -0.93099880277E+01  0.16847338819E+02  0.47000000000E+01 0. -1.
        -11    1    6    6    0    0  0.82696561518E+02 -0.64600509436E+01 -0.10217501179E+04  0.10251115826E+04  0.00000000000E+00 0.  1.
         12    1    6    6    0    0  0.39009822170E+02  0.58818717128E+02 -0.73231653576E+03  0.73570980438E+03  0.00000000000E+00 0. -1.
         -5    1    3    3    0  503 -0.90073958938E+02  0.18472909970E+02 -0.54968175099E+02  0.10722945843E+03  0.47000000000E+01 0.  1.
         11    1    4    4    0    0 -0.51234056068E+02 -0.13978732484E+02 -0.75957973701E+02  0.92681968213E+02  0.00000000000E+00 0. -1.
        -12    1    4    4    0    0  0.99492186850E+01 -0.65902588339E+02 -0.11762208066E+03  0.13519279553E+03  0.00000000000E+00 0.  1.
</event>
<event>
12    1  0.9966151E-001  0.2359319E+03  0.7818608E-02  0.1122561E+00
         21   -1    0    0  503  502  0.00000000000E+00  0.00000000000E+00  0.54588997333E+03  0.54588997333E+03  0.00000000000E+00 0. -1.
         21   -1    0    0  501  503 -0.00000000000E+00 -0.00000000000E+00 -0.10206566428E+03  0.10206566428E+03  0.00000000000E+00 0. -1.
          6    2    1    2  501    0  0.16026963380E+03 -0.15830074689E+02  0.20880133341E+03  0.31505852278E+03  0.17241499110E+03 0.  0.
         24    2    3    3    0    0  0.10028587655E+03  0.56607091055E+02  0.14172685467E+03  0.19944593777E+03  0.80190778542E+02 0.  0.
         -6    2    1    2    0  502 -0.16026963380E+03  0.15830074689E+02  0.23502297563E+03  0.33289711483E+03  0.17218520032E+03 0.  0.
        -24    2    5    5    0    0 -0.82795961643E+02 -0.57578512172E+02  0.13695857780E+03  0.18788088600E+03  0.79819289426E+02 0.  0.
          5    1    3    3  501    0  0.59983757245E+02 -0.72437165743E+02  0.67074478743E+02  0.11561258501E+03  0.47000000000E+01 0. -1.
        -13    1    4    4    0    0 -0.22139986955E+01 -0.70403530880E+00 -0.84737871891E+01  0.87864967573E+01  0.00000000000E+00 0.  1.
         14    1    4    4    0    0  0.10249987525E+03  0.57311126363E+02  0.15020064186E+03  0.19065944101E+03  0.00000000000E+00 0. -1.
         -5    1    5    5    0  502 -0.77473672154E+02  0.73408586860E+02  0.98064397838E+02  0.14501622883E+03  0.47000000000E+01 0.  1.
         11    1    6    6    0    0 -0.19146071087E+02 -0.20278973634E+02 -0.45865817868E+01  0.28263855757E+02  0.00000000000E+00 0. -1.
        -12    1    6    6    0    0 -0.63649890555E+02 -0.37299538537E+02  0.14154515958E+03  0.15961703024E+03  0.00000000000E+00 0.  1.
</event>
<event>
12    1  0.9966151E-001  0.1973124E+03  0.7818608E-02  0.1153814E+00
         21   -1    0    0  503  502  0.00000000000E+00  0.00000000000E+00  0.13405099913E+04  0.13405099913E+04  0.00000000000E+00 0. -1.
         21   -1    0    0  501  503 -0.00000000000E+00 -0.00000000000E+00 -0.11670694883E+03  0.11670694883E+03  0.00000000000E+00 0. -1.
          6    2    1    2  501    0  0.81232212353E+02  0.28885552314E+02  0.12506752292E+04  0.12661440294E+04  0.17747993310E+03 0.  0.
         24    2    3    3    0    0  0.56164163927E+02  0.75741549492E+02  0.56000948906E+03  0.57342103555E+03  0.79434630658E+02 0.  0.
         -6    2    1    2    0  502 -0.81232212353E+02 -0.28885552314E+02 -0.26872186716E+02  0.19107291080E+03  0.16838555570E+03 0.  0.
        -24    2    5    5    0    0  0.70026017456E+01 -0.41515002508E+02 -0.32138187438E+02  0.10165978987E+03  0.86771642375E+02 0.  0.
          5    1    3    3  501    0  0.25068048426E+02 -0.46855997178E+02  0.69066574016E+03  0.69272299382E+03  0.47000000000E+01 0. -1.
        -11    1    4    4    0    0  0.38660766481E+02  0.43254241379E+01  0.32121725588E+03  0.32356435161E+03  0.00000000000E+00 0.  1.
         12    1    4    4    0    0  0.17503397446E+02  0.71416125354E+02  0.23879223318E+03  0.24985668394E+03  0.00000000000E+00 0. -1.
         -5    1    5    5    0  502 -0.88234814099E+02  0.12629450194E+02  0.52660007219E+01  0.89413120932E+02  0.47000000000E+01 0.  1.
         11    1    6    6    0    0 -0.36785184728E+02 -0.30868764990E+02 -0.32481885841E+01  0.48130875710E+02  0.00000000000E+00 0. -1.
        -12    1    6    6    0    0  0.43787786474E+02 -0.10646237518E+02 -0.28889998854E+02  0.53528914162E+02  0.00000000000E+00 0.  1.
</event>
<event>
12    1  0.9966151E-001  0.2046274E+03  0.7818608E-02  0.1145956E+00
         21   -1    0    0  503  502  0.00000000000E+00  0.00000000000E+00  0.16619512433E+03  0.16619512433E+03  0.00000000000E+00 0.  1.
         21   -1    0    0  501  503 -0.00000000000E+00 -0.00000000000E+00 -0.26307558052E+03  0.26307558052E+03  0.00000000000E+00 0. -1.
          6    2    1    2  501    0  0.53079002954E+02  0.97170759059E+02 -0.35775131072E+01  0.20465866546E+03  0.17208379870E+03 0.  0.
         24    2    3    3    0    0 -0.27694508727E+02  0.79277742461E+02  0.24782517769E+02  0.11707498214E+03  0.77720216114E+02 0.  0.
         -6    2    1    2    0  502 -0.53079002954E+02 -0.97170759059E+02 -0.93302943080E+02  0.22461203940E+03  0.17171369218E+03 0.  0.
        -24    2    5    5    0    0  0.38255511578E+01 -0.15578084460E+02 -0.96439177413E+02  0.12497560634E+03  0.77852910556E+02 0.  0.
          5    1    3    3  501    0  0.80773511681E+02  0.17893016598E+02 -0.28360030877E+02  0.87583683318E+02  0.47000000000E+01 0. -1.
        -13    1    4    4    0    0 -0.45214706078E+00  0.82275501871E+02  0.34580114331E+01  0.82349380618E+02  0.00000000000E+00 0.  1.
         14    1    4    4    0    0 -0.27242361666E+02 -0.29977594092E+01  0.21324506336E+02  0.34725601523E+02  0.00000000000E+00 0. -1.
         -5    1    5    5    0  502 -0.56904554112E+02 -0.81592674599E+02  0.31362343328E+01  0.99636433059E+02  0.47000000000E+01 0.  1.
         13    1    6    6    0    0 -0.14066229969E+02 -0.34118845337E+02 -0.15488068302E+02  0.40022927085E+02  0.00000000000E+00 0. -1.
        -14    1    6    6    0    0  0.17891781127E+02  0.18540760877E+02 -0.80951109111E+02  0.84952679252E+02  0.00000000000E+00 0.  1.
</event>
<event>
12    1  0.9966151E-001  0.2003235E+03  0.7818608E-02  0.1149782E+00
         21   -1    0    0  501  502  0.00000000000E+00  0.00000000000E+00  0.12072169174E+03  0.12072169174E+03  0.00000000000E+00 0.  1.
         21   -1    0    0  502  503 -0.00000000000E+00 -0.00000000000E+00 -0.35340668421E+03  0.35340668421E+03  0.00000000000E+00 0.  1.
         -6    2    1    2    0  503 -0.89836069028E+02 -0.41477528829E+02 -0.17702198522E+03  0.26621520901E+03  0.17246115377E+03 0.  0.
        -24    2    3    3    0    0 -0.11527582543E+03 -0.17543541150E+02 -0.78536462132E+02  0.16161355878E+03  0.79716213739E+02 0.  0.
          6    2    1    2  501    0  0.89836069028E+02  0.41477528829E+02 -0.55663007250E+02  0.20791316694E+03  0.17417982063E+03 0.  0.
         24    2    5    5    0    0  0.11020362192E+03  0.14380902910E+02  0.71296368199E+00  0.14196315219E+03  0.88325418818E+02 0.  0.
          5    1    5    5  501    0 -0.20367552891E+02  0.27096625919E+02 -0.56375970932E+02  0.65950014750E+02  0.47000000000E+01 0. -1.
        -11    1    6    6    0    0 -0.97214669413E+01  0.15591231272E+02  0.11292059759E+02  0.21566270556E+02  0.00000000000E+00 0.  1.
         12    1    6    6    0    0  0.11992508886E+03 -0.12103283624E+01 -0.10579096077E+02  0.12039688163E+03  0.00000000000E+00 0. -1.
         -5    1    3    3    0  503  0.25439756403E+02 -0.23933987679E+02 -0.98485523091E+02  0.10460165023E+03  0.47000000000E+01 0.  1.
         13    1    4    4    0    0 -0.72698004353E+02  0.20744917588E+02 -0.16866491101E+02  0.77458569344E+02  0.00000000000E+00 0. -1.
        -14    1    4    4    0    0 -0.42577821078E+02 -0.38288458739E+02 -0.61669971031E+02  0.84154989438E+02  0.00000000000E+00 0.  1.
</event>
<event>
12    1  0.9966151E-001  0.1750063E+03  0.7818608E-02  0.1172762E+00
         21   -1    0    0  501  502  0.00000000000E+00  0.00000000000E+00  0.27202965504E+03  0.27202965504E+03  0.00000000000E+00 0. -1.
         21   -1    0    0  502  503 -0.00000000000E+00 -0.00000000000E+00 -0.11312808325E+03  0.11312808325E+03  0.00000000000E+00 0. -1.
         -6    2    1    2    0  503 -0.10027356843E+02 -0.21957827146E+02  0.65053443274E+02  0.18670604472E+03  0.17333350108E+03 0.  0.
        -24    2    3    3    0    0 -0.63336170537E+02 -0.42769961693E+02  0.66220111842E+02  0.12927412261E+03  0.80535429737E+02 0.  0.
          6    2    1    2  501    0  0.10027356843E+02  0.21957827146E+02  0.93848128509E+02  0.19845169357E+03  0.17318461074E+03 0.  0.
         24    2    5    5    0    0  0.22029233873E+02  0.77825143784E+02  0.43332769370E+02  0.12203773130E+03  0.80457683349E+02 0.  0.
          5    1    5    5  501    0 -0.12001877030E+02 -0.55867316638E+02  0.50515359139E+02  0.76413962268E+02  0.47000000000E+01 0. -1.
        -11    1    6    6    0    0 -0.42399411262E+01  0.13954969937E+02  0.50539024812E+02  0.52601438342E+02  0.00000000000E+00 0.  1.
         12    1    6    6    0    0  0.26269175000E+02  0.63870173847E+02 -0.72062554425E+01  0.69436292959E+02  0.00000000000E+00 0. -1.
         -5    1    3    3    0  503  0.53308813694E+02  0.20812134547E+02 -0.11666685676E+01  0.57431922111E+02  0.47000000000E+01 0.  1.
         11    1    4    4    0    0 -0.44739531798E+02  0.44986706991E+01 -0.10536928894E+01  0.44977483392E+02  0.00000000000E+00 0. -1.
        -12    1    4    4    0    0 -0.18596638739E+02 -0.47268632392E+02  0.67273804731E+02  0.84296639219E+02  0.00000000000E+00 0.  1.
</event>
<event>
12    1  0.9966151E-001  0.1731705E+03  0.7818608E-02  0.1174667E+00
         21   -1    0    0  503  502  0.00000000000E+00  0.00000000000E+00  0.58775485027E+03  0.58775485027E+03  0.00000000000E+00 0.  1.
         21   -1    0    0  501  503 -0.00000000000E+00 -0.00000000000E+00 -0.70217149594E+02  0.70217149594E+02  0.00000000000E+00 0.  1.
          6    2    1    2  501    0 -0.10448297182E+02 -0.12133994984E+02  0.43140675027E+03  0.46486535661E+03  0.17242857898E+03 0.  0.
         24    2    3    3    0    0 -0.32331721993E+02  0.39394674765E+02  0.16092801096E+03  0.18861379281E+03  0.84143077413E+02 0.  0.
         -6    2    1    2    0  502  0.10448297182E+02  0.12133994984E+02  0.86130950401E+02  0.19310664325E+03  0.17209077344E+03 0.  0.
        -24    2    5    5    0    0  0.57836793363E+02 -0.12245491705E+02  0.10543145888E+02  0.10050191803E+03  0.80588031800E+02 0.  0.
          5    1    3    3  501    0  0.21883424812E+02 -0.51528669749E+02  0.27047873931E+03  0.27625156381E+03  0.47000000000E+01 0. -1.
        -13    1    4    4    0    0 -0.55430852647E+02  0.68037878088E+01  0.71954027301E+02  0.91083769128E+02  0.00000000000E+00 0.  1.
         14    1    4    4    0    0  0.23099130654E+02  0.32590886956E+02  0.88973983664E+02  0.97530023678E+02  0.00000000000E+00 0. -1.
         -5    1    5    5    0  502 -0.47388496181E+02  0.24379486689E+02  0.75587804513E+02  0.92604725218E+02  0.47000000000E+01 0.  1.
         13    1    6    6    0    0 -0.14143492967E+02  0.40669322449E+01 -0.16305437818E+02  0.21964645083E+02  0.00000000000E+00 0. -1.
        -14    1    6    6    0    0  0.71980286331E+02 -0.16312423950E+02  0.26848583705E+02  0.78537272950E+02  0.00000000000E+00 0.  1.
</event>
<event>
12    1  0.9966151E-001  0.1816407E+03  0.7818608E-02  0.1166331E+00
         21   -1    0    0  503  502  0.00000000000E+00  0.00000000000E+00  0.34520083496E+03  0.34520083496E+03  0.00000000000E+00 0.  1.
         21   -1    0    0  501  503 -0.00000000000E+00 -0.00000000000E+00 -0.11397729272E+03  0.11397729272E+03  0.00000000000E+00 0.  1.
          6    2    1    2  501    0 -0.46250053247E+02  0.30610297955E+02  0.22662856757E+02  0.18260826292E+03  0.17249960824E+03 0.  0.
         24    2    3    3    0    0  0.38462613963E+02  0.36167336767E+02  0.13845764737E+02  0.97127576338E+02  0.80340599714E+02 0.  0.
         -6    2    1    2    0  502  0.46250053247E+02 -0.30610297955E+02  0.20856068549E+03  0.27656986476E+03  0.17296610303E+03 0.  0.
        -24    2    5    5    0    0 -0.21323726718E+02  0.27443862640E+02  0.81286171820E+02  0.12114337690E+03  0.82827586701E+02 0.  0.
          5    1    3    3  501    0 -0.84712667210E+02 -0.55570388115E+01  0.88170920203E+01  0.85480686578E+02  0.47000000000E+01 0. -1.
        -13    1    4    4    0    0  0.91874461892E+01  0.54215864377E+02 -0.91657303962E+01  0.55747463900E+02  0.00000000000E+00 0.  1.
         14    1    4    4    0    0  0.29275167774E+02 -0.18048527610E+02  0.23011495133E+02  0.41380112438E+02  0.00000000000E+00 0. -1.
         -5    1    5    5    0  502  0.67573779965E+02 -0.58054160595E+02  0.12727451367E+03  0.15542648787E+03  0.47000000000E+01 0.  1.
         13    1    6    6    0    0  0.21973695961E+02 -0.35420150304E+01 -0.19420631254E+01  0.22341906674E+02  0.00000000000E+00 0. -1.
        -14    1    6    6    0    0 -0.43297422679E+02  0.30985877670E+02  0.83228234946E+02  0.98801470221E+02  0.00000000000E+00 0.  1.
</event>
<event>
12    1  0.9966151E-001  0.2227554E+03  0.7818608E-02  0.1132274E+00
         21   -1    0    0  501  502  0.00000000000E+00  0.00000000000E+00  0.28846672501E+03  0.28846672501E+03  0.00000000000E+00 0. -1.
         21   -1    0    0  502  503 -0.00000000000E+00 -0.00000000000E+00 -0.17813090003E+03  0.17813090003E+03  0.00000000000E+00 0. -1.
         -6    2    1    2    0  503 -0.13953651988E+03  0.27974292276E+02  0.10404437373E+03  0.24375337452E+03  0.16833738289E+03 0.  0.
        -24    2    3    3    0    0 -0.14373403323E+03  0.52538163348E+02  0.42012362010E+02  0.17673797810E+03  0.77791666803E+02 0.  0.
          6    2    1    2  501    0  0.13953651988E+03 -0.27974292276E+02  0.62914512543E+01  0.22284425051E+03  0.17136795564E+03 0.  0.
         24    2    5    5    0    0  0.13913750393E+03 -0.67635207864E+02  0.29321130516E+02  0.17673998210E+03  0.80271578007E+02 0.  0.
          5    1    5    5  501    0  0.39901594848E+00  0.39660915588E+02 -0.23029679261E+02  0.46104268413E+02  0.47000000000E+01 0. -1.
        -11    1    6    6    0    0  0.51952127678E+02 -0.36571772707E+01  0.43260501965E+02  0.67704280117E+02  0.00000000000E+00 0.  1.
         12    1    6    6    0    0  0.87185376251E+02 -0.63978030593E+02 -0.13939371450E+02  0.10903570198E+03  0.00000000000E+00 0. -1.
         -5    1    3    3    0  503  0.41975133526E+01 -0.24563871072E+02  0.62032011718E+02  0.67015396426E+02  0.47000000000E+01 0.  1.
         13    1    4    4    0    0 -0.32593824834E+02 -0.51358074424E+01 -0.18327165274E+02  0.37744124343E+02  0.00000000000E+00 0. -1.
        -14    1    4    4    0    0 -0.11114020840E+03  0.57673970790E+02  0.60339527284E+02  0.13899385376E+03  0.00000000000E+00 0.  1.
</event>
<event>
12    1  0.9966151E-001  0.1802683E+03  0.7818608E-02  0.1168607E+00
         21   -1    0    0  501  502  0.00000000000E+00  0.00000000000E+00  0.95541135958E+02  0.95541135958E+02  0.00000000000E+00 0. -1.
         21   -1    0    0  502  503 -0.00000000000E+00 -0.00000000000E+00 -0.41724712741E+03  0.41724712741E+03  0.00000000000E+00 0. -1.
         -6    2    1    2    0  503  0.51641032993E+02 -0.10151421467E+02 -0.43391780189E+02  0.18119293110E+03  0.16786358762E+03 0.  0.
        -24    2    3    3    0    0  0.98708050160E+02 -0.12647114885E+02 -0.24077214420E+02  0.13003948507E+03  0.80170610209E+02 0.  0.
          6    2    1    2  501    0 -0.51641032993E+02  0.10151421467E+02 -0.27831421126E+03  0.33159533227E+03  0.17241466452E+03 0.  0.
         24    2    5    5    0    0 -0.86685549196E+02 -0.36045106903E+02 -0.19256803748E+03  0.22797712118E+03  0.77958223124E+02 0.  0.
          5    1    5    5  501    0  0.35044516203E+02  0.46196528370E+02 -0.85746173783E+02  0.10361821108E+03  0.47000000000E+01 0. -1.
        -11    1    6    6    0    0  0.69316848328E+01 -0.14640473472E+02 -0.72195703730E+02  0.73990616670E+02  0.00000000000E+00 0.  1.
         12    1    6    6    0    0 -0.93617234029E+02 -0.21404633431E+02 -0.12037233375E+03  0.15398650451E+03  0.00000000000E+00 0. -1.
         -5    1    3    3    0  503 -0.47067017166E+02  0.24956934175E+01 -0.19314565769E+02  0.51153446036E+02  0.47000000000E+01 0.  1.
         13    1    4    4    0    0  0.52529990504E+02  0.17263448483E+02 -0.44883936812E+02  0.71217935520E+02  0.00000000000E+00 0. -1.
        -14    1    4    4    0    0  0.46178059655E+02 -0.29910563368E+02  0.20806722392E+02  0.58821549548E+02  0.00000000000E+00 0.  1.
</event>
<event>
12    1  0.9966151E-001  0.1877776E+03  0.7818608E-02  0.1160729E+00
         21   -1    0    0  501  502  0.00000000000E+00  0.00000000000E+00  0.14808118303E+04  0.14808118303E+04  0.00000000000E+00 0.  1.
         21   -1    0    0  502  503 -0.00000000000E+00 -0.00000000000E+00 -0.58906656935E+02  0.58906656935E+02  0.00000000000E+00 0.  1.
         -6    2    1    2    0  503  0.46305054928E+01  0.71525914948E+02  0.11474520323E+03  0.21913996772E+03  0.17239044549E+03 0.  0.
        -24    2    3    3    0    0  0.55899902086E+02  0.54564450930E+02  0.12005399020E+03  0.16467423989E+03  0.81256177375E+02 0.  0.
          6    2    1    2  501    0 -0.46305054928E+01 -0.71525914948E+02  0.13071599702E+04  0.13205785195E+04  0.17355990496E+03 0.  0.
         24    2    5    5    0    0  0.35972473879E+02 -0.93654328852E+01  0.10228198659E+04  0.10266671173E+04  0.80642181976E+02 0.  0.
          5    1    5    5  501    0 -0.40602979371E+02 -0.62160482062E+02  0.28434010429E+03  0.29391140225E+03  0.47000000000E+01 0. -1.
        -13    1    6    6    0    0  0.13117993237E+01  0.24082041368E+02  0.11165781909E+03  0.11423280658E+03  0.00000000000E+00 0.  1.
         14    1    6    6    0    0  0.34660674555E+02 -0.33447474253E+02  0.91116204678E+03  0.91243431072E+03  0.00000000000E+00 0. -1.
         -5    1    3    3    0  503 -0.51269396593E+02  0.16961464017E+02 -0.53087869679E+01  0.54465727827E+02  0.47000000000E+01 0.  1.
         13    1    4    4    0    0  0.44821898069E+02  0.25938789859E+02  0.13120422819E+02  0.53422550115E+02  0.00000000000E+00 0. -1.
        -14    1    4    4    0    0  0.11078004016E+02  0.28625661072E+02  0.10693356738E+03  0.11125168977E+03  0.00000000000E+00 0.  1.
</event>
<event>
12    1  0.9966151E-001  0.2572841E+03  0.7818608E-02  0.1108900E+00
         21   -1    0    0  501  502  0.00000000000E+00  0.00000000000E+00  0.42095283629E+03  0.42095283629E+03  0.00000000000E+00 0.  1.
         21   -1    0    0  502  503 -0.00000000000E+00 -0.00000000000E+00 -0.16219933636E+03  0.16219933636E+03  0.00000000000E+00 0.  1.
         -6    2    1    2    0  503 -0.15753042640E+03  0.11064812527E+03  0.18242158082E+03  0.31478368002E+03  0.16956499990E+03 0.  0.
        -24    2    3    3    0    0 -0.17932549177E+03  0.74039222355E+02  0.17017456545E+03  0.27020435710E+03  0.80072301218E+02 0.  0.
          6    2    1    2  501    0  0.15753042640E+03 -0.11064812527E+03  0.76331919113E+02  0.26836849262E+03  0.17069341841E+03 0.  0.
         24    2    5    5    0    0  0.22177622776E+02 -0.77608659915E+02  0.62368155326E+02  0.12826472958E+03  0.77763121138E+02 0.  0.
          5    1    5    5  501    0  0.13535280363E+03 -0.33039465355E+02  0.13963763788E+02  0.14010376305E+03  0.47000000000E+01 0. -1.
        -13    1    6    6    0    0  0.11271534904E+02 -0.78183618495E+02  0.15959085940E+02  0.80587952723E+02  0.00000000000E+00 0.  1.
         14    1    6    6    0    0  0.10906087872E+02  0.57495857940E+00  0.46409069386E+02  0.47676776855E+02  0.00000000000E+00 0. -1.
         -5    1    3    3    0  503  0.21795065367E+02  0.36608902916E+02  0.12247015366E+02  0.44579322925E+02  0.47000000000E+01 0.  1.
         11    1    4    4    0    0 -0.25031922739E+02  0.28038925946E+02  0.23855659148E+01  0.37662573584E+02  0.00000000000E+00 0. -1.
        -12    1    4    4    0    0 -0.15429356903E+03  0.46000296409E+02  0.16778899954E+03  0.23254178351E+03  0.00000000000E+00 0.  1.
</event>
<event>
12    1  0.9966151E-001  0.1821389E+03  0.7818608E-02  0.1166056E+00
         21   -1    0    0  501  502  0.00000000000E+00  0.00000000000E+00  0.83268803556E+02  0.83268803556E+02  0.00000000000E+00 0.  1.
         21   -1    0    0  502  503 -0.00000000000E+00 -0.00000000000E+00 -0.45804726028E+03  0.45804726028E+03  0.00000000000E+00 0.  1.
         -6    2    1    2    0  503  0.39422512099E+02 -0.41833476755E+02 -0.88028587743E+02  0.20229586250E+03  0.17283058030E+03 0.  0.
        -24    2    3    3    0    0  0.44052888744E+02  0.32149496906E+02 -0.84224313233E+02  0.12792192026E+03  0.79347561938E+02 0.  0.
          6    2    1    2  501    0 -0.39422512099E+02  0.41833476755E+02 -0.28674986898E+03  0.33902020134E+03  0.17147896465E+03 0.  0.
         24    2    5    5    0    0  0.26988384625E+02 -0.19878141519E+02 -0.10806226241E+03  0.13859544794E+03  0.80048311768E+02 0.  0.
          5    1    5    5  501    0 -0.66410896724E+02  0.61711618274E+02 -0.17868760657E+03  0.20042475340E+03  0.47000000000E+01 0. -1.
        -13    1    6    6    0    0 -0.22695027815E+00 -0.47754286856E+02 -0.62263213773E+02  0.78468026666E+02  0.00000000000E+00 0.  1.
         14    1    6    6    0    0  0.27215334903E+02  0.27876145337E+02 -0.45799048642E+02  0.60127421276E+02  0.00000000000E+00 0. -1.
         -5    1    3    3    0  503 -0.46303766444E+01 -0.73982973661E+02 -0.38042745101E+01  0.74373942239E+02  0.47000000000E+01 0.  1.
         13    1    4    4    0    0  0.45662594819E+02 -0.14214771442E+02 -0.55902819955E+02  0.73568047220E+02  0.00000000000E+00 0. -1.
        -14    1    4    4    0    0 -0.16097060753E+01  0.46364268347E+02 -0.28321493278E+02  0.54353873040E+02  0.00000000000E+00 0.  1.
</event>
<event>
12    1  0.9966151E-001  0.2355860E+03  0.7818608E-02  0.1122843E+00
         21   -1    0    0  503  502  0.00000000000E+00  0.00000000000E+00  0.11071642142E+03  0.11071642142E+03  0.00000000000E+00 0. -1.
         21   -1    0    0  501  503 -0.00000000000E+00 -0.00000000000E+00 -0.79462380816E+03  0.79462380816E+03  0.00000000000E+00 0. -1.
          6    2    1    2  501    0  0.13593431204E+03 -0.85848006671E+02 -0.61722036462E+03  0.66049754942E+03  0.17160424484E+03 0.  0.
         24    2    3    3    0    0  0.78266433622E+02 -0.96999712576E+02 -0.55631752234E+03  0.57575564158E+03  0.80441247390E+02 0.  0.
         -6    2    1    2    0  502 -0.13593431204E+03  0.85848006671E+02 -0.66687022116E+02  0.24484268016E+03  0.17219977256E+03 0.  0.
        -24    2    5    5    0    0 -0.94970937038E+01  0.76253367665E+02 -0.51028360217E+01  0.10379967517E+03  0.69595709361E+02 0.  0.
          5    1    3    3  501    0  0.57667878417E+02  0.11151705905E+02 -0.60902842284E+02  0.84741907838E+02  0.47000000000E+01 0. -1.
        -13    1    4    4    0    0  0.55821655133E+02 -0.13988601398E+02 -0.15524025330E+03  0.16556350563E+03  0.00000000000E+00 0.  1.
         14    1    4    4    0    0  0.22444778489E+02 -0.83011111178E+02 -0.40107726904E+03  0.41019213595E+03  0.00000000000E+00 0. -1.
         -5    1    5    5    0  502 -0.12643721833E+03  0.95946390068E+01 -0.61584186094E+02  0.14104300498E+03  0.47000000000E+01 0.  1.
         11    1    6    6    0    0 -0.70495513912E+01 -0.53663078772E+01  0.17030177375E+02  0.19196884551E+02  0.00000000000E+00 0. -1.
        -12    1    6    6    0    0 -0.24475423126E+01  0.81619675542E+02 -0.22133013397E+02  0.84602790621E+02  0.00000000000E+00 0.  1.
</event>
<event>
12    1  0.9966151E-001  0.2931040E+03  0.7818608E-02  0.1088768E+00
         21   -1    0    0  503  502  0.00000000000E+00  0.00000000000E+00  0.92112130698E+03  0.92112130698E+03  0.00000000000E+00 0. -1.
         21   -1    0    0  501  503 -0.00000000000E+00 -0.00000000000E+00 -0.11214055151E+03  0.11214055151E+03  0.00000000000E+00 0. -1.
          6    2    1    2  501    0  0.20477066371E+03 -0.11832371212E+03  0.61696198637E+03  0.68304615156E+03  0.17314279358E+03 0.  0.
         24    2    3    3    0    0  0.14359039024E+03 -0.27630582546E+02  0.48033850361E+03  0.50795664400E+03  0.76897495932E+02 0.  0.
         -6    2    1    2    0  502 -0.20477066371E+03  0.11832371212E+03  0.19201876910E+03  0.35021570693E+03  0.17276662910E+03 0.  0.
        -24    2    5    5    0    0 -0.16623129483E+03  0.32149173284E+02  0.86267572134E+02  0.20838221386E+03  0.85525670587E+02 0.  0.
          5    1    3    3  501    0  0.61180273470E+02 -0.90693129569E+02  0.13662348276E+03  0.17508950755E+03  0.47000000000E+01 0. -1.
        -11    1    4    4    0    0  0.77289786641E+02 -0.46657658737E+02  0.33702718118E+03  0.34890968616E+03  0.00000000000E+00 0.  1.
         12    1    4    4    0    0  0.66300603598E+02  0.19027076191E+02  0.14331132242E+03  0.15904695785E+03  0.00000000000E+00 0. -1.
         -5    1    5    5    0  502 -0.38539368880E+02  0.86174538831E+02  0.10575119697E+03  0.14183349307E+03  0.47000000000E+01 0.  1.
         13    1    6    6    0    0 -0.12541933026E+02  0.99864016860E+01  0.44915806692E+02  0.47691277960E+02  0.00000000000E+00 0. -1.
        -14    1    6    6    0    0 -0.15368936180E+03  0.22162771598E+02  0.41351765442E+02  0.16069093590E+03  0.00000000000E+00 0.  1.
</event>
<event>
12    1  0.9966151E-001  0.2990440E+03  0.7818608E-02  0.1086001E+00
         21   -1    0    0  501  502  0.00000000000E+00  0.00000000000E+00  0.98361759911E+03  0.98361759911E+03  0.00000000000E+00 0. -1.
         21   -1    0    0  502  503 -0.00000000000E+00 -0.00000000000E+00 -0.92698516961E+02  0.92698516961E+02  0.00000000000E+00 0. -1.
         -6    2    1    2    0  503  0.23460556661E+03  0.68861874419E+02  0.53475014919E+03  0.61268674975E+03  0.17217898136E+03 0.  0.
        -24    2    3    3    0    0  0.35088043465E+02  0.99837503482E+01  0.19940328930E+03  0.21803059311E+03  0.80279646740E+02 0.  0.
          6    2    1    2  501    0 -0.23460556661E+03 -0.68861874419E+02  0.35616893296E+03  0.46362936632E+03  0.16826809228E+03 0.  0.
         24    2    5    5    0    0 -0.20105152905E+03 -0.21725051004E+02  0.19321880872E+03  0.29064790330E+03  0.79050619716E+02 0.  0.
          5    1    5    5  501    0 -0.33554037559E+02 -0.47136823414E+02  0.16295012424E+03  0.17298146302E+03  0.47000000000E+01 0. -1.
        -11    1    6    6    0    0 -0.11843969567E+03  0.10547303334E+02  0.15161839103E+03  0.19268457026E+03  0.00000000000E+00 0.  1.
         12    1    6    6    0    0 -0.82611833382E+02 -0.32272354339E+02  0.41600417689E+02  0.97963333045E+02  0.00000000000E+00 0. -1.
         -5    1    3    3    0  503  0.19951752315E+03  0.58878124071E+02  0.33534685989E+03  0.39465615664E+03  0.47000000000E+01 0.  1.
         13    1    4    4    0    0  0.49082282962E+02 -0.19114422399E+02  0.15030169597E+03  0.15926403064E+03  0.00000000000E+00 0. -1.
        -14    1    4    4    0    0 -0.13994239497E+02  0.29098172747E+02  0.49101593328E+02  0.58766562462E+02  0.00000000000E+00 0.  1.
</event>
<event>
12    1  0.9966151E-001  0.1783962E+03  0.7818608E-02  0.1170097E+00
         21   -1    0    0  503  502  0.00000000000E+00  0.00000000000E+00  0.72901671907E+02  0.72901671907E+02  0.00000000000E+00 0. -1.
         21   -1    0    0  501  503 -0.00000000000E+00 -0.00000000000E+00 -0.45914853068E+03  0.45914853068E+03  0.00000000000E+00 0. -1.
          6    2    1    2  501    0  0.28292459061E+02  0.37400706100E+02 -0.26244200159E+03  0.31733423701E+03  0.17212186881E+03 0.  0.
         24    2    3    3    0    0  0.13289043750E+02  0.15148314762E+02 -0.27568957989E+03  0.28703803721E+03  0.77330590494E+02 0.  0.
         -6    2    1    2    0  502 -0.28292459061E+02 -0.37400706100E+02 -0.12380485718E+03  0.21471596558E+03  0.16904445320E+03 0.  0.
        -24    2    5    5    0    0  0.25698422176E+02 -0.12117012623E+02 -0.12894355313E+03  0.15469283163E+03  0.80599015920E+02 0.  0.
          5    1    3    3  501    0  0.15003415311E+02  0.22252391337E+02  0.13247578295E+02  0.30296199793E+02  0.47000000000E+01 0. -1.
        -11    1    4    4    0    0  0.18314044998E+01 -0.30802279961E+02 -0.13878798023E+03  0.14217678414E+03  0.00000000000E+00 0.  1.
         12    1    4    4    0    0  0.11457639251E+02  0.45950594724E+02 -0.13690159966E+03  0.14486125307E+03  0.00000000000E+00 0. -1.
         -5    1    5    5    0  502 -0.53990881237E+02 -0.25283693477E+02  0.51386959514E+01  0.60023133946E+02  0.47000000000E+01 0.  1.
         11    1    6    6    0    0 -0.92502246840E+01 -0.37534139522E+02 -0.83326708383E+02  0.91857055343E+02  0.00000000000E+00 0. -1.
        -12    1    6    6    0    0  0.34948646860E+02  0.25417126899E+02 -0.45616844748E+02  0.62835776290E+02  0.00000000000E+00 0.  1.
</event>
<event>
12    1  0.9966151E-001  0.2324188E+03  0.7818608E-02  0.1125121E+00
         21   -1    0    0  501  502  0.00000000000E+00  0.00000000000E+00  0.21746439210E+03  0.21746439210E+03  0.00000000000E+00 0. -1.
         21   -1    0    0  502  503 -0.00000000000E+00 -0.00000000000E+00 -0.24878634507E+03  0.24878634507E+03  0.00000000000E+00 0. -1.
         -6    2    1    2    0  503 -0.15566904845E+03 -0.94354178647E+01  0.20331601075E+01  0.23242769076E+03  0.17232706676E+03 0.  0.
        -24    2    3    3    0    0 -0.17113899366E+02 -0.75195784492E+01  0.36763469277E+02  0.89495944275E+02  0.79426329116E+02 0.  0.
          6    2    1    2  501    0  0.15566904845E+03  0.94354178647E+01 -0.33355113080E+02  0.23382304641E+03  0.17099349025E+03 0.  0.
         24    2    5    5    0    0  0.15652376793E+03  0.46897472744E+02  0.26038117826E+01  0.18167642256E+03  0.79375561757E+02 0.  0.
          5    1    5    5  501    0 -0.85471947742E+00 -0.37462054880E+02 -0.35958924863E+02  0.52146623845E+02  0.47000000000E+01 0. -1.
        -11    1    6    6    0    0  0.23869673571E+02  0.39145446796E+02 -0.13570842025E+02  0.47815218022E+02  0.00000000000E+00 0.  1.
         12    1    6    6    0    0  0.13265409436E+03  0.77520259484E+01  0.16174653808E+02  0.13386120454E+03  0.00000000000E+00 0. -1.
         -5    1    3    3    0  503 -0.13855514908E+03 -0.19158394154E+01 -0.34730309169E+02  0.14293174648E+03  0.47000000000E+01 0.  1.
         11    1    4    4    0    0 -0.26971787879E+01 -0.38657840941E+02  0.39167531293E+02  0.55098084787E+02  0.00000000000E+00 0. -1.
        -12    1    4    4    0    0 -0.14416720578E+02  0.31138262491E+02 -0.24040620161E+01  0.34397859489E+02  0.00000000000E+00 0.  1.
</event>
<event>
12    1  0.9966151E-001  0.1931545E+03  0.7818608E-02  0.1156730E+00
         21   -1    0    0  501  502  0.00000000000E+00  0.00000000000E+00  0.10271830716E+03  0.10271830716E+03  0.00000000000E+00 0. -1.
         21   -1    0    0  502  503 -0.00000000000E+00 -0.00000000000E+00 -0.44052008975E+03  0.44052008975E+03  0.00000000000E+00 0. -1.
         -6    2    1    2    0  503 -0.50364571433E+02 -0.58857392045E+02 -0.50372568457E+02  0.19961472750E+03  0.17694027560E+03 0.  0.
        -24    2    3    3    0    0  0.13134709848E+02 -0.66015892622E+02 -0.73568456219E+02  0.13147118736E+03  0.85683934754E+02 0.  0.
          6    2    1    2  501    0  0.50364571433E+02  0.58857392045E+02 -0.28742921413E+03  0.34362366940E+03  0.17164175012E+03 0.  0.
         24    2    5    5    0    0 -0.28784427190E+02  0.24989741797E+02 -0.21148267141E+03  0.22872567522E+03  0.78342094396E+02 0.  0.
          5    1    5    5  501    0  0.79148998623E+02  0.33867650249E+02 -0.75946542723E+02  0.11489799419E+03  0.47000000000E+01 0. -1.
        -13    1    6    6    0    0 -0.15934969524E+02 -0.26710357540E+02 -0.52123340517E+02  0.60697685955E+02  0.00000000000E+00 0.  1.
         14    1    6    6    0    0 -0.12849457666E+02  0.51700099337E+02 -0.15935933089E+03  0.16802798926E+03  0.00000000000E+00 0. -1.
         -5    1    3    3    0  503 -0.63499281282E+02  0.71585005760E+01  0.23195887762E+02  0.68143540140E+02  0.47000000000E+01 0.  1.
         11    1    4    4    0    0  0.79944326475E+01  0.17532569294E+02 -0.33551631088E+02  0.38691263718E+02  0.00000000000E+00 0. -1.
        -12    1    4    4    0    0  0.51402772008E+01 -0.83548461916E+02 -0.40016825130E+02  0.92779923645E+02  0.00000000000E+00 0.  1.
</event>
<event>
12    1  0.9966151E-001  0.1754474E+03  0.7818608E-02  0.1172404E+00
         21   -1    0    0  503  502  0.00000000000E+00  0.00000000000E+00  0.16350050774E+04  0.16350050774E+04  0.00000000000E+00 0. -1.
         21   -1    0    0  501  503 -0.00000000000E+00 -0.00000000000E+00 -0.18853234289E+02  0.18853234289E+02  0.00000000000E+00 0. -1.
          6    2    1    2  501    0  0.27714696261E+02 -0.93178601056E+01  0.86021820032E+03  0.87783158856E+03  0.17250512691E+03 0.  0.
         24    2    3    3    0    0  0.58349485200E+02  0.26047823922E+02  0.32869409388E+03  0.34423137527E+03  0.79826567094E+02 0.  0.
         -6    2    1    2    0  502 -0.27714696261E+02  0.93178601056E+01  0.75593364279E+03  0.77602672312E+03  0.17299386057E+03 0.  0.
        -24    2    5    5    0    0 -0.84336623626E+02  0.19864533012E+02  0.48408703813E+03  0.49810597645E+03  0.79133036912E+02 0.  0.
          5    1    3    3  501    0 -0.30634788940E+02 -0.35365684028E+02  0.53152410644E+03  0.53360021329E+03  0.47000000000E+01 0. -1.
        -11    1    4    4    0    0  0.28343884643E+02  0.31334711500E+02  0.29800934352E+03  0.30098971538E+03  0.00000000000E+00 0.  1.
         12    1    4    4    0    0  0.30005600557E+02 -0.52868875778E+01  0.30684750360E+02  0.43241659886E+02  0.00000000000E+00 0. -1.
         -5    1    5    5    0  502  0.56621927365E+02 -0.10546672906E+02  0.27184660466E+03  0.27792074668E+03  0.47000000000E+01 0.  1.
         13    1    6    6    0    0 -0.23725464350E+02  0.43930677254E+02  0.25870059106E+03  0.26347447292E+03  0.00000000000E+00 0. -1.
        -14    1    6    6    0    0 -0.60611159276E+02 -0.24066144243E+02  0.22538644706E+03  0.23463150353E+03  0.00000000000E+00 0.  1.
</event>
<event>
12    1  0.9966151E-001  0.2200025E+03  0.7818608E-02  0.1134061E+00
         21   -1    0    0  503  502  0.00000000000E+00  0.00000000000E+00  0.26550700794E+03  0.26550700794E+03  0.00000000000E+00 0. -1.
         21   -1    0    0  501  503 -0.00000000000E+00 -0.00000000000E+00 -0.42333366722E+03  0.42333366722E+03  0.00000000000E+00 0. -1.
          6    2    1    2  501    0 -0.44282142068E+02  0.12816583366E+03 -0.33930627439E+03  0.40438822823E+03  0.17324463128E+03 0.  0.
         24    2    3    3    0    0 -0.36802658235E+02 -0.33166181506E+01 -0.12680967248E+03  0.15434728431E+03  0.79855842186E+02 0.  0.
         -6    2    1    2    0  502  0.44282142068E+02 -0.12816583366E+03  0.18147961511E+03  0.28445244693E+03  0.17202021637E+03 0.  0.
        -24    2    5    5    0    0  0.15728058252E+02 -0.39727186983E+02  0.16805242601E+03  0.19043590936E+03  0.78731165912E+02 0.  0.
          5    1    3    3  501    0 -0.74794838329E+01  0.13148245181E+03 -0.21249660191E+03  0.25004094392E+03  0.47000000000E+01 0. -1.
        -13    1    4    4    0    0 -0.17904070797E+02  0.30602229838E+02 -0.10268749518E+03  0.10863596959E+03  0.00000000000E+00 0.  1.
         14    1    4    4    0    0 -0.18898587438E+02 -0.33918847988E+02 -0.24122177297E+02  0.45711314721E+02  0.00000000000E+00 0. -1.
         -5    1    5    5    0  502  0.28554083816E+02 -0.88438646676E+02  0.13427189100E+02  0.94016537564E+02  0.47000000000E+01 0.  1.
         13    1    6    6    0    0  0.43591864338E+01 -0.36575246206E+01  0.14708205049E+03  0.14719208392E+03  0.00000000000E+00 0. -1.
        -14    1    6    6    0    0  0.11368871818E+02 -0.36069662362E+02  0.20970375514E+02  0.43243825438E+02  0.00000000000E+00 0.  1.
</event>
<event>
12    1  0.9966151E-001  0.1905082E+03  0.7818608E-02  0.1158080E+00
         21   -1    0    0  501  502  0.00000000000E+00  0.00000000000E+00  0.13314710987E+03  0.13314710987E+03  0.00000000000E+00 0. -1.
         21   -1    0    0  502  503 -0.00000000000E+00 -0.00000000000E+00 -0.44659418580E+03  0.44659418580E+03  0.00000000000E+00 0. -1.
         -6    2    1    2    0  503  0.34204219966E+02 -0.74436163743E+02  0.24384901198E+02  0.19206249190E+03  0.17199623907E+03 0.  0.
        -24    2    3    3    0    0  0.47596660667E+02 -0.73471641659E+02  0.75222317515E+02  0.13927214555E+03  0.77941062593E+02 0.  0.
          6    2    1    2  501    0 -0.34204219966E+02  0.74436163743E+02 -0.33783197713E+03  0.38767880376E+03  0.17162091650E+03 0.  0.
         24    2    5    5    0    0 -0.55866642439E+02 -0.98110532714E+01 -0.22930820744E+03  0.24851576014E+03  0.77204213201E+02 0.  0.
          5    1    5    5  501    0  0.21662422473E+02  0.84247217014E+02 -0.10852376969E+03  0.13916304362E+03  0.47000000000E+01 0. -1.
        -13    1    6    6    0    0 -0.71680141384E+02 -0.15775784258E+01 -0.13832520275E+03  0.15580241698E+03  0.00000000000E+00 0.  1.
         14    1    6    6    0    0  0.15813498945E+02 -0.82334748456E+01 -0.90983004690E+02  0.92713343157E+02  0.00000000000E+00 0. -1.
         -5    1    3    3    0  503 -0.13392440701E+02 -0.96452208419E+00 -0.50837416318E+02  0.52790346358E+02  0.47000000000E+01 0.  1.
         11    1    4    4    0    0  0.27527651972E+01 -0.20117645877E+02 -0.15014419446E+02  0.25253320240E+02  0.00000000000E+00 0. -1.
        -12    1    4    4    0    0  0.44843895470E+02 -0.53353995782E+02  0.90236736961E+02  0.11401882531E+03  0.00000000000E+00 0.  1.
</event>
<event>
12    1  0.9966151E-001  0.1832100E+03  0.7818608E-02  0.1164859E+00
         21   -1    0    0  503  502  0.00000000000E+00  0.00000000000E+00  0.44712772326E+03  0.44712772326E+03  0.00000000000E+00 0.  1.
         21   -1    0    0  501  503 -0.00000000000E+00 -0.00000000000E+00 -0.34264571077E+03  0.34264571077E+03  0.00000000000E+00 0.  1.
          6    2    1    2  501    0 -0.57172142075E+02  0.23023804618E+02  0.40132558104E+03  0.44094394806E+03  0.17196102444E+03 0.  0.
         24    2    3    3    0    0  0.82540470290E+01  0.60362613682E+02  0.28686142494E+03  0.30383484583E+03  0.79462959920E+02 0.  0.
         -6    2    1    2    0  502  0.57172142075E+02 -0.23023804618E+02 -0.29684356855E+03  0.34882948597E+03  0.17253161066E+03 0.  0.
        -24    2    5    5    0    0  0.99433794702E+02 -0.23596441027E+01 -0.17410973454E+03  0.21730481594E+03  0.83752826349E+02 0.  0.
          5    1    3    3  501    0 -0.65426189104E+02 -0.37338809064E+02  0.11446415610E+03  0.13710910223E+03  0.47000000000E+01 0. -1.
        -13    1    4    4    0    0 -0.16156987313E+01  0.78726678783E+02  0.21307086254E+03  0.22715565786E+03  0.00000000000E+00 0.  1.
         14    1    4    4    0    0  0.98697457603E+01 -0.18364065100E+02  0.73790562406E+02  0.76679187975E+02  0.00000000000E+00 0. -1.
         -5    1    5    5    0  502 -0.42261652627E+02 -0.20664160516E+02 -0.12273383401E+03  0.13152467002E+03  0.47000000000E+01 0.  1.
         13    1    6    6    0    0  0.82096259689E+02 -0.37034725825E+02 -0.13459519206E+03  0.16194824018E+03  0.00000000000E+00 0. -1.
        -14    1    6    6    0    0  0.17337535013E+02  0.34675081722E+02 -0.39514542478E+02  0.55356575761E+02  0.00000000000E+00 0.  1.
</event>
<event>
12    1  0.9966151E-001  0.1886903E+03  0.7818608E-02  0.1159821E+00
         21   -1    0    0  501  502  0.00000000000E+00  0.00000000000E+00  0.20853895017E+03  0.20853895017E+03  0.00000000000E+00 0. -1.
         21   -1    0    0  502  503 -0.00000000000E+00 -0.00000000000E+00 -0.18928284274E+03  0.18928284274E+03  0.00000000000E+00 0. -1.
         -6    2    1    2    0  503 -0.75070602196E+02 -0.13570440327E+02  0.73058660830E+02  0.20234032940E+03  0.17258125279E+03 0.  0.
        -24    2    3    3    0    0  0.37489066980E+01  0.43149623479E+02  0.43044235025E+02  0.10059242339E+03  0.79938008279E+02 0.  0.
          6    2    1    2  501    0  0.75070602196E+02  0.13570440327E+02 -0.53802553393E+02  0.19548146351E+03  0.17175137746E+03 0.  0.
         24    2    5    5    0    0  0.11895420687E+03  0.15200136126E+02 -0.39489214188E+02  0.14905530335E+03  0.79227128878E+02 0.  0.
          5    1    5    5  501    0 -0.43883604674E+02 -0.16296957989E+01 -0.14313339205E+02  0.46426160155E+02  0.47000000000E+01 0. -1.
        -11    1    6    6    0    0  0.22805638022E+02 -0.19609437614E+02  0.14535600958E+02  0.33405252047E+02  0.00000000000E+00 0.  1.
         12    1    6    6    0    0  0.96148568848E+02  0.34809573740E+02 -0.54024815146E+02  0.11565005131E+03  0.00000000000E+00 0. -1.
         -5    1    3    3    0  503 -0.78819508894E+02 -0.56720063806E+02  0.30014425806E+02  0.10174790601E+03  0.47000000000E+01 0.  1.
         11    1    4    4    0    0  0.43081410405E+01  0.59448139821E+02  0.54418591582E+02  0.80709506981E+02  0.00000000000E+00 0. -1.
        -12    1    4    4    0    0 -0.55923434248E+00 -0.16298516341E+02 -0.11374356558E+02  0.19882916413E+02  0.00000000000E+00 0.  1.
</event>
<event>
12    1  0.9966151E-001  0.2171877E+03  0.7818608E-02  0.1136213E+00
         21   -1    0    0  501  502  0.00000000000E+00  0.00000000000E+00  0.42730939685E+02  0.42730939685E+02  0.00000000000E+00 0.  1.
         21   -1    0    0  502  503 -0.00000000000E+00 -0.00000000000E+00 -0.14673748494E+04  0.14673748494E+04  0.00000000000E+00 0.  1.
         -6    2    1    2    0  503  0.11764507717E+03  0.56810142105E+02 -0.10896814302E+04  0.11108936149E+04  0.17207919039E+03 0.  0.
        -24    2    3    3    0    0  0.88691596346E+02  0.10080090648E+03 -0.92158011127E+03  0.93467319938E+03  0.79227937900E+02 0.  0.
          6    2    1    2  501    0 -0.11764507717E+03 -0.56810142105E+02 -0.33496247955E+03  0.39921217427E+03  0.17350141483E+03 0.  0.
         24    2    5    5    0    0 -0.83652621490E+02 -0.66214825825E+02 -0.11728030949E+03  0.17864120546E+03  0.82315521335E+02 0.  0.
          5    1    5    5  501    0 -0.33992455684E+02  0.94046837194E+01 -0.21768217006E+03  0.22057096881E+03  0.47000000000E+01 0. -1.
        -11    1    6    6    0    0 -0.81470694117E+01 -0.53422282352E+02 -0.70766752992E+02  0.89040711592E+02  0.00000000000E+00 0.  1.
         12    1    6    6    0    0 -0.75505552078E+02 -0.12792543472E+02 -0.46513556496E+02  0.89600493866E+02  0.00000000000E+00 0. -1.
         -5    1    3    3    0  503  0.28953480828E+02 -0.43990764375E+02 -0.16810131893E+03  0.17622041547E+03  0.47000000000E+01 0.  1.
         13    1    4    4    0    0  0.84560276125E+02  0.37897591718E+02 -0.57116167053E+03  0.57862969302E+03  0.00000000000E+00 0. -1.
        -14    1    4    4    0    0  0.41313202207E+01  0.62903314762E+02 -0.35041844074E+03  0.35604350637E+03  0.00000000000E+00 0.  1.
</event>
<event>
12    1  0.9966151E-001  0.3441323E+03  0.7818608E-02  0.1065068E+00
         21   -1    0    0  501  502  0.00000000000E+00  0.00000000000E+00  0.69649547315E+03  0.69649547315E+03  0.00000000000E+00 0. -1.
         21   -1    0    0  502  503 -0.00000000000E+00 -0.00000000000E+00 -0.17810607001E+03  0.17810607001E+03  0.00000000000E+00 0.  1.
         -6    2    1    2    0  503 -0.19613693943E+03  0.22353123817E+03  0.16564762326E+03  0.38192426534E+03  0.17317937497E+03 0.  0.
        -24    2    3    3    0    0 -0.28875056800E+02  0.75501667610E+02  0.55936228326E+02  0.13303077141E+03  0.89632883391E+02 0.  0.
          6    2    1    2  501    0  0.19613693943E+03 -0.22353123817E+03  0.35274177988E+03  0.49267727782E+03  0.17282425571E+03 0.  0.
         24    2    5    5    0    0  0.18330507993E+03 -0.12616477951E+03  0.19394790678E+03  0.30590879005E+03  0.80287566706E+02 0.  0.
          5    1    5    5  501    0  0.12831859499E+02 -0.97366458657E+02  0.15879387310E+03  0.18676848777E+03  0.47000000000E+01 0. -1.
        -13    1    6    6    0    0  0.15141507664E+03 -0.12817070645E+03  0.18819112755E+03  0.27344132079E+03  0.00000000000E+00 0.  1.
         14    1    6    6    0    0  0.31890003291E+02  0.20059269431E+01  0.57567792237E+01  0.32467469256E+02  0.00000000000E+00 0. -1.
         -5    1    3    3    0  503 -0.16726188263E+03  0.14802957056E+03  0.10971139493E+03  0.24889349393E+03  0.47000000000E+01 0.  1.
         13    1    4    4    0    0  0.26022700541E+02  0.37284773824E+01  0.28098570512E+02  0.38478723365E+02  0.00000000000E+00 0. -1.
        -14    1    4    4    0    0 -0.54897757340E+02  0.71773190228E+02  0.27837657814E+02  0.94552048043E+02  0.00000000000E+00 0.  1.
</event>
<event>
12    1  0.9966151E-001  0.2026445E+03  0.7818608E-02  0.1149860E+00
         21   -1    0    0  501  502  0.00000000000E+00  0.00000000000E+00  0.69785814651E+03  0.69785814651E+03  0.00000000000E+00 0. -1.
         21   -1    0    0  502  503 -0.00000000000E+00 -0.00000000000E+00 -0.56594828475E+02  0.56594828475E+02  0.00000000000E+00 0. -1.
         -6    2    1    2    0  503 -0.10783112902E+03 -0.15038014288E+02  0.37640712642E+03  0.42748930078E+03  0.17091250160E+03 0.  0.
        -24    2    3    3    0    0 -0.68805761872E+02 -0.78849657932E+02  0.17831468830E+03  0.21569315071E+03  0.61448399292E+02 0.  0.
          6    2    1    2  501    0  0.10783112902E+03  0.15038014288E+02  0.26485619162E+03  0.32696367421E+03  0.15780604473E+03 0.  0.
         24    2    5    5    0    0  0.74850561415E+02  0.41922698056E+02  0.25709321171E+03  0.28345668721E+03  0.83009968436E+02 0.  0.
          5    1    5    5  501    0  0.32980567602E+02 -0.26884683768E+02  0.77629799076E+01  0.43506986999E+02  0.47000000000E+01 0. -1.
        -11    1    6    6    0    0  0.40093139061E+02  0.45615503187E+02  0.68047615651E+02  0.91206973015E+02  0.00000000000E+00 0.  1.
         12    1    6    6    0    0  0.34757422354E+02 -0.36928051309E+01  0.18904559606E+03  0.19224971419E+03  0.00000000000E+00 0. -1.
         -5    1    3    3    0  503 -0.39025367145E+02  0.63811643644E+02  0.19809243811E+03  0.21179615007E+03  0.47000000000E+01 0.  1.
         11    1    4    4    0    0 -0.18935292704E+02 -0.35708006871E+02  0.12349490048E+03  0.12994074615E+03  0.00000000000E+00 0. -1.
        -12    1    4    4    0    0 -0.49870469168E+02 -0.43141651060E+02  0.54819787821E+02  0.85752404561E+02  0.00000000000E+00 0.  1.
</event>
<event>
12    1  0.9966151E-001  0.2944141E+03  0.7818608E-02  0.1088344E+00
         21   -1    0    0  503  502  0.00000000000E+00  0.00000000000E+00  0.28456839671E+03  0.28456839671E+03  0.00000000000E+00 0.  1.
         21   -1    0    0  501  503 -0.00000000000E+00 -0.00000000000E+00 -0.31082511641E+03  0.31082511641E+03  0.00000000000E+00 0.  1.
          6    2    1    2  501    0  0.13596737851E+03 -0.19323919076E+03 -0.62262377405E+02  0.30092565079E+03  0.17564489973E+03 0.  0.
         24    2    3    3    0    0  0.22697683188E+02 -0.39632920814E+02  0.16576452299E+02  0.94376477193E+02  0.80908512792E+02 0.  0.
         -6    2    1    2    0  502 -0.13596737851E+03  0.19323919076E+03  0.36005657711E+02  0.29446786233E+03  0.17200698153E+03 0.  0.
        -24    2    5    5    0    0 -0.13984218652E+03  0.16823440527E+03  0.72924809084E+02  0.24946378282E+03  0.95160385200E+02 0.  0.
          5    1    3    3  501    0  0.11326969532E+03 -0.15360626995E+03 -0.78838829705E+02  0.20654917360E+03  0.47000000000E+01 0. -1.
        -11    1    4    4    0    0  0.18593632841E+02  0.23820689807E+01 -0.27541129553E+02  0.33315330584E+02  0.00000000000E+00 0.  1.
         12    1    4    4    0    0  0.41040503475E+01 -0.42014989795E+02  0.44117581853E+02  0.61061146609E+02  0.00000000000E+00 0. -1.
         -5    1    5    5    0  502  0.38748080132E+01  0.25004785490E+02 -0.36919151373E+02  0.45004079511E+02  0.47000000000E+01 0.  1.
         13    1    6    6    0    0 -0.82414081636E+02  0.15537585784E+03  0.34646008503E+02  0.17925982248E+03  0.00000000000E+00 0. -1.
        -14    1    6    6    0    0 -0.57428104888E+02  0.12858547427E+02  0.38278800581E+02  0.70203960336E+02  0.00000000000E+00 0.  1.
</event>
<event>
12    1  0.9966151E-001  0.2026174E+03  0.7818608E-02  0.1150541E+00
         21   -1    0    0  501  502  0.00000000000E+00  0.00000000000E+00  0.35734427797E+03  0.35734427797E+03  0.00000000000E+00 0.  1.
         21   -1    0    0  502  503 -0.00000000000E+00 -0.00000000000E+00 -0.10962069924E+03  0.10962069924E+03  0.00000000000E+00 0.  1.
         -6    2    1    2    0  503 -0.95646533167E+02  0.49220592361E+02  0.84512737902E+02  0.20678888627E+03  0.15507519015E+03 0.  0.
        -24    2    3    3    0    0 -0.65817715531E+02  0.40637811273E+02  0.11604723246E+03  0.16229240507E+03  0.82996754137E+02 0.  0.
          6    2    1    2  501    0  0.95646533167E+02 -0.49220592361E+02  0.16321084084E+03  0.26017609094E+03  0.17170583482E+03 0.  0.
         24    2    5    5    0    0  0.73772547780E+02  0.11529140050E+02  0.16097793290E+03  0.19539895683E+03  0.81801880029E+02 0.  0.
          5    1    5    5  501    0  0.21873985387E+02 -0.60749732411E+02  0.22329079401E+01  0.64777134103E+02  0.47000000000E+01 0. -1.
        -11    1    6    6    0    0  0.35435174617E+02  0.46772894817E+02  0.85190091328E+02  0.10344422144E+03  0.00000000000E+00 0.  1.
         12    1    6    6    0    0  0.38337373162E+02 -0.35243754767E+02  0.75787841568E+02  0.91954735390E+02  0.00000000000E+00 0. -1.
         -5    1    3    3    0  503 -0.29828817636E+02  0.85827810878E+01 -0.31534494559E+02  0.44496481208E+02  0.47000000000E+01 0.  1.
         13    1    4    4    0    0 -0.14770714877E+02  0.57715910315E+02  0.63372470431E+02  0.86979137326E+02  0.00000000000E+00 0. -1.
        -14    1    4    4    0    0 -0.51047000654E+02 -0.17078099042E+02  0.52674762031E+02  0.75313267740E+02  0.00000000000E+00 0.  1.
</event>
<event>
12    1  0.9966151E-001  0.2472469E+03  0.7818608E-02  0.1115303E+00
         21   -1    0    0  501  502  0.00000000000E+00  0.00000000000E+00  0.19632614946E+03  0.19632614946E+03  0.00000000000E+00 0. -1.
         21   -1    0    0  502  503 -0.00000000000E+00 -0.00000000000E+00 -0.33275875566E+03  0.33275875566E+03  0.00000000000E+00 0. -1.
         -6    2    1    2    0  503 -0.10468859205E+03 -0.14210749574E+03  0.19851095224E+01  0.24572912821E+03  0.17095210482E+03 0.  0.
        -24    2    3    3    0    0 -0.31218972760E+02 -0.14891369750E+03  0.97614484443E+01  0.17138754639E+03  0.78284683158E+02 0.  0.
          6    2    1    2  501    0  0.10468859205E+03  0.14210749574E+03 -0.13841771572E+03  0.28335577690E+03  0.17313806811E+03 0.  0.
         24    2    5    5    0    0  0.10811469042E+03  0.53189505959E+02 -0.38634708704E+02  0.14957653507E+03  0.79765840418E+02 0.  0.
          5    1    5    5  501    0 -0.34260983734E+01  0.88917989777E+02 -0.99783007020E+02  0.13377924183E+03  0.47000000000E+01 0. -1.
        -13    1    6    6    0    0  0.81665597938E+02  0.42973574740E+02 -0.63373843309E+02  0.11194749675E+03  0.00000000000E+00 0.  1.
         14    1    6    6    0    0  0.26449092483E+02  0.10215931220E+02  0.24739134606E+02  0.37629038320E+02  0.00000000000E+00 0. -1.
         -5    1    3    3    0  503 -0.73469619287E+02  0.68062017676E+01 -0.77763389219E+01  0.74341581821E+02  0.47000000000E+01 0.  1.
         13    1    4    4    0    0  0.70846241426E+01 -0.14279735272E+01  0.17375873671E+02  0.18818926470E+02  0.00000000000E+00 0. -1.
        -14    1    4    4    0    0 -0.38303596903E+02 -0.14748572398E+03 -0.76144252271E+01  0.15256861992E+03  0.00000000000E+00 0.  1.
</event>
<event>
12    1  0.9966151E-001  0.2699059E+03  0.7818608E-02  0.1101407E+00
         21   -1    0    0  503  502  0.00000000000E+00  0.00000000000E+00  0.38567358691E+03  0.38567358691E+03  0.00000000000E+00 0. -1.
         21   -1    0    0  501  503 -0.00000000000E+00 -0.00000000000E+00 -0.24771453510E+03  0.24771453510E+03  0.00000000000E+00 0. -1.
          6    2    1    2  501    0 -0.18225632398E+03 -0.95529590048E+02  0.22373074701E+03  0.35018154170E+03  0.17386314957E+03 0.  0.
         24    2    3    3    0    0 -0.14814427564E+02 -0.22569300435E+02  0.62348793881E+02  0.10640660998E+03  0.81891110401E+02 0.  0.
         -6    2    1    2    0  502  0.18225632398E+03  0.95529590048E+02 -0.85771695201E+02  0.28320658032E+03  0.17465942068E+03 0.  0.
        -24    2    5    5    0    0  0.98357170981E+02  0.22760298933E+02 -0.10999393534E+03  0.16943819929E+03  0.80115374792E+02 0.  0.
          5    1    3    3  501    0 -0.16744189642E+03 -0.72960289613E+02  0.16138195313E+03  0.24377493172E+03  0.47000000000E+01 0. -1.
        -11    1    4    4    0    0 -0.11554197595E+02 -0.51803590322E+02  0.24464966742E+02  0.58443528726E+02  0.00000000000E+00 0.  1.
         12    1    4    4    0    0 -0.32602299690E+01  0.29234289886E+02  0.37883827139E+02  0.47963081253E+02  0.00000000000E+00 0. -1.
         -5    1    5    5    0  502  0.83899153003E+02  0.72769291116E+02  0.24222240136E+02  0.11376838103E+03  0.47000000000E+01 0.  1.
         11    1    6    6    0    0  0.10436036159E+02  0.15731537533E+02  0.93271383475E+01  0.21056771681E+02  0.00000000000E+00 0. -1.
        -12    1    6    6    0    0  0.87921134822E+02  0.70287614002E+01 -0.11932107368E+03  0.14838142761E+03  0.00000000000E+00 0.  1.
</event>
<event>
12    1  0.9966151E-001  0.2584519E+03  0.7818608E-02  0.1108080E+00
         21   -1    0    0  503  502  0.00000000000E+00  0.00000000000E+00  0.55948484739E+02  0.55948484739E+02  0.00000000000E+00 0. -1.
         21   -1    0    0  501  503 -0.00000000000E+00 -0.00000000000E+00 -0.11939168226E+04  0.11939168226E+04  0.00000000000E+00 0. -1.
          6    2    1    2  501    0 -0.52171209009E+02 -0.18587092717E+03 -0.57453738067E+03  0.62999254838E+03  0.17183588861E+03 0.  0.
         24    2    3    3    0    0  0.93491120800E+01 -0.28917190815E+02 -0.13313732726E+03  0.15747236637E+03  0.78411660090E+02 0.  0.
         -6    2    1    2    0  502  0.52171209009E+02  0.18587092717E+03 -0.56343095724E+03  0.61987275900E+03  0.17180790775E+03 0.  0.
        -24    2    5    5    0    0  0.11384877944E+02  0.18390409174E+03 -0.35775817735E+03  0.41013297825E+03  0.79169539496E+02 0.  0.
          5    1    3    3  501    0 -0.61520321090E+02 -0.15695373635E+03 -0.44140005341E+03  0.47252018201E+03  0.47000000000E+01 0. -1.
        -13    1    4    4    0    0 -0.11131894613E+02  0.13487719919E+02 -0.13688074540E+01  0.17541701746E+02  0.00000000000E+00 0.  1.
         14    1    4    4    0    0  0.20481006693E+02 -0.42404910734E+02 -0.13176851981E+03  0.13993066462E+03  0.00000000000E+00 0. -1.
         -5    1    5    5    0  502  0.40786331065E+02  0.19668354275E+01 -0.20567277989E+03  0.20973978075E+03  0.47000000000E+01 0.  1.
         11    1    6    6    0    0 -0.21450714168E+02  0.11584472297E+02 -0.33034926204E+02  0.41056540113E+02  0.00000000000E+00 0. -1.
        -12    1    6    6    0    0  0.32835592112E+02  0.17231961944E+03 -0.32472325115E+03  0.36907643814E+03  0.00000000000E+00 0.  1.
</event>
<event>
12    1  0.9966151E-001  0.3001037E+03  0.7818608E-02  0.1085299E+00
         21   -1    0    0  501  502  0.00000000000E+00  0.00000000000E+00  0.26836639863E+03  0.26836639863E+03  0.00000000000E+00 0. -1.
         21   -1    0    0  502  503 -0.00000000000E+00 -0.00000000000E+00 -0.34377486044E+03  0.34377486044E+03  0.00000000000E+00 0. -1.
         -6    2    1    2    0  503  0.91150049767E+02  0.22927367627E+03  0.12213553516E+02  0.30035213661E+03  0.17084345136E+03 0.  0.
        -24    2    3    3    0    0  0.22990897114E+02  0.20276316150E+03  0.38179219086E+02  0.22260393231E+03  0.80332912897E+02 0.  0.
          6    2    1    2  501    0 -0.91150049767E+02 -0.22927367627E+03 -0.87622015331E+02  0.31178912247E+03  0.16929290923E+03 0.  0.
         24    2    5    5    0    0 -0.50149293894E+01 -0.54048617825E+02 -0.61392973272E+02  0.11472788144E+03  0.80293131752E+02 0.  0.
          5    1    5    5  501    0 -0.86135120378E+02 -0.17522505844E+03 -0.26229042058E+02  0.19706124103E+03  0.47000000000E+01 0. -1.
        -11    1    6    6    0    0  0.13679310165E+02 -0.27629564537E+02  0.13107643166E+02  0.33501144345E+02  0.00000000000E+00 0.  1.
         12    1    6    6    0    0 -0.18694239554E+02 -0.26419053289E+02 -0.74500616438E+02  0.81226737093E+02  0.00000000000E+00 0. -1.
         -5    1    3    3    0  503  0.68159152654E+02  0.26510514762E+02 -0.25965665570E+02  0.77748204300E+02  0.47000000000E+01 0.  1.
         13    1    4    4    0    0  0.25406710582E+02  0.50421480197E+02  0.41719194781E+02  0.70201978754E+02  0.00000000000E+00 0. -1.
        -14    1    4    4    0    0 -0.24158134686E+01  0.15234168131E+03 -0.35399756955E+01  0.15240195355E+03  0.00000000000E+00 0.  1.
</event>
<event>
12    1  0.9966151E-001  0.2142350E+03  0.7818608E-02  0.1138323E+00
         21   -1    0    0  501  502  0.00000000000E+00  0.00000000000E+00  0.79463675534E+03  0.79463675534E+03  0.00000000000E+00 0. -1.
         21   -1    0    0  502  503 -0.00000000000E+00 -0.00000000000E+00 -0.57672044375E+02  0.57672044375E+02  0.00000000000E+00 0. -1.
         -6    2    1    2    0  503  0.77919046701E+02  0.10180784641E+03  0.36304707772E+03  0.42136675753E+03  0.17120323677E+03 0.  0.
        -24    2    3    3    0    0  0.28853900856E+02  0.12944723988E+03  0.23447535177E+03  0.28092423077E+03  0.79690635213E+02 0.  0.
          6    2    1    2  501    0 -0.77919046701E+02 -0.10180784641E+03  0.37391763325E+03  0.43094204219E+03  0.17164041436E+03 0.  0.
         24    2    5    5    0    0 -0.36415624944E+02  0.15684170347E+02  0.16996507064E+03  0.19189048747E+03  0.79760535375E+02 0.  0.
          5    1    5    5  501    0 -0.41503421757E+02 -0.11749201676E+03  0.20395256261E+03  0.23905155472E+03  0.47000000000E+01 0. -1.
        -11    1    6    6    0    0 -0.60815529485E+02  0.16348497190E+02  0.10432008298E+03  0.12185434625E+03  0.00000000000E+00 0.  1.
         12    1    6    6    0    0  0.24399904541E+02 -0.66432684376E+00  0.65644987665E+02  0.70036141223E+02  0.00000000000E+00 0. -1.
         -5    1    3    3    0  503  0.49065145845E+02 -0.27639393471E+02  0.12857172595E+03  0.14044252676E+03  0.47000000000E+01 0.  1.
         11    1    4    4    0    0 -0.60056406612E+01  0.10043133081E+03  0.20025176697E+03  0.22410553340E+03  0.00000000000E+00 0. -1.
        -12    1    4    4    0    0  0.34859541517E+02  0.29015909072E+02  0.34223584795E+02  0.56818697366E+02  0.00000000000E+00 0.  1.
</event>
<event>
12    1  0.9966151E-001  0.1876311E+03  0.7818608E-02  0.1161237E+00
         21   -1    0    0  501  502  0.00000000000E+00  0.00000000000E+00  0.89317975614E+03  0.89317975614E+03  0.00000000000E+00 0. -1.
         21   -1    0    0  502  503 -0.00000000000E+00 -0.00000000000E+00 -0.58997502271E+02  0.58997502271E+02  0.00000000000E+00 0. -1.
         -6    2    1    2    0  503 -0.46307944752E+02 -0.49108851948E+02  0.69727197783E+03  0.72207593155E+03  0.17506951411E+03 0.  0.
        -24    2    3    3    0    0 -0.87774064603E+01 -0.64124560901E+02  0.20890490135E+03  0.23201623701E+03  0.77467891770E+02 0.  0.
          6    2    1    2  501    0  0.46307944752E+02  0.49108851948E+02  0.13691027604E+03  0.23010132686E+03  0.17218040496E+03 0.  0.
         24    2    5    5    0    0  0.89599591077E+02  0.48865339664E+02  0.12326573806E+03  0.18446702664E+03  0.91748207592E+02 0.  0.
          5    1    5    5  501    0 -0.43291646325E+02  0.24351228399E+00  0.13644537977E+02  0.45634300218E+02  0.47000000000E+01 0. -1.
        -13    1    6    6    0    0  0.61870498917E+01  0.44481247828E+02  0.14220504587E+02  0.47107151743E+02  0.00000000000E+00 0.  1.
         14    1    6    6    0    0  0.83412541186E+02  0.43840918363E+01  0.10904523348E+03  0.13735987490E+03  0.00000000000E+00 0. -1.
         -5    1    3    3    0  503 -0.37530538292E+02  0.15015708953E+02  0.48836707648E+03  0.49005969454E+03  0.47000000000E+01 0.  1.
         13    1    4    4    0    0  0.16290102052E+02 -0.53094135508E+02  0.19191053629E+03  0.19978490581E+03  0.00000000000E+00 0. -1.
        -14    1    4    4    0    0 -0.25067508513E+02 -0.11030425393E+02  0.16994365058E+02  0.32231331203E+02  0.00000000000E+00 0.  1.
</event>
<event>
12    1  0.9966151E-001  0.1861019E+03  0.7818608E-02  0.1162300E+00
         21   -1    0    0  501  502  0.00000000000E+00  0.00000000000E+00  0.30667976109E+03  0.30667976109E+03  0.00000000000E+00 0. -1.
         21   -1    0    0  502  503 -0.00000000000E+00 -0.00000000000E+00 -0.21035620514E+03  0.21035620514E+03  0.00000000000E+00 0. -1.
         -6    2    1    2    0  503  0.77497803003E+01 -0.69062201396E+02 -0.12833394662E+03  0.22606085710E+03  0.17263911058E+03 0.  0.
        -24    2    3    3    0    0 -0.41490039305E+02 -0.94586501809E+02 -0.57279115560E+02  0.13580051828E+03  0.67028755021E+02 0.  0.
          6    2    1    2  501    0 -0.77497803003E+01  0.69062201396E+02  0.22465750258E+03  0.29097510913E+03  0.17136473940E+03 0.  0.
         24    2    5    5    0    0 -0.21170917263E+02  0.42622867690E+02  0.24174952981E+03  0.25642959308E+03  0.71051984202E+02 0.  0.
          5    1    5    5  501    0  0.13421136962E+02  0.26439333705E+02 -0.17092027225E+02  0.34545516045E+02  0.47000000000E+01 0. -1.
        -11    1    6    6    0    0  0.98912511769E+01 -0.80149001692E+01  0.75239965365E+01  0.14788035652E+02  0.00000000000E+00 0.  1.
         12    1    6    6    0    0 -0.31062168440E+02  0.50637767860E+02  0.23422553327E+03  0.24164155743E+03  0.00000000000E+00 0. -1.
         -5    1    3    3    0  503  0.49239819605E+02  0.25524300413E+02 -0.71054831064E+02  0.90260338820E+02  0.47000000000E+01 0.  1.
         11    1    4    4    0    0  0.17102213140E+02 -0.34993954632E+02 -0.12031520929E+02  0.40765427152E+02  0.00000000000E+00 0. -1.
        -12    1    4    4    0    0 -0.58592252445E+02 -0.59592547177E+02 -0.45247594632E+02  0.95035091127E+02  0.00000000000E+00 0.  1.
</event>
<event>
12    1  0.9966151E-001  0.2063393E+03  0.7818608E-02  0.1145490E+00
         21   -1    0    0  503  502  0.00000000000E+00  0.00000000000E+00  0.39024501338E+03  0.39024501338E+03  0.00000000000E+00 0.  1.
         21   -1    0    0  501  503 -0.00000000000E+00 -0.00000000000E+00 -0.17345622491E+03  0.17345622491E+03  0.00000000000E+00 0.  1.
          6    2    1    2  501    0  0.10913292088E+03 -0.20309768396E+02  0.28263325556E+03  0.34711080829E+03  0.16817215873E+03 0.  0.
         24    2    3    3    0    0  0.34672974536E+01  0.21048419445E+02  0.73723022064E+02  0.10932666388E+03  0.77859985481E+02 0.  0.
         -6    2    1    2    0  502 -0.10913292088E+03  0.20309768396E+02 -0.65844467093E+02  0.21659042999E+03  0.17393515862E+03 0.  0.
        -24    2    5    5    0    0 -0.49228727309E+02 -0.52513137358E+02 -0.60194112894E+02  0.12200869543E+03  0.77985212349E+02 0.  0.
          5    1    3    3  501    0  0.10566562343E+03 -0.41358187842E+02  0.20891023350E+03  0.23778414442E+03  0.47000000000E+01 0. -1.
        -13    1    4    4    0    0  0.17152611547E+02  0.45046339263E+02  0.63824592442E+02  0.79981018775E+02  0.00000000000E+00 0.  1.
         14    1    4    4    0    0 -0.13685314093E+02 -0.23997919817E+02  0.98984296218E+01  0.29345645101E+02  0.00000000000E+00 0. -1.
         -5    1    5    5    0  502 -0.59904193575E+02  0.72822905755E+02 -0.56503541992E+01  0.94581734564E+02  0.47000000000E+01 0.  1.
         13    1    6    6    0    0 -0.45215558335E+02  0.16371429693E+01 -0.66157086950E+01  0.45726300464E+02  0.00000000000E+00 0. -1.
        -14    1    6    6    0    0 -0.40131689743E+01 -0.54150280328E+02 -0.53578404199E+02  0.76282394963E+02  0.00000000000E+00 0.  1.
</event>
<event>
12    1  0.9966151E-001  0.2907380E+03  0.7818608E-02  0.1090026E+00
         21   -1    0    0  503  502  0.00000000000E+00  0.00000000000E+00  0.92192074394E+02  0.92192074394E+02  0.00000000000E+00 0.  1.
         21   -1    0    0  501  503 -0.00000000000E+00 -0.00000000000E+00 -0.92441551134E+03  0.92441551134E+03  0.00000000000E+00 0.  1.
          6    2    1    2  501    0 -0.23437047746E+03 -0.28484166703E+01 -0.36556604631E+03  0.46679154235E+03  0.17122551098E+03 0.  0.
         24    2    3    3    0    0 -0.10288798188E+03 -0.53840051754E+02 -0.23842796991E+03  0.27686004427E+03  0.79491504513E+02 0.  0.
         -6    2    1    2    0  502  0.23437047746E+03  0.28484166703E+01 -0.46665739064E+03  0.54981604338E+03  0.17202013588E+03 0.  0.
        -24    2    5    5    0    0  0.14111875593E+03 -0.65212532643E+02 -0.27322000604E+03  0.32449785027E+03  0.80514007732E+02 0.  0.
          5    1    3    3  501    0 -0.13148249558E+03  0.50991635083E+02 -0.12713807640E+03  0.18993149808E+03  0.47000000000E+01 0. -1.
        -11    1    4    4    0    0 -0.60023165894E+02  0.12807931949E+02 -0.10947845811E+03  0.12550839157E+03  0.00000000000E+00 0.  1.
         12    1    4    4    0    0 -0.42864815986E+02 -0.66647983702E+02 -0.12894951180E+03  0.15135165270E+03  0.00000000000E+00 0. -1.
         -5    1    5    5    0  502  0.93251721528E+02  0.68060949313E+02 -0.19343738459E+03  0.22531819311E+03  0.47000000000E+01 0.  1.
         11    1    6    6    0    0  0.97538518847E+01  0.33396583872E+00 -0.86140355719E+02  0.86691464650E+02  0.00000000000E+00 0. -1.
        -12    1    6    6    0    0  0.13136490404E+03 -0.65546498481E+02 -0.18707965032E+03  0.23780638562E+03  0.00000000000E+00 0.  1.
</event>
<event>
12    1  0.9966151E-001  0.1760092E+03  0.7818608E-02  0.1171915E+00
         21   -1    0    0  501  502  0.00000000000E+00  0.00000000000E+00  0.22678623181E+04  0.22678623181E+04  0.00000000000E+00 0. -1.
         21   -1    0    0  502  503 -0.00000000000E+00 -0.00000000000E+00 -0.16545546588E+02  0.16545546588E+02  0.00000000000E+00 0. -1.
         -6    2    1    2    0  503  0.21339234488E+02 -0.27757334049E+02  0.16055334346E+04  0.16150683843E+04  0.17170452423E+03 0.  0.
        -24    2    3    3    0    0  0.14664952681E+02  0.26848812204E+02  0.13810049674E+04  0.13838509545E+04  0.83263585443E+02 0.  0.
          6    2    1    2  501    0 -0.21339234488E+02  0.27757334049E+02  0.64578333686E+03  0.66933948039E+03  0.17249170799E+03 0.  0.
         24    2    5    5    0    0  0.80232699539E+01 -0.21728576707E+02  0.55905805611E+03  0.56515514207E+03  0.79485348340E+02 0.  0.
          5    1    5    5  501    0 -0.29362504442E+02  0.49485910756E+02  0.86725280746E+02  0.10418433832E+03  0.47000000000E+01 0. -1.
        -11    1    6    6    0    0  0.19571340635E+01  0.30522738648E+01  0.50860973298E+03  0.50862265702E+03  0.00000000000E+00 0.  1.
         12    1    6    6    0    0  0.60661358905E+01 -0.24780850571E+02  0.50448323134E+02  0.56532485057E+02  0.00000000000E+00 0. -1.
         -5    1    3    3    0  503  0.66742818070E+01 -0.54606146254E+02  0.22452846724E+03  0.23121742981E+03  0.47000000000E+01 0.  1.
         13    1    4    4    0    0  0.25513121995E+02 -0.21348070989E+02  0.82014812507E+03  0.82082251833E+03  0.00000000000E+00 0. -1.
        -14    1    4    4    0    0 -0.10848169313E+02  0.48196883194E+02  0.56085684232E+03  0.56302843614E+03  0.00000000000E+00 0.  1.
</event>
<event>
12    1  0.9966151E-001  0.2079396E+03  0.7818608E-02  0.1143413E+00
         21   -1    0    0  501  502  0.00000000000E+00  0.00000000000E+00  0.33386734902E+03  0.33386734902E+03  0.00000000000E+00 0. -1.
         21   -1    0    0  502  503 -0.00000000000E+00 -0.00000000000E+00 -0.11908249514E+04  0.11908249514E+04  0.00000000000E+00 0. -1.
         -6    2    1    2    0  503 -0.35344061783E+02 -0.11082298279E+03  0.29154894982E+03  0.35751357648E+03  0.17112635977E+03 0.  0.
        -24    2    3    3    0    0  0.40268353875E+01 -0.10836144727E+03  0.12962305598E+03  0.19078561902E+03  0.88535852215E+02 0.  0.
          6    2    1    2  501    0  0.35344061783E+02  0.11082298279E+03 -0.11485065522E+04  0.11671787239E+04  0.17235990526E+03 0.  0.
         24    2    5    5    0    0  0.52597684235E+02  0.18290826736E+02 -0.81629448267E+03  0.82185737137E+03  0.77535706081E+02 0.  0.
          5    1    5    5  501    0 -0.17253622452E+02  0.92532156056E+02 -0.33221206953E+03  0.34532135256E+03  0.47000000000E+01 0. -1.
        -11    1    6    6    0    0 -0.82823503963E+01  0.12793258816E+02 -0.34986145795E+02  0.38161435990E+02  0.00000000000E+00 0.  1.
         12    1    6    6    0    0  0.60880034632E+02  0.54975679196E+01 -0.78130833687E+03  0.78369593538E+03  0.00000000000E+00 0. -1.
         -5    1    3    3    0  503 -0.39370897171E+02 -0.24615355223E+01  0.16192589385E+03  0.16672795746E+03  0.47000000000E+01 0.  1.
         11    1    4    4    0    0 -0.20108317589E+02 -0.12951239432E+01  0.53633117579E+02  0.57293394764E+02  0.00000000000E+00 0. -1.
        -12    1    4    4    0    0  0.24135152976E+02 -0.10706632333E+03  0.75989938396E+02  0.13349222426E+03  0.00000000000E+00 0.  1.
</event>
<event>
12    1  0.9966151E-001  0.2155468E+03  0.7818608E-02  0.1138403E+00
         21   -1    0    0  501  502  0.00000000000E+00  0.00000000000E+00  0.60244424990E+03  0.60244424990E+03  0.00000000000E+00 0.  1.
         21   -1    0    0  502  503 -0.00000000000E+00 -0.00000000000E+00 -0.79217542215E+02  0.79217542215E+02  0.00000000000E+00 0.  1.
         -6    2    1    2    0  503  0.12743569061E+03 -0.16319824038E+02  0.17957479459E+03  0.27600543537E+03  0.16560706990E+03 0.  0.
        -24    2    3    3    0    0  0.35131887729E+01  0.15941743734E+02  0.74561704560E+02  0.11033276322E+03  0.79670503731E+02 0.  0.
          6    2    1    2  501    0 -0.12743569061E+03  0.16319824038E+02  0.34365191309E+03  0.40565635675E+03  0.17307296294E+03 0.  0.
         24    2    5    5    0    0  0.12040823432E+00  0.23238771933E+02  0.85288715037E+02  0.11739941875E+03  0.77255443771E+02 0.  0.
          5    1    5    5  501    0 -0.12755609885E+03 -0.69189478954E+01  0.25836319805E+03  0.28825693799E+03  0.47000000000E+01 0. -1.
        -11    1    6    6    0    0 -0.13182282184E+02 -0.14453511005E+02 -0.36426290006E+01  0.19898374054E+02  0.00000000000E+00 0.  1.
         12    1    6    6    0    0  0.13302690419E+02  0.37692282938E+02  0.88931344037E+02  0.97501044701E+02  0.00000000000E+00 0. -1.
         -5    1    3    3    0  503  0.12392250184E+03 -0.32261567772E+02  0.10501309003E+03  0.16567267214E+03  0.47000000000E+01 0.  1.
         11    1    4    4    0    0  0.30981704769E+02 -0.13790443895E+02  0.12309152835E+02  0.36077106546E+02  0.00000000000E+00 0. -1.
        -12    1    4    4    0    0 -0.27468515996E+02  0.29732187629E+02  0.62252551725E+02  0.74255656676E+02  0.00000000000E+00 0.  1.
</event>
<event>
12    1  0.9966151E-001  0.2197580E+03  0.7818608E-02  0.1134251E+00
         21   -1    0    0  503  502  0.00000000000E+00  0.00000000000E+00  0.68742114252E+02  0.68742114252E+02  0.00000000000E+00 0.  1.
         21   -1    0    0  501  503 -0.00000000000E+00 -0.00000000000E+00 -0.11319094489E+04  0.11319094489E+04  0.00000000000E+00 0.  1.
          6    2    1    2  501    0 -0.11341550323E+03  0.75717439420E+02 -0.16121643542E+03  0.27255151796E+03  0.17232928913E+03 0.  0.
         24    2    3    3    0    0  0.30446242027E+01  0.83879839252E+01 -0.35275889982E+02  0.88216692597E+02  0.80362730341E+02 0.  0.
         -6    2    1    2    0  502  0.11341550323E+03 -0.75717439420E+02 -0.90195089926E+03  0.92810004522E+03  0.17104988237E+03 0.  0.
        -24    2    5    5    0    0  0.13900148484E+03 -0.38435055959E+02 -0.57666578830E+03  0.59965353209E+03  0.79007979634E+02 0.  0.
          5    1    3    3  501    0 -0.11646012743E+03  0.67329455495E+02 -0.12594054544E+03  0.18433482537E+03  0.47000000000E+01 0. -1.
        -11    1    4    4    0    0  0.18482680723E+02  0.16931253673E+02 -0.55787808295E+02  0.61160088227E+02  0.00000000000E+00 0.  1.
         12    1    4    4    0    0 -0.15438056521E+02 -0.85432697474E+01  0.20511918313E+02  0.27056604369E+02  0.00000000000E+00 0. -1.
         -5    1    5    5    0  502 -0.25585981613E+02 -0.37282383461E+02 -0.32528511096E+03  0.32844651313E+03  0.47000000000E+01 0.  1.
         13    1    6    6    0    0  0.94122026457E+02 -0.61739948545E+02 -0.36122656270E+03  0.37835883327E+03  0.00000000000E+00 0. -1.
        -14    1    6    6    0    0  0.44879458381E+02  0.23304892586E+02 -0.21543922560E+03  0.22129469883E+03  0.00000000000E+00 0.  1.
</event>
<event>
12    1  0.9966151E-001  0.1864878E+03  0.7818608E-02  0.1161790E+00
         21   -1    0    0  503  502  0.00000000000E+00  0.00000000000E+00  0.14967647157E+04  0.14967647157E+04  0.00000000000E+00 0.  1.
         21   -1    0    0  501  503 -0.00000000000E+00 -0.00000000000E+00 -0.40260677800E+02  0.40260677800E+02  0.00000000000E+00 0.  1.
          6    2    1    2  501    0 -0.44977415563E+02 -0.54530356544E+02  0.12283789723E+04  0.12423752020E+04  0.17200207886E+03 0.  0.
         24    2    3    3    0    0 -0.79980956332E+02 -0.12197707630E+02  0.10355485939E+04  0.10418186118E+04  0.80494670961E+02 0.  0.
         -6    2    1    2    0  502  0.44977415563E+02  0.54530356544E+02  0.22812506557E+03  0.29465019152E+03  0.17257219396E+03 0.  0.
        -24    2    5    5    0    0 -0.59401493403E+01  0.32078410623E+01  0.20229261631E+03  0.21773462453E+03  0.80252654087E+02 0.  0.
          5    1    3    3  501    0  0.35003540769E+02 -0.42332648914E+02  0.19283037841E+03  0.20055659019E+03  0.47000000000E+01 0. -1.
        -13    1    4    4    0    0 -0.56397146517E+01 -0.30375286619E+02  0.48409133243E+03  0.48507616160E+03  0.00000000000E+00 0.  1.
         14    1    4    4    0    0 -0.74341241680E+02  0.18177578990E+02  0.55145726146E+03  0.55674245016E+03  0.00000000000E+00 0. -1.
         -5    1    5    5    0  502  0.50917564903E+02  0.51322515481E+02  0.25832449263E+02  0.76915566993E+02  0.47000000000E+01 0.  1.
         11    1    6    6    0    0  0.14046765050E+02  0.37917281882E+02  0.10537846031E+03  0.11287006588E+03  0.00000000000E+00 0. -1.
        -12    1    6    6    0    0 -0.19986914390E+02 -0.34709440819E+02  0.96914155998E+02  0.10486455865E+03  0.00000000000E+00 0.  1.
</event>
<event>
12    1  0.9966151E-001  0.2708971E+03  0.7818608E-02  0.1100790E+00
         21   -1    0    0  503  502  0.00000000000E+00  0.00000000000E+00  0.75709669998E+02  0.75709669998E+02  0.00000000000E+00 0.  1.
         21   -1    0    0  501  503 -0.00000000000E+00 -0.00000000000E+00 -0.24568715267E+04  0.24568715267E+04  0.00000000000E+00 0. -1.
          6    2    1    2  501    0  0.84588196748E+02 -0.19159392810E+03 -0.20492365375E+03  0.33954722948E+03  0.17156695739E+03 0.  0.
         24    2    3    3    0    0  0.10422582690E+02 -0.14222717809E+03 -0.72325336576E+02  0.17972852584E+03  0.82062100111E+02 0.  0.
         -6    2    1    2    0  502 -0.84588196748E+02  0.19159392810E+03 -0.21762382029E+04  0.21930339672E+04  0.17181929188E+03 0.  0.
        -24    2    5    5    0    0 -0.11002213955E+03  0.19583865993E+03 -0.20675879627E+04  0.20812669421E+04  0.79337562919E+02 0.  0.
          5    1    3    3  501    0  0.74165614057E+02 -0.49366750008E+02 -0.13259831717E+03  0.15981870363E+03  0.47000000000E+01 0. -1.
        -11    1    4    4    0    0  0.90629026553E+01  0.58420935898E+01 -0.19923721702E+02  0.22654380339E+02  0.00000000000E+00 0.  1.
         12    1    4    4    0    0  0.13596800350E+01 -0.14806927168E+03 -0.52401614873E+02  0.15707414551E+03  0.00000000000E+00 0. -1.
         -5    1    5    5    0  502  0.25433942806E+02 -0.42447318300E+01 -0.10865024024E+03  0.11176702510E+03  0.47000000000E+01 0.  1.
         13    1    6    6    0    0 -0.24901178404E+02  0.95009076034E+02 -0.11579308205E+04  0.11620888857E+04  0.00000000000E+00 0. -1.
        -14    1    6    6    0    0 -0.85120961149E+02  0.10082958389E+03 -0.90965714218E+03  0.91917805638E+03  0.00000000000E+00 0.  1.
</event>
<event>
12    1  0.9966151E-001  0.1877976E+03  0.7818608E-02  0.1161502E+00
         21   -1    0    0  501  502  0.00000000000E+00  0.00000000000E+00  0.62358139451E+03  0.62358139451E+03  0.00000000000E+00 0.  1.
         21   -1    0    0  502  503 -0.00000000000E+00 -0.00000000000E+00 -0.98032288335E+02  0.98032288335E+02  0.00000000000E+00 0. -1.
         -6    2    1    2    0  503  0.61098342636E+02  0.16858972406E+02  0.49942771485E+03  0.53200816706E+03  0.17200992715E+03 0.  0.
        -24    2    3    3    0    0  0.45896194481E+02  0.55629142379E+02  0.46642701502E+03  0.47866618006E+03  0.79787777520E+02 0.  0.
          6    2    1    2  501    0 -0.61098342636E+02 -0.16858972406E+02  0.26121391328E+02  0.18960551579E+03  0.17677865286E+03 0.  0.
         24    2    5    5    0    0  0.28286183367E+02 -0.39028457971E+02  0.21787715125E+02  0.97291105597E+02  0.81654920225E+02 0.  0.
          5    1    5    5  501    0 -0.89384526003E+02  0.22169485564E+02  0.43336762031E+01  0.92314410188E+02  0.47000000000E+01 0. -1.
        -11    1    6    6    0    0  0.37939530093E+02 -0.37402753007E+02 -0.18063351323E+02  0.56255297859E+02  0.00000000000E+00 0.  1.
         12    1    6    6    0    0 -0.96533467259E+01 -0.16257049630E+01  0.39851066448E+02  0.41035807738E+02  0.00000000000E+00 0. -1.
         -5    1    3    3    0  503  0.15202148155E+02 -0.38770169973E+02  0.33000699826E+02  0.53341987001E+02  0.47000000000E+01 0.  1.
         11    1    4    4    0    0  0.38396644437E+02 -0.41692355966E+01  0.97885804391E+02  0.10522982244E+03  0.00000000000E+00 0. -1.
        -12    1    4    4    0    0  0.74995500439E+01  0.59798377976E+02  0.36854121063E+03  0.37343635762E+03  0.00000000000E+00 0.  1.
</event>
<event>
12    1  0.9966151E-001  0.1909411E+03  0.7818608E-02  0.1158859E+00
         21   -1    0    0  501  502  0.00000000000E+00  0.00000000000E+00  0.24019546666E+03  0.24019546666E+03  0.00000000000E+00 0.  1.
         21   -1    0    0  502  503 -0.00000000000E+00 -0.00000000000E+00 -0.18668957648E+03  0.18668957648E+03  0.00000000000E+00 0.  1.
         -6    2    1    2    0  503 -0.83589250841E+02 -0.13828704838E+02  0.12487632939E+03  0.22815036586E+03  0.17111427722E+03 0.  0.
        -24    2    3    3    0    0 -0.12310669076E+03 -0.25432928793E+02  0.10166761639E+03  0.18064225676E+03  0.80580577873E+02 0.  0.
          6    2    1    2  501    0  0.83589250841E+02  0.13828704838E+02 -0.71370439209E+02  0.19873467728E+03  0.16499495879E+03 0.  0.
         24    2    5    5    0    0  0.38678955658E+02 -0.19169010059E+02 -0.98691521091E+02  0.13649067904E+03  0.83822291613E+02 0.  0.
          5    1    5    5  501    0  0.44910295183E+02  0.32997714897E+02  0.27321081882E+02  0.62243998241E+02  0.47000000000E+01 0. -1.
        -13    1    6    6    0    0  0.23192076206E+02  0.22661331823E+02 -0.83161318521E+02  0.89259247458E+02  0.00000000000E+00 0.  1.
         14    1    6    6    0    0  0.15486879452E+02 -0.41830341882E+02 -0.15530202571E+02  0.47231431579E+02  0.00000000000E+00 0. -1.
         -5    1    3    3    0  503  0.39517439915E+02  0.11604223955E+02  0.23208713002E+02  0.47508109099E+02  0.47000000000E+01 0.  1.
         13    1    4    4    0    0 -0.93259299435E+02 -0.44133027942E+02  0.42085241270E+02  0.11142795259E+03  0.00000000000E+00 0. -1.
        -14    1    4    4    0    0 -0.29847391320E+02  0.18700099150E+02  0.59582375118E+02  0.69214304168E+02  0.00000000000E+00 0.  1.
</event>
<event>
12    1  0.9966151E-001  0.1927174E+03  0.7818608E-02  0.1156339E+00
         21   -1    0    0  501  502  0.00000000000E+00  0.00000000000E+00  0.41094173701E+03  0.41094173701E+03  0.00000000000E+00 0. -1.
         21   -1    0    0  502  503 -0.00000000000E+00 -0.00000000000E+00 -0.10320243321E+03  0.10320243321E+03  0.00000000000E+00 0. -1.
         -6    2    1    2    0  503  0.64068877861E+02 -0.57833088418E+02  0.24722447851E+03  0.31346442705E+03  0.17230936429E+03 0.  0.
        -24    2    3    3    0    0  0.27943679619E+02 -0.10064532080E+03  0.13720467484E+03  0.18991539067E+03  0.79576397174E+02 0.  0.
          6    2    1    2  501    0 -0.64068877861E+02  0.57833088418E+02  0.60514825280E+02  0.20067974317E+03  0.17076541809E+03 0.  0.
         24    2    5    5    0    0 -0.88353884422E+02  0.33332487267E+02 -0.10283905785E+02  0.12178366392E+03  0.76210487993E+02 0.  0.
          5    1    5    5  501    0  0.24285006560E+02  0.24500601152E+02  0.70798731065E+02  0.78896079249E+02  0.47000000000E+01 0. -1.
        -11    1    6    6    0    0 -0.44083127973E+01  0.23486379316E+02  0.20846976559E+02  0.31711822192E+02  0.00000000000E+00 0.  1.
         12    1    6    6    0    0 -0.83945571624E+02  0.98461079508E+01 -0.31130882344E+02  0.90071841730E+02  0.00000000000E+00 0. -1.
         -5    1    3    3    0  503  0.36125198242E+02  0.42812232381E+02  0.11001980367E+03  0.12354903637E+03  0.47000000000E+01 0.  1.
         11    1    4    4    0    0  0.43173962544E+02 -0.78892003568E+02  0.13636090972E+03  0.16334698334E+03  0.00000000000E+00 0. -1.
        -12    1    4    4    0    0 -0.15230282924E+02 -0.21753317231E+02  0.84376512525E+00  0.26568407331E+02  0.00000000000E+00 0.  1.
</event>
<event>
12    1  0.9966151E-001  0.6041355E+03  0.7818608E-02  0.9897156E-01
         21   -1    0    0  501  502  0.00000000000E+00  0.00000000000E+00  0.39766848762E+03  0.39766848762E+03  0.00000000000E+00 0.  1.
         21   -1    0    0  502  503 -0.00000000000E+00 -0.00000000000E+00 -0.91799752001E+03  0.91799752001E+03  0.00000000000E+00 0.  1.
         -6    2    1    2    0  503 -0.44459550793E+03  0.37080510049E+03 -0.23765111225E+03  0.64866788897E+03  0.17067627491E+03 0.  0.
        -24    2    3    3    0    0 -0.24923442905E+03  0.13864971252E+03 -0.15746388514E+03  0.33479823977E+03  0.77158556367E+02 0.  0.
          6    2    1    2  501    0  0.44459550793E+03 -0.37080510049E+03 -0.28267792015E+03  0.66699811866E+03  0.17267916938E+03 0.  0.
         24    2    5    5    0    0  0.41355798632E+03 -0.35692814066E+03 -0.21749941368E+03  0.59333520080E+03  0.79452878601E+02 0.  0.
          5    1    5    5  501    0  0.31037521608E+02 -0.13876959827E+02 -0.65178506467E+02  0.73662917855E+02  0.47000000000E+01 0. -1.
        -11    1    6    6    0    0  0.23673924616E+03 -0.16178385038E+03 -0.88406578646E+02  0.30005867437E+03  0.00000000000E+00 0.  1.
         12    1    6    6    0    0  0.17681874016E+03 -0.19514429028E+03 -0.12909283503E+03  0.29327652643E+03  0.00000000000E+00 0. -1.
         -5    1    3    3    0  503 -0.19536107888E+03  0.23215538797E+03 -0.80187227105E+02  0.31386964921E+03  0.47000000000E+01 0.  1.
         11    1    4    4    0    0 -0.14881815709E+03  0.10373189030E+03 -0.13503230063E+03  0.22614347472E+03  0.00000000000E+00 0. -1.
        -12    1    4    4    0    0 -0.10041627196E+03  0.34917822214E+02 -0.22431584509E+02  0.10865476504E+03  0.00000000000E+00 0.  1.
</event>
<event>
12    1  0.9966151E-001  0.2080607E+03  0.7818608E-02  0.1143127E+00
         21   -1    0    0  501  502  0.00000000000E+00  0.00000000000E+00  0.42927084641E+03  0.42927084641E+03  0.00000000000E+00 0.  1.
         21   -1    0    0  502  503 -0.00000000000E+00 -0.00000000000E+00 -0.13678938338E+03  0.13678938338E+03  0.00000000000E+00 0.  1.
         -6    2    1    2    0  503  0.37663849175E+02 -0.11222568501E+03  0.29138517061E+03  0.35799662282E+03  0.17100612383E+03 0.  0.
        -24    2    3    3    0    0  0.79744009663E+02 -0.99793372593E+02  0.26954195287E+03  0.30875722335E+03  0.79751704214E+02 0.  0.
          6    2    1    2  501    0 -0.37663849175E+02  0.11222568501E+03  0.10962924168E+01  0.20806360697E+03  0.17110257969E+03 0.  0.
         24    2    5    5    0    0 -0.85199342637E+00 -0.67822008486E+01 -0.18852696764E+02  0.81817649451E+02  0.79321998495E+02 0.  0.
          5    1    5    5  501    0 -0.36811855749E+02  0.11900788586E+03  0.19948989181E+02  0.12624595751E+03  0.47000000000E+01 0. -1.
        -13    1    6    6    0    0 -0.13132740547E+02 -0.28095846206E+02  0.19222486553E+02  0.36487661443E+02  0.00000000000E+00 0.  1.
         14    1    6    6    0    0  0.12280747120E+02  0.21313645357E+02 -0.38075183317E+02  0.45329988008E+02  0.00000000000E+00 0. -1.
         -5    1    3    3    0  503 -0.42080160487E+02 -0.12432312414E+02  0.21843217739E+02  0.49239399466E+02  0.47000000000E+01 0.  1.
         11    1    4    4    0    0  0.65276443752E+02 -0.10107291989E+03  0.17063459199E+03  0.20878915975E+03  0.00000000000E+00 0. -1.
        -12    1    4    4    0    0  0.14467565910E+02  0.12795473003E+01  0.98907360879E+02  0.99968063604E+02  0.00000000000E+00 0.  1.
</event>
<event>
12    1  0.9966151E-001  0.1748582E+03  0.7818608E-02  0.1172980E+00
         21   -1    0    0  501  502  0.00000000000E+00  0.00000000000E+00  0.17360459967E+04  0.17360459967E+04  0.00000000000E+00 0.  1.
         21   -1    0    0  502  503 -0.00000000000E+00 -0.00000000000E+00 -0.22691811379E+02  0.22691811379E+02  0.00000000000E+00 0.  1.
         -6    2    1    2    0  503 -0.77630335075E+01  0.26833833528E+02  0.43807637028E+03  0.47152807570E+03  0.17218449601E+03 0.  0.
        -24    2    3    3    0    0 -0.39424390685E+02  0.18875949874E+02  0.42738739636E+03  0.43685656558E+03  0.79202829855E+02 0.  0.
          6    2    1    2  501    0  0.77630335075E+01 -0.26833833528E+02  0.12752778151E+04  0.12872097324E+04  0.17261248589E+03 0.  0.
         24    2    5    5    0    0  0.25785283579E+01 -0.50313188504E+02  0.40420872742E+03  0.41579616546E+03  0.83448727623E+02 0.  0.
          5    1    5    5  501    0  0.51845051496E+01  0.23479354976E+02  0.87106908767E+03  0.87141356697E+03  0.47000000000E+01 0. -1.
        -11    1    6    6    0    0 -0.15123483171E+01  0.23047151969E+02  0.74415791090E+02  0.77917702577E+02  0.00000000000E+00 0.  1.
         12    1    6    6    0    0  0.40908766751E+01 -0.73360340473E+02  0.32979293633E+03  0.33787846288E+03  0.00000000000E+00 0. -1.
         -5    1    3    3    0  503  0.31661357177E+02  0.79578836535E+01  0.10688973916E+02  0.34671510119E+02  0.47000000000E+01 0.  1.
         11    1    4    4    0    0 -0.36285613123E+02 -0.76644237042E+01  0.77148877372E+02  0.85599873774E+02  0.00000000000E+00 0. -1.
        -12    1    4    4    0    0 -0.31387775617E+01  0.26540373578E+02  0.35023851899E+03  0.35125669181E+03  0.00000000000E+00 0.  1.
</event>
<event>
12    1  0.9966151E-001  0.1800441E+03  0.7818608E-02  0.1167808E+00
         21   -1    0    0  501  502  0.00000000000E+00  0.00000000000E+00  0.33031751829E+03  0.33031751829E+03  0.00000000000E+00 0.  1.
         21   -1    0    0  502  503 -0.00000000000E+00 -0.00000000000E+00 -0.10550175751E+03  0.10550175751E+03  0.00000000000E+00 0.  1.
         -6    2    1    2    0  503 -0.40470938158E+02  0.33633512107E+02  0.17034450184E+03  0.24771561669E+03  0.17197868319E+03 0.  0.
        -24    2    3    3    0    0 -0.38080864625E+02  0.49529364731E+02  0.19265514250E+03  0.21981856902E+03  0.85445240551E+02 0.  0.
          6    2    1    2  501    0  0.40470938158E+02 -0.33633512107E+02  0.54471258934E+02  0.18810365911E+03  0.17218234099E+03 0.  0.
         24    2    5    5    0    0  0.35883502244E+02 -0.39818147675E+02  0.10203024678E+03  0.13969661819E+03  0.78942151336E+02 0.  0.
          5    1    5    5  501    0  0.45874359141E+01  0.61846355679E+01 -0.47558987847E+02  0.48407040918E+02  0.47000000000E+01 0. -1.
        -11    1    6    6    0    0  0.37695902866E+02  0.14150503396E+02  0.54490278216E+02  0.67752551681E+02  0.00000000000E+00 0.  1.
         12    1    6    6    0    0 -0.18124006224E+01 -0.53968651071E+02  0.47539968565E+02  0.71944066507E+02  0.00000000000E+00 0. -1.
         -5    1    3    3    0  503 -0.23900735326E+01 -0.15895852625E+02 -0.22310640659E+02  0.27897047671E+02  0.47000000000E+01 0.  1.
         11    1    4    4    0    0 -0.26415721870E+02  0.69404574172E+02  0.17703094253E+03  0.19197588361E+03  0.00000000000E+00 0. -1.
        -12    1    4    4    0    0 -0.11665142755E+02 -0.19875209440E+02  0.15624199977E+02  0.27842685408E+02  0.00000000000E+00 0.  1.
</event>
<event>
12    1  0.9966151E-001  0.2280260E+03  0.7818608E-02  0.1128162E+00
         21   -1    0    0  503  502  0.00000000000E+00  0.00000000000E+00  0.72640213272E+02  0.72640213272E+02  0.00000000000E+00 0.  1.
         21   -1    0    0  501  503 -0.00000000000E+00 -0.00000000000E+00 -0.15887677500E+04  0.15887677500E+04  0.00000000000E+00 0.  1.
          6    2    1    2  501    0 -0.14340805936E+03 -0.41605206458E+02 -0.14100206905E+03  0.26750484893E+03  0.17140710613E+03 0.  0.
         24    2    3    3    0    0 -0.99620453126E+02 -0.51479654369E+02 -0.16609959315E+03  0.21586344212E+03  0.80209483885E+02 0.  0.
         -6    2    1    2    0  502  0.14340805936E+03  0.41605206458E+02 -0.13751254677E+04  0.13939031143E+04  0.17233390732E+03 0.  0.
        -24    2    5    5    0    0  0.10913573652E+03  0.52545428532E+02 -0.63728698941E+03  0.65517312944E+03  0.91899355972E+02 0.  0.
          5    1    3    3  501    0 -0.43787606237E+02  0.98744479112E+01  0.25097524099E+02  0.51641406811E+02  0.47000000000E+01 0. -1.
        -11    1    4    4    0    0 -0.31671843388E+02 -0.45596583502E+02 -0.28766768666E+02  0.62527442537E+02  0.00000000000E+00 0.  1.
         12    1    4    4    0    0 -0.67948609738E+02 -0.58830708671E+01 -0.13733282448E+03  0.15333599959E+03  0.00000000000E+00 0. -1.
         -5    1    5    5    0  502  0.34272322847E+02 -0.10940222074E+02 -0.73783847825E+03  0.73872998488E+03  0.47000000000E+01 0.  1.
         13    1    6    6    0    0  0.21375357373E+02  0.55511614795E+02 -0.34093664040E+03  0.34608703825E+03  0.00000000000E+00 0. -1.
        -14    1    6    6    0    0  0.87760379142E+02 -0.29661862630E+01 -0.29635034901E+03  0.30908609119E+03  0.00000000000E+00 0.  1.
</event>
<event>
12    1  0.9966151E-001  0.2397871E+03  0.7818608E-02  0.1120515E+00
         21   -1    0    0  501  502  0.00000000000E+00  0.00000000000E+00  0.60993404824E+03  0.60993404824E+03  0.00000000000E+00 0.  1.
         21   -1    0    0  502  503 -0.00000000000E+00 -0.00000000000E+00 -0.11591198078E+03  0.11591198078E+03  0.00000000000E+00 0.  1.
         -6    2    1    2    0  503  0.11608622848E+03  0.11830176930E+03  0.41009811624E+03  0.47505612230E+03  0.17328165896E+03 0.  0.
        -24    2    3    3    0    0  0.14338850164E+03  0.99780970601E+02  0.39384909756E+03  0.43798113461E+03  0.78701068130E+02 0.  0.
          6    2    1    2  501    0 -0.11608622848E+03 -0.11830176930E+03  0.83923951223E+02  0.25078990672E+03  0.16846669304E+03 0.  0.
         24    2    5    5    0    0 -0.10129644668E+03 -0.89186552669E+02  0.12326653521E+03  0.19944438695E+03  0.79801087065E+02 0.  0.
          5    1    5    5  501    0 -0.14789781797E+02 -0.29115216634E+02 -0.39342583991E+02  0.51345519769E+02  0.47000000000E+01 0. -1.
        -11    1    6    6    0    0 -0.10804640605E+03 -0.95996324499E+02  0.10444128052E+03  0.17831797794E+03  0.00000000000E+00 0.  1.
         12    1    6    6    0    0  0.67499593701E+01  0.68097718297E+01  0.18825254690E+02  0.21126409018E+02  0.00000000000E+00 0. -1.
         -5    1    3    3    0  503 -0.27302273164E+02  0.18520798702E+02  0.16249018673E+02  0.37074987692E+02  0.47000000000E+01 0.  1.
         11    1    4    4    0    0  0.84191687551E+02  0.11364466253E+02  0.18580955566E+03  0.20431001522E+03  0.00000000000E+00 0. -1.
        -12    1    4    4    0    0  0.59196814089E+02  0.88416504348E+02  0.20803954191E+03  0.23367111939E+03  0.00000000000E+00 0.  1.
</event>
<event>
12    1  0.9966151E-001  0.2057839E+03  0.7818608E-02  0.1145455E+00
         21   -1    0    0  501  502  0.00000000000E+00  0.00000000000E+00  0.30372026684E+03  0.30372026684E+03  0.00000000000E+00 0. -1.
         21   -1    0    0  502  503 -0.00000000000E+00 -0.00000000000E+00 -0.14974038576E+03  0.14974038576E+03  0.00000000000E+00 0. -1.
         -6    2    1    2    0  503  0.10605926687E+03 -0.10628323033E+02  0.13277381687E+02  0.20621178758E+03  0.17602693865E+03 0.  0.
        -24    2    3    3    0    0  0.29755450411E+02  0.41136443677E+02  0.49884785183E+02  0.10689383618E+03  0.79750903400E+02 0.  0.
          6    2    1    2  501    0 -0.10605926687E+03  0.10628323033E+02  0.14070249940E+03  0.24724886502E+03  0.17312792547E+03 0.  0.
         24    2    5    5    0    0 -0.32442779361E+02  0.32961844809E+02  0.38199829614E+01  0.90159442289E+02  0.77298872036E+02 0.  0.
          5    1    5    5  501    0 -0.73616487514E+02 -0.22333521776E+02  0.13688251643E+03  0.15708942273E+03  0.47000000000E+01 0. -1.
        -11    1    6    6    0    0 -0.37717588783E+02  0.54019579181E+02 -0.63450397889E+01  0.66189054748E+02  0.00000000000E+00 0.  1.
         12    1    6    6    0    0  0.52748094221E+01 -0.21057734372E+02  0.10165022750E+02  0.23970387540E+02  0.00000000000E+00 0. -1.
         -5    1    3    3    0  503  0.76303816464E+02 -0.51764766710E+02 -0.36607403496E+02  0.99317951400E+02  0.47000000000E+01 0.  1.
         13    1    4    4    0    0 -0.96607218703E+01 -0.64882949046E+01  0.43168709644E+02  0.44709786514E+02  0.00000000000E+00 0. -1.
        -14    1    4    4    0    0  0.39416172281E+02  0.47624738582E+02  0.67160755390E+01  0.62184049667E+02  0.00000000000E+00 0.  1.
</event>
<event>
12    1  0.9966151E-001  0.2068893E+03  0.7818608E-02  0.1144527E+00
         21   -1    0    0  503  502  0.00000000000E+00  0.00000000000E+00  0.44968010179E+02  0.44968010179E+02  0.00000000000E+00 0.  1.
         21   -1    0    0  501  503 -0.00000000000E+00 -0.00000000000E+00 -0.96271170162E+03  0.96271170162E+03  0.00000000000E+00 0.  1.
          6    2    1    2  501    0  0.11146351902E+03 -0.97803757275E+01 -0.53172764321E+03  0.56971673085E+03  0.17123987574E+03 0.  0.
         24    2    3    3    0    0  0.80292083740E+02  0.26419420362E+02 -0.17746901072E+03  0.21222078359E+03  0.79985040727E+02 0.  0.
         -6    2    1    2    0  502 -0.11146351902E+03  0.97803757275E+01 -0.38601604823E+03  0.43796298094E+03  0.17402129572E+03 0.  0.
        -24    2    5    5    0    0  0.46152013024E+01 -0.23042669554E+01 -0.90760536579E+02  0.12044413889E+03  0.79010795863E+02 0.  0.
          5    1    3    3  501    0  0.31171435278E+02 -0.36199796090E+02 -0.35425863249E+03  0.35749594726E+03  0.47000000000E+01 0. -1.
        -13    1    4    4    0    0 -0.58741345483E+01  0.46488796658E+00 -0.77462081397E+02  0.77685877943E+02  0.00000000000E+00 0.  1.
         14    1    4    4    0    0  0.86166218289E+02  0.25954532396E+02 -0.10000692932E+03  0.13453490565E+03  0.00000000000E+00 0. -1.
         -5    1    5    5    0  502 -0.11607872032E+03  0.12084642683E+02 -0.29525551165E+03  0.31751884206E+03  0.47000000000E+01 0.  1.
         11    1    6    6    0    0 -0.29196933657E+02  0.22816806838E+02 -0.42131337150E+02  0.56108084795E+02  0.00000000000E+00 0. -1.
        -12    1    6    6    0    0  0.33812134959E+02 -0.25121073794E+02 -0.48629199429E+02  0.64336054092E+02  0.00000000000E+00 0.  1.
</event>
<event>
12    1  0.9966151E-001  0.2694044E+03  0.7818608E-02  0.1102077E+00
         21   -1    0    0  503  502  0.00000000000E+00  0.00000000000E+00  0.28388260122E+03  0.28388260122E+03  0.00000000000E+00 0.  1.
         21   -1    0    0  501  503 -0.00000000000E+00 -0.00000000000E+00 -0.27431554962E+03  0.27431554962E+03  0.00000000000E+00 0.  1.
          6    2    1    2  501    0 -0.66664286543E+02  0.19882390887E+03  0.83200492693E+02  0.28195928765E+03  0.16912611883E+03 0.  0.
         24    2    3    3    0    0 -0.88139760805E+02  0.17910915885E+03  0.11061868575E+03  0.24166394458E+03  0.79474903300E+02 0.  0.
         -6    2    1    2    0  502  0.66664286543E+02 -0.19882390887E+03 -0.73633441091E+02  0.27623886319E+03  0.16404557919E+03 0.  0.
        -24    2    5    5    0    0  0.18533883442E+02 -0.13869181582E+03  0.12870077065E+02  0.16031926618E+03  0.77186162071E+02 0.  0.
          5    1    3    3  501    0  0.21475474262E+02  0.19714750017E+02 -0.27418193054E+02  0.40295343073E+02  0.47000000000E+01 0. -1.
        -13    1    4    4    0    0 -0.54409013083E+02  0.30346401337E+02  0.30520544301E+02  0.69373974970E+02  0.00000000000E+00 0.  1.
         14    1    4    4    0    0 -0.33730747722E+02  0.14876275751E+03  0.80098141446E+02  0.17228996961E+03  0.00000000000E+00 0. -1.
         -5    1    5    5    0  502  0.48130403101E+02 -0.60132093046E+02 -0.86503518156E+02  0.11591959701E+03  0.47000000000E+01 0.  1.
         11    1    6    6    0    0 -0.91177248333E+01 -0.11373440557E+03 -0.13190174352E+02  0.11485916862E+03  0.00000000000E+00 0. -1.
        -12    1    6    6    0    0  0.27651608275E+02 -0.24957410248E+02  0.26060251417E+02  0.45460097563E+02  0.00000000000E+00 0.  1.
</event>
<event>
12    1  0.9966151E-001  0.1722500E+03  0.7818608E-02  0.1175792E+00
         21   -1    0    0  503  502  0.00000000000E+00  0.00000000000E+00  0.13778417481E+03  0.13778417481E+03  0.00000000000E+00 0. -1.
         21   -1    0    0  501  503 -0.00000000000E+00 -0.00000000000E+00 -0.22624403998E+03  0.22624403998E+03  0.00000000000E+00 0. -1.
          6    2    1    2  501    0 -0.21590154730E+01 -0.88296614622E+01 -0.86658871267E+02  0.19282067081E+03  0.17200996150E+03 0.  0.
         24    2    3    3    0    0  0.34000829841E+02  0.80721278166E+01 -0.11590459589E+03  0.14311546683E+03  0.76334434050E+02 0.  0.
         -6    2    1    2    0  502  0.21590154730E+01  0.88296614622E+01 -0.18009938951E+01  0.17120754398E+03  0.17095658883E+03 0.  0.
        -24    2    5    5    0    0  0.39917249611E+02  0.56280636375E+02 -0.21184071589E+02  0.10737124579E+03  0.79491651673E+02 0.  0.
          5    1    3    3  501    0 -0.36159845314E+02 -0.16901789279E+02  0.29245724622E+02  0.49705203979E+02  0.47000000000E+01 0. -1.
        -11    1    4    4    0    0 -0.13295886114E+02  0.28780576660E+02 -0.52718973072E+02  0.61517414625E+02  0.00000000000E+00 0.  1.
         12    1    4    4    0    0  0.47296715955E+02 -0.20708448843E+02 -0.63185622816E+02  0.81598052209E+02  0.00000000000E+00 0. -1.
         -5    1    5    5    0  502 -0.37758234138E+02 -0.47450974913E+02  0.19383077694E+02  0.63836298188E+02  0.47000000000E+01 0.  1.
         11    1    6    6    0    0  0.61660953775E+02  0.23667747544E+02 -0.12368860222E+02  0.67195417979E+02  0.00000000000E+00 0. -1.
        -12    1    6    6    0    0 -0.21743704163E+02  0.32612888831E+02 -0.88152113675E+01  0.40175827809E+02  0.00000000000E+00 0.  1.
</event>
<event>
12    1  0.9966151E-001  0.1830386E+03  0.7818608E-02  0.1164933E+00
         21   -1    0    0  501  502  0.00000000000E+00  0.00000000000E+00  0.21119866876E+02  0.21119866876E+02  0.00000000000E+00 0.  1.
         21   -1    0    0  502  503 -0.00000000000E+00 -0.00000000000E+00 -0.17700546625E+04  0.17700546625E+04  0.00000000000E+00 0.  1.
         -6    2    1    2    0  503  0.59413984663E+02 -0.10236574645E+02 -0.58516979964E+03  0.61312871582E+03  0.17282453159E+03 0.  0.
        -24    2    3    3    0    0  0.37593013917E+02 -0.72279568915E+02 -0.33682530633E+03  0.35618015042E+03  0.82313071830E+02 0.  0.
          6    2    1    2  501    0 -0.59413984663E+02  0.10236574645E+02 -0.11637649959E+04  0.11780458135E+04  0.17265040956E+03 0.  0.
         24    2    5    5    0    0 -0.88838814422E+02  0.54234485933E+02 -0.84927748097E+03  0.85910048297E+03  0.77121240505E+02 0.  0.
          5    1    5    5  501    0  0.29424829759E+02 -0.43997911288E+02 -0.31448751497E+03  0.31894533055E+03  0.47000000000E+01 0. -1.
        -13    1    6    6    0    0 -0.33609356284E+02  0.57764193077E+02 -0.60241695613E+03  0.60611259669E+03  0.00000000000E+00 0.  1.
         14    1    6    6    0    0 -0.55229458139E+02 -0.35297071436E+01 -0.24686052484E+03  0.25298788628E+03  0.00000000000E+00 0. -1.
         -5    1    3    3    0  503  0.21820970747E+02  0.62042994270E+02 -0.24834449331E+03  0.25694856539E+03  0.47000000000E+01 0.  1.
         11    1    4    4    0    0 -0.11560239342E+02 -0.60223391143E+02 -0.13794500301E+03  0.15096131898E+03  0.00000000000E+00 0. -1.
        -12    1    4    4    0    0  0.49153253259E+02 -0.12056177772E+02 -0.19888030332E+03  0.20521883144E+03  0.00000000000E+00 0.  1.
</event>
<event>
12    1  0.1257728E+000  0.1813161E+03  0.7818608E-02  0.1167025E+00
         21   -1    0    0  501  502  0.00000000000E+00  0.00000000000E+00  0.95105019907E+03  0.95105019907E+03  0.00000000000E+00 0.  1.
         21   -1    0    0  502  503 -0.00000000000E+00 -0.00000000000E+00 -0.16316761772E+03  0.16316761772E+03  0.00000000000E+00 0.  1.
         -6    2    1    2    0  503 -0.42809673813E+01  0.49828744308E+02  0.88973538754E+03  0.90802235717E+03  0.17428227343E+03 0.  0.
        -24    2    3    3    0    0  0.70613300070E+01  0.38952488388E+02  0.88695057476E+03  0.89138547540E+03  0.79495817118E+02 0.  0.
          6    2    1    2  501    0  0.42809673813E+01 -0.49828744308E+02 -0.10185280618E+03  0.20619545962E+03  0.17216661407E+03 0.  0.
         24    2    5    5    0    0  0.57895964632E+01 -0.16806462373E+02  0.15476821410E+02  0.84207433250E+02  0.80841717009E+02 0.  0.
          5    1    5    5  501    0 -0.15086290820E+01 -0.33022281935E+02 -0.11732962760E+03  0.12198802637E+03  0.47000000000E+01 0. -1.
        -13    1    6    6    0    0  0.35842020444E+02  0.13221294864E+02  0.16730882273E+02  0.41705820805E+02  0.00000000000E+00 0.  1.
         14    1    6    6    0    0 -0.30052423981E+02 -0.30027757237E+02 -0.12540608627E+01  0.42501612445E+02  0.00000000000E+00 0. -1.
         -5    1    3    3    0  503 -0.11342297388E+02  0.10876255920E+02  0.27848127785E+01  0.16636881772E+02  0.47000000000E+01 0.  1.
         11    1    4    4    0    0  0.23977487380E+02  0.53959687714E+02  0.45102228486E+03  0.45487104683E+03  0.00000000000E+00 0. -1.
        -12    1    4    4    0    0 -0.16916157373E+02 -0.15007199327E+02  0.43592828990E+03  0.43651442857E+03  0.00000000000E+00 0.  1.
</event>
<event>
12    1  0.9966151E-001  0.1841582E+03  0.7818608E-02  0.1163843E+00
         21   -1    0    0  503  502  0.00000000000E+00  0.00000000000E+00  0.10094673904E+04  0.10094673904E+04  0.00000000000E+00 0. -1.
         21   -1    0    0  501  503 -0.00000000000E+00 -0.00000000000E+00 -0.43885069551E+02  0.43885069551E+02  0.00000000000E+00 0. -1.
          6    2    1    2  501    0  0.14204120948E+02 -0.65581055664E+02  0.73783103852E+03  0.76046189193E+03  0.17147890764E+03 0.  0.
         24    2    3    3    0    0 -0.46534493398E+02 -0.20250562433E+02  0.25754591002E+03  0.27421100243E+03  0.79285772550E+02 0.  0.
         -6    2    1    2    0  502 -0.14204120948E+02  0.65581055664E+02  0.22775128234E+03  0.29289056803E+03  0.17149812336E+03 0.  0.
        -24    2    5    5    0    0 -0.40346615376E+02  0.95222559540E+02  0.10789607322E+03  0.16659959479E+03  0.73611664506E+02 0.  0.
          5    1    3    3  501    0  0.60738614346E+02 -0.45330493230E+02  0.48028512850E+03  0.48625088950E+03  0.47000000000E+01 0. -1.
        -11    1    4    4    0    0  0.14885516707E+01  0.26568879242E+02  0.85884861077E+02  0.89912905038E+02  0.00000000000E+00 0.  1.
         12    1    4    4    0    0 -0.48023045069E+02 -0.46819441675E+02  0.17166104894E+03  0.18429809739E+03  0.00000000000E+00 0. -1.
         -5    1    5    5    0  502  0.26142494429E+02 -0.29641503876E+02  0.11985520912E+03  0.12629097323E+03  0.47000000000E+01 0.  1.
         13    1    6    6    0    0 -0.44104735489E+02  0.88490437970E+02  0.11796324923E+03  0.15391917838E+03  0.00000000000E+00 0. -1.
        -14    1    6    6    0    0  0.37581201129E+01  0.67321215701E+01 -0.10067176009E+02  0.12680416413E+02  0.00000000000E+00 0.  1.
</event>
<event>
12    1  0.9966151E-001  0.3334589E+03  0.7818608E-02  0.1069787E+00
         21   -1    0    0  501  502  0.00000000000E+00  0.00000000000E+00  0.20604502595E+03  0.20604502595E+03  0.00000000000E+00 0.  1.
         21   -1    0    0  502  503 -0.00000000000E+00 -0.00000000000E+00 -0.53829313045E+03  0.53829313045E+03  0.00000000000E+00 0.  1.
         -6    2    1    2    0  503  0.22413902083E+02  0.27909903341E+03 -0.14932111038E+03  0.36536505706E+03  0.18109714924E+03 0.  0.
        -24    2    3    3    0    0 -0.32548156563E+02  0.65577212640E+02 -0.22111205299E+02  0.11077352974E+03  0.80138106903E+02 0.  0.
          6    2    1    2  501    0 -0.22413902083E+02 -0.27909903341E+03 -0.18292699412E+03  0.37897309934E+03  0.17821243332E+03 0.  0.
         24    2    5    5    0    0  0.37600086771E+02 -0.15075878486E+03 -0.43040119270E+02  0.17981656289E+03  0.79621395895E+02 0.  0.
          5    1    5    5  501    0 -0.60013988854E+02 -0.12834024855E+03 -0.13988687485E+03  0.19915653645E+03  0.47000000000E+01 0. -1.
        -13    1    6    6    0    0 -0.71559678995E+01  0.72030967944E+01 -0.48551331927E+01  0.11254545674E+02  0.00000000000E+00 0.  1.
         14    1    6    6    0    0  0.44756054671E+02 -0.15796188165E+03 -0.38184986077E+02  0.16856201721E+03  0.00000000000E+00 0. -1.
         -5    1    3    3    0  503  0.54962058646E+02  0.21352182077E+03 -0.12720990508E+03  0.25459152732E+03  0.47000000000E+01 0.  1.
         13    1    4    4    0    0 -0.24513507450E+02  0.71770953938E+02 -0.43263773595E+02  0.87314007939E+02  0.00000000000E+00 0. -1.
        -14    1    4    4    0    0 -0.80346491134E+01 -0.61937412979E+01  0.21152568296E+02  0.23459521801E+02  0.00000000000E+00 0.  1.
</event>
<event>
12    1  0.9966151E-001  0.1882911E+03  0.7818608E-02  0.1160181E+00
         21   -1    0    0  501  502  0.00000000000E+00  0.00000000000E+00  0.76058969004E+03  0.76058969004E+03  0.00000000000E+00 0.  1.
         21   -1    0    0  502  503 -0.00000000000E+00 -0.00000000000E+00 -0.46945846715E+02  0.46945846715E+02  0.00000000000E+00 0.  1.
         -6    2    1    2    0  503  0.74760362217E+02  0.10136066469E+02  0.39842713913E+03  0.44036375232E+03  0.17170963153E+03 0.  0.
        -24    2    3    3    0    0  0.11639927791E+03 -0.62795498720E+01  0.32237192882E+03  0.35199092406E+03  0.79910734458E+02 0.  0.
          6    2    1    2  501    0 -0.74760362217E+02 -0.10136066469E+02  0.31521670420E+03  0.36717178444E+03  0.17251578791E+03 0.  0.
         24    2    5    5    0    0 -0.50757644279E+02 -0.53560245018E+02  0.10564900796E+03  0.15175939144E+03  0.80150868413E+02 0.  0.
          5    1    5    5  501    0 -0.24002717938E+02  0.43424178549E+02  0.20956769623E+03  0.21541239300E+03  0.47000000000E+01 0. -1.
        -13    1    6    6    0    0 -0.16128628798E+02 -0.72832848095E+01 -0.11515674099E+02  0.21113731420E+02  0.00000000000E+00 0.  1.
         14    1    6    6    0    0 -0.34629015481E+02 -0.46276960209E+02  0.11716468206E+03  0.13064566002E+03  0.00000000000E+00 0. -1.
         -5    1    3    3    0  503 -0.41638915696E+02  0.16415616341E+02  0.76055210306E+02  0.88372828261E+02  0.47000000000E+01 0.  1.
         11    1    4    4    0    0  0.26764120778E+02 -0.22040743193E+02  0.17786600013E+03  0.18121375920E+03  0.00000000000E+00 0. -1.
        -12    1    4    4    0    0  0.89635157136E+02  0.15761193321E+02  0.14450592869E+03  0.17077716486E+03  0.00000000000E+00 0.  1.
</event>
<event>
12    1  0.9966151E-001  0.1971307E+03  0.7818608E-02  0.1152560E+00
         21   -1    0    0  503  502  0.00000000000E+00  0.00000000000E+00  0.87713658312E+03  0.87713658312E+03  0.00000000000E+00 0.  1.
         21   -1    0    0  501  503 -0.00000000000E+00 -0.00000000000E+00 -0.15038356951E+03  0.15038356951E+03  0.00000000000E+00 0.  1.
          6    2    1    2  501    0 -0.95506117202E+02  0.42756306752E+01  0.79519502726E+03  0.81884616927E+03  0.17039430187E+03 0.  0.
         24    2    3    3    0    0 -0.92216508798E+02 -0.18285907345E+02  0.78252268999E+03  0.79234102537E+03  0.81389687498E+02 0.  0.
         -6    2    1    2    0  502  0.95506117202E+02 -0.42756306752E+01 -0.68442013648E+02  0.20867398336E+03  0.17239728147E+03 0.  0.
        -24    2    5    5    0    0  0.10005179856E+03 -0.58248749435E+02 -0.38279729957E+02  0.14649992024E+03  0.81201044935E+02 0.  0.
          5    1    3    3  501    0 -0.32896084040E+01  0.22561538020E+02  0.12672337267E+02  0.26505143899E+02  0.47000000000E+01 0. -1.
        -11    1    4    4    0    0 -0.28261748146E+02 -0.17925084124E+02  0.55478068253E+03  0.55578920532E+03  0.00000000000E+00 0.  1.
         12    1    4    4    0    0 -0.63954760652E+02 -0.36082322076E+00  0.22774200746E+03  0.23655182005E+03  0.00000000000E+00 0. -1.
         -5    1    5    5    0  502 -0.45456813570E+01  0.53973118760E+02 -0.30162283691E+02  0.62174063122E+02  0.47000000000E+01 0.  1.
         11    1    6    6    0    0  0.51344840843E+02 -0.62113550332E+02  0.56628791750E+01  0.80786471742E+02  0.00000000000E+00 0. -1.
        -12    1    6    6    0    0  0.48706957716E+02  0.38648008963E+01 -0.43942609132E+02  0.65713448496E+02  0.00000000000E+00 0.  1.
</event>
<event>
12    1  0.9966151E-001  0.2151906E+03  0.7818608E-02  0.1137599E+00
         21   -1    0    0  503  502  0.00000000000E+00  0.00000000000E+00  0.13514991872E+03  0.13514991872E+03  0.00000000000E+00 0. -1.
         21   -1    0    0  501  503 -0.00000000000E+00 -0.00000000000E+00 -0.86333105927E+03  0.86333105927E+03  0.00000000000E+00 0. -1.
          6    2    1    2  501    0  0.81054293140E+02  0.99843283880E+02 -0.75218675450E+03  0.78236301911E+03  0.17253550436E+03 0.  0.
         24    2    3    3    0    0  0.16647682515E+02  0.12110350146E+03 -0.53401507926E+03  0.55384348336E+03  0.81408204684E+02 0.  0.
         -6    2    1    2    0  502 -0.81054293140E+02 -0.99843283880E+02  0.24005613953E+02  0.21611795887E+03  0.17202390204E+03 0.  0.
        -24    2    5    5    0    0 -0.48961552143E+02 -0.10761725988E+03 -0.37981116827E+02  0.14572745156E+03  0.76257568080E+02 0.  0.
          5    1    3    3  501    0  0.64406610625E+02 -0.21260217577E+02 -0.21817167524E+03  0.22851953575E+03  0.47000000000E+01 0. -1.
        -13    1    4    4    0    0  0.26170286833E+02  0.63925252051E+02 -0.42303415548E+03  0.42863646423E+03  0.00000000000E+00 0.  1.
         14    1    4    4    0    0 -0.95226043177E+01  0.57178249406E+02 -0.11098092378E+03  0.12520701914E+03  0.00000000000E+00 0. -1.
         -5    1    5    5    0  502 -0.32092740997E+02  0.77739760014E+01  0.61986730780E+02  0.70390507317E+02  0.47000000000E+01 0.  1.
         11    1    6    6    0    0 -0.60419093942E+02 -0.10609917733E+03 -0.47242008469E+02  0.13091718644E+03  0.00000000000E+00 0. -1.
        -12    1    6    6    0    0  0.11457541799E+02 -0.15180825541E+01  0.92608916426E+01  0.14810265114E+02  0.00000000000E+00 0.  1.
</event>
<event>
12    1  0.9966151E-001  0.2813160E+03  0.7818608E-02  0.1095545E+00
         21   -1    0    0  501  502  0.00000000000E+00  0.00000000000E+00  0.13506370167E+03  0.13506370167E+03  0.00000000000E+00 0. -1.
         21   -1    0    0  502  503 -0.00000000000E+00 -0.00000000000E+00 -0.10189256411E+04  0.10189256411E+04  0.00000000000E+00 0. -1.
         -6    2    1    2    0  503  0.13874853941E+03  0.16718947160E+03 -0.60179452415E+02  0.28359200821E+03  0.17204471520E+03 0.  0.
        -24    2    3    3    0    0  0.11519204476E+03  0.96587634332E+02 -0.10130803776E+03  0.19842641423E+03  0.80692905947E+02 0.  0.
          6    2    1    2  501    0 -0.13874853941E+03 -0.16718947160E+03 -0.82368248704E+03  0.87039733458E+03  0.17870423609E+03 0.  0.
         24    2    5    5    0    0 -0.12219221580E+03 -0.12226309638E+03 -0.39160828210E+03  0.43565292736E+03  0.80976689045E+02 0.  0.
          5    1    5    5  501    0 -0.16556323612E+02 -0.44926375221E+02 -0.43207420494E+03  0.43474440722E+03  0.47000000000E+01 0. -1.
        -11    1    6    6    0    0 -0.91137760133E+02 -0.37650934134E+02 -0.17188239058E+03  0.19815963351E+03  0.00000000000E+00 0.  1.
         12    1    6    6    0    0 -0.31054455665E+02 -0.84612162241E+02 -0.21972589152E+03  0.23749329384E+03  0.00000000000E+00 0. -1.
         -5    1    3    3    0  503  0.23556494650E+02  0.70601837264E+02  0.41128585340E+02  0.85165593976E+02  0.47000000000E+01 0.  1.
         13    1    4    4    0    0  0.28128652424E+02  0.74319928313E+02 -0.59719793022E+02  0.99403855610E+02  0.00000000000E+00 0. -1.
        -14    1    4    4    0    0  0.87063392336E+02  0.22267706019E+02 -0.41588244733E+02  0.99022558624E+02  0.00000000000E+00 0.  1.
</event>
<event>
12    1  0.9966151E-001  0.2161664E+03  0.7818608E-02  0.1137399E+00
         21   -1    0    0  503  502  0.00000000000E+00  0.00000000000E+00  0.60169780635E+03  0.60169780635E+03  0.00000000000E+00 0.  1.
         21   -1    0    0  501  503 -0.00000000000E+00 -0.00000000000E+00 -0.83431581221E+02  0.83431581221E+02  0.00000000000E+00 0.  1.
          6    2    1    2  501    0  0.11381493449E+03 -0.62392345675E+02  0.35609781942E+03  0.41489520232E+03  0.16877715426E+03 0.  0.
         24    2    3    3    0    0  0.10492978010E+03  0.13657884565E+02  0.26213352910E+03  0.29359408384E+03  0.79288728233E+02 0.  0.
         -6    2    1    2    0  502 -0.11381493449E+03  0.62392345675E+02  0.16216840571E+03  0.27023418525E+03  0.17286202289E+03 0.  0.
        -24    2    5    5    0    0  0.70724318915E+01  0.50395458760E+02  0.82893345662E+02  0.12509871133E+03  0.78668032042E+02 0.  0.
          5    1    3    3  501    0  0.88851543828E+01 -0.76050230240E+02  0.93964290319E+02  0.12130111847E+03  0.47000000000E+01 0. -1.
        -11    1    4    4    0    0  0.11751017256E+03  0.12718807601E+02  0.22171794984E+03  0.25125536413E+03  0.00000000000E+00 0.  1.
         12    1    4    4    0    0 -0.12580392459E+02  0.93907696387E+00  0.40415579262E+02  0.42338719714E+02  0.00000000000E+00 0. -1.
         -5    1    5    5    0  502 -0.12088736638E+03  0.11996886915E+02  0.79275060045E+02  0.14513547392E+03  0.47000000000E+01 0.  1.
         13    1    6    6    0    0 -0.10412432963E+02  0.36019789360E+01 -0.12959616093E+02  0.17010134090E+02  0.00000000000E+00 0. -1.
        -14    1    6    6    0    0  0.17484864855E+02  0.46793479824E+02  0.95852961755E+02  0.10808857724E+03  0.00000000000E+00 0.  1.
</event>
<event>
12    1  0.9966151E-001  0.1921334E+03  0.7818608E-02  0.1156876E+00
         21   -1    0    0  503  502  0.00000000000E+00  0.00000000000E+00  0.56488485936E+02  0.56488485936E+02  0.00000000000E+00 0. -1.
         21   -1    0    0  501  503 -0.00000000000E+00 -0.00000000000E+00 -0.66397323695E+03  0.66397323695E+03  0.00000000000E+00 0. -1.
          6    2    1    2  501    0  0.54533035583E+01 -0.84801495719E+02 -0.24771012951E+03  0.31259775240E+03  0.17069274836E+03 0.  0.
         24    2    3    3    0    0 -0.50664167489E+02 -0.36838126212E+02 -0.84668234824E+02  0.13356031275E+03  0.82132464612E+02 0.  0.
         -6    2    1    2    0  502 -0.54533035583E+01  0.84801495719E+02 -0.35977462150E+03  0.40786397049E+03  0.17232007414E+03 0.  0.
        -24    2    5    5    0    0  0.39237218582E+02  0.25944450862E+02 -0.95057388416E+02  0.13298454603E+03  0.80226607421E+02 0.  0.
          5    1    3    3  501    0  0.56117471048E+02 -0.47963369507E+02 -0.16304189469E+03  0.17903743965E+03  0.47000000000E+01 0. -1.
        -13    1    4    4    0    0 -0.27171996116E+02 -0.36143122820E+02  0.48798838869E+00  0.45220358610E+02  0.00000000000E+00 0.  1.
         14    1    4    4    0    0 -0.23492171373E+02 -0.69500339244E+00 -0.85156223213E+02  0.88339954140E+02  0.00000000000E+00 0. -1.
         -5    1    5    5    0  502 -0.44690522141E+02  0.58857044857E+02 -0.26471723309E+03  0.27487942446E+03  0.47000000000E+01 0.  1.
         13    1    6    6    0    0  0.20004348104E+02 -0.27775679240E+02 -0.48383842113E+02  0.59267684938E+02  0.00000000000E+00 0. -1.
        -14    1    6    6    0    0  0.19232870479E+02  0.53720130102E+02 -0.46673546303E+02  0.73716861094E+02  0.00000000000E+00 0.  1.
</event>
<event>
12    1  0.9966151E-001  0.3723874E+03  0.7818608E-02  0.1053867E+00
         21   -1    0    0  503  502  0.00000000000E+00  0.00000000000E+00  0.16864917561E+04  0.16864917561E+04  0.00000000000E+00 0. -1.
         21   -1    0    0  501  503 -0.00000000000E+00 -0.00000000000E+00 -0.11739470909E+03  0.11739470909E+03  0.00000000000E+00 0.  1.
          6    2    1    2  501    0  0.11325600846E+03  0.30934608070E+03  0.12789283371E+04  0.13317950823E+04  0.17175135670E+03 0.  0.
         24    2    3    3    0    0  0.94392069339E+02  0.32329883988E+03  0.12194378034E+04  0.12676722213E+04  0.80822656595E+02 0.  0.
         -6    2    1    2    0  502 -0.11325600846E+03 -0.30934608070E+03  0.29016870988E+03  0.47209138292E+03  0.17363891423E+03 0.  0.
        -24    2    5    5    0    0  0.13606604855E+02 -0.62213869818E+02  0.55216246775E+02  0.10823261604E+03  0.67895213192E+02 0.  0.
          5    1    3    3  501    0  0.18863939117E+02 -0.13952759174E+02  0.59490533787E+02  0.64122860961E+02  0.47000000000E+01 0. -1.
        -13    1    4    4    0    0  0.16632347376E+01  0.14581544894E+03  0.48854510938E+03  0.50984432467E+03  0.00000000000E+00 0.  1.
         14    1    4    4    0    0  0.92728834601E+02  0.17748339094E+03  0.73089269398E+03  0.75782789664E+03  0.00000000000E+00 0. -1.
         -5    1    5    5    0  502 -0.12686261331E+03 -0.24713221089E+03  0.23495246310E+03  0.36385876688E+03  0.47000000000E+01 0.  1.
         13    1    6    6    0    0  0.93962388630E+01 -0.56122408934E+02  0.70886681649E+02  0.90900691552E+02  0.00000000000E+00 0. -1.
        -14    1    6    6    0    0  0.42103659921E+01 -0.60914608839E+01 -0.15670434874E+02  0.17331924493E+02  0.00000000000E+00 0.  1.
</event>
<event>
12    1  0.9966151E-001  0.2035149E+03  0.7818608E-02  0.1146906E+00
         21   -1    0    0  503  502  0.00000000000E+00  0.00000000000E+00  0.75865425157E+03  0.75865425157E+03  0.00000000000E+00 0.  1.
         21   -1    0    0  501  503 -0.00000000000E+00 -0.00000000000E+00 -0.64257115645E+02  0.64257115645E+02  0.00000000000E+00 0.  1.
          6    2    1    2  501    0  0.53310655234E+02  0.93677833946E+02  0.50746217613E+03  0.54657279029E+03  0.17206508173E+03 0.  0.
         24    2    3    3    0    0  0.69718719458E+02  0.29228257612E+02  0.17829957463E+03  0.21072597896E+03  0.83064487037E+02 0.  0.
         -6    2    1    2    0  502 -0.53310655234E+02 -0.93677833946E+02  0.18693495979E+03  0.27633857692E+03  0.17262898762E+03 0.  0.
        -24    2    5    5    0    0 -0.91267859306E+02 -0.79250584889E+02  0.87858622247E+02  0.16916066167E+03  0.79282498729E+02 0.  0.
          5    1    3    3  501    0 -0.16408064224E+02  0.64449576334E+02  0.32916260150E+03  0.33584681134E+03  0.47000000000E+01 0. -1.
        -13    1    4    4    0    0  0.15836965421E+02 -0.23378365021E+02  0.17642152460E+02  0.33295689934E+02  0.00000000000E+00 0.  1.
         14    1    4    4    0    0  0.53881754037E+02  0.52606622633E+02  0.16065742217E+03  0.17743028902E+03  0.00000000000E+00 0. -1.
         -5    1    5    5    0  502  0.37957204073E+02 -0.14427249057E+02  0.99076337548E+02  0.10717791525E+03  0.47000000000E+01 0.  1.
         13    1    6    6    0    0 -0.26828827388E+02 -0.52553612757E+02  0.26786834515E+01  0.59066433258E+02  0.00000000000E+00 0. -1.
        -14    1    6    6    0    0 -0.64439031919E+02 -0.26696972132E+02  0.85179938795E+02  0.11009422841E+03  0.00000000000E+00 0.  1.
</event>
<event>
12    1  0.9966151E-001  0.3020959E+03  0.7818608E-02  0.1084555E+00
         21   -1    0    0  503  502  0.00000000000E+00  0.00000000000E+00  0.72169525033E+02  0.72169525033E+02  0.00000000000E+00 0.  1.
         21   -1    0    0  501  503 -0.00000000000E+00 -0.00000000000E+00 -0.12569769863E+04  0.12569769863E+04  0.00000000000E+00 0.  1.
          6    2    1    2  501    0 -0.19359595431E+03 -0.15550119382E+03 -0.55588680539E+03  0.63267058571E+03  0.17205207002E+03 0.  0.
         24    2    3    3    0    0 -0.14343537143E+03 -0.15770917663E+03 -0.52889133284E+03  0.57547089339E+03  0.77426203651E+02 0.  0.
         -6    2    1    2    0  502  0.19359595431E+03  0.15550119382E+03 -0.62892065583E+03  0.69647592558E+03  0.16696559161E+03 0.  0.
        -24    2    5    5    0    0  0.19847271017E+03  0.16316142983E+03 -0.63110615520E+03  0.68601990479E+03  0.79468621256E+02 0.  0.
          5    1    3    3  501    0 -0.50160582877E+02  0.22079828120E+01 -0.26995472557E+02  0.57199692318E+02  0.47000000000E+01 0. -1.
        -11    1    4    4    0    0 -0.17229193875E+02  0.61187000855E-01 -0.98771986726E+02  0.10026342417E+03  0.00000000000E+00 0.  1.
         12    1    4    4    0    0 -0.12620617756E+03 -0.15777036364E+03 -0.43011934611E+03  0.47520746921E+03  0.00000000000E+00 0. -1.
         -5    1    5    5    0  502 -0.48767558609E+01 -0.76602360030E+01  0.21854993743E+01  0.10456020795E+02  0.47000000000E+01 0.  1.
         11    1    6    6    0    0  0.20533981006E+03  0.15876718140E+03 -0.59756974046E+03  0.65150675376E+03  0.00000000000E+00 0. -1.
        -12    1    6    6    0    0 -0.68670998822E+01  0.43942484305E+01 -0.33536414745E+02  0.34513151030E+02  0.00000000000E+00 0.  1.
</event>
<event>
12    1  0.9966151E-001  0.1797717E+03  0.7818608E-02  0.1169863E+00
         21   -1    0    0  501  502  0.00000000000E+00  0.00000000000E+00  0.37666770134E+03  0.37666770134E+03  0.00000000000E+00 0.  1.
         21   -1    0    0  502  503 -0.00000000000E+00 -0.00000000000E+00 -0.84979774602E+02  0.84979774602E+02  0.00000000000E+00 0.  1.
         -6    2    1    2    0  503  0.20608614185E+02 -0.84871291033E+01  0.10780612333E+03  0.20961877870E+03  0.17838476902E+03 0.  0.
        -24    2    3    3    0    0  0.35602268944E+02  0.51058276186E+02  0.10717897514E+03  0.14803186216E+03  0.80942142184E+02 0.  0.
          6    2    1    2  501    0 -0.20608614185E+02  0.84871291033E+01  0.18388180341E+03  0.25202869724E+03  0.17090699303E+03 0.  0.
         24    2    5    5    0    0  0.21582886826E+02  0.29199461817E+02  0.30654896147E+02  0.91686255590E+02  0.78410568370E+02 0.  0.
          5    1    5    5  501    0 -0.42191501011E+02 -0.20712332714E+02  0.15322690726E+03  0.16034244165E+03  0.47000000000E+01 0. -1.
        -11    1    6    6    0    0  0.78246551419E+01  0.19740429847E+02 -0.25452570042E+02  0.33147294315E+02  0.00000000000E+00 0.  1.
         12    1    6    6    0    0  0.13758231684E+02  0.94590319697E+01  0.56107466190E+02  0.58538961275E+02  0.00000000000E+00 0. -1.
         -5    1    3    3    0  503 -0.14993654759E+02 -0.59545405290E+02  0.62714818290E+00  0.61586916541E+02  0.47000000000E+01 0.  1.
         13    1    4    4    0    0  0.54875810290E+02  0.89707728173E+01  0.63229800908E+02  0.84201170079E+02  0.00000000000E+00 0. -1.
        -14    1    4    4    0    0 -0.19273541345E+02  0.42087503369E+02  0.43949174237E+02  0.63830692084E+02  0.00000000000E+00 0.  1.
</event>
<event>
12    1  0.9966151E-001  0.1735036E+03  0.7818608E-02  0.1174476E+00
         21   -1    0    0  503  502  0.00000000000E+00  0.00000000000E+00  0.82585432799E+02  0.82585432799E+02  0.00000000000E+00 0. -1.
         21   -1    0    0  501  503 -0.00000000000E+00 -0.00000000000E+00 -0.65297665648E+03  0.65297665648E+03  0.00000000000E+00 0. -1.
          6    2    1    2  501    0  0.12753132419E+02  0.76149094103E+01 -0.53003754463E+03  0.55742753670E+03  0.17194484793E+03 0.  0.
         24    2    3    3    0    0 -0.12339100404E+02  0.53981199574E+02 -0.45665644729E+03  0.46694920527E+03  0.80251019618E+02 0.  0.
         -6    2    1    2    0  502 -0.12753132419E+02 -0.76149094103E+01 -0.40353679051E+02  0.17813455257E+03  0.17286662540E+03 0.  0.
        -24    2    5    5    0    0 -0.23598902654E+02  0.14511839908E+02  0.40372626316E+02  0.93600239152E+02  0.79771887966E+02 0.  0.
          5    1    3    3  501    0  0.25092232824E+02 -0.46366290163E+02 -0.73381097340E+02  0.90478331430E+02  0.47000000000E+01 0. -1.
        -11    1    4    4    0    0  0.54234744663E+01  0.64978019243E+02 -0.22235266909E+03  0.23171591769E+03  0.00000000000E+00 0.  1.
         12    1    4    4    0    0 -0.17762574871E+02 -0.10996819669E+02 -0.23430377820E+03  0.23523328759E+03  0.00000000000E+00 0. -1.
         -5    1    5    5    0  502  0.10845770234E+02 -0.22126749318E+02 -0.80726305367E+02  0.84534313421E+02  0.47000000000E+01 0.  1.
         11    1    6    6    0    0 -0.20119701969E+02 -0.34400531184E+01 -0.21164563328E+02  0.29403658168E+02  0.00000000000E+00 0. -1.
        -12    1    6    6    0    0 -0.34792006842E+01  0.17951893027E+02  0.61537189644E+02  0.64196580983E+02  0.00000000000E+00 0.  1.
</event>
<event>
12    1  0.9966151E-001  0.2093727E+03  0.7818608E-02  0.1142166E+00
         21   -1    0    0  501  502  0.00000000000E+00  0.00000000000E+00  0.41143340512E+03  0.41143340512E+03  0.00000000000E+00 0. -1.
         21   -1    0    0  502  503 -0.00000000000E+00 -0.00000000000E+00 -0.10656473672E+03  0.10656473672E+03  0.00000000000E+00 0. -1.
         -6    2    1    2    0  503  0.22770525422E+02 -0.11592338854E+03  0.13899443692E+03  0.25088169456E+03  0.17223658824E+03 0.  0.
        -24    2    3    3    0    0  0.50493681368E+01 -0.12175229095E+03  0.41467165002E+02  0.15147508367E+03  0.79850226864E+02 0.  0.
          6    2    1    2  501    0 -0.22770525422E+02  0.11592338854E+03  0.16587423148E+03  0.26711644728E+03  0.17285892196E+03 0.  0.
         24    2    5    5    0    0  0.10029935791E+02  0.14481807183E+03  0.13370667914E+03  0.21264063245E+03  0.79156105131E+02 0.  0.
          5    1    5    5  501    0 -0.32800461213E+02 -0.28894683295E+02  0.32167552339E+02  0.54475814836E+02  0.47000000000E+01 0. -1.
        -13    1    6    6    0    0  0.15450741743E+02  0.51394929400E+02  0.55489156096E+01  0.53953263598E+02  0.00000000000E+00 0.  1.
         14    1    6    6    0    0 -0.54208059522E+01  0.93423142434E+02  0.12815776353E+03  0.15868736885E+03  0.00000000000E+00 0. -1.
         -5    1    3    3    0  503  0.17721157285E+02  0.58289024137E+01  0.97527271919E+02  0.99406610881E+02  0.47000000000E+01 0.  1.
         13    1    4    4    0    0  0.27254810150E+02 -0.12594097836E+02  0.24592887429E+02  0.38810386351E+02  0.00000000000E+00 0. -1.
        -14    1    4    4    0    0 -0.22205442013E+02 -0.10915819312E+03  0.16874277573E+02  0.11266469732E+03  0.00000000000E+00 0.  1.
</event>
<event>
12    1  0.9966151E-001  0.1969497E+03  0.7818608E-02  0.1153728E+00
         21   -1    0    0  501  502  0.00000000000E+00  0.00000000000E+00  0.23013747176E+03  0.23013747176E+03  0.00000000000E+00 0. -1.
         21   -1    0    0  502  503 -0.00000000000E+00 -0.00000000000E+00 -0.21781915654E+03  0.21781915654E+03  0.00000000000E+00 0. -1.
         -6    2    1    2    0  503  0.34266847353E+02 -0.77773275907E+02  0.11826934469E+03  0.22431673961E+03  0.17060909267E+03 0.  0.
        -24    2    3    3    0    0  0.91354092445E+01  0.14763325586E+02  0.81356790541E+01  0.78213604449E+02  0.75827219142E+02 0.  0.
          6    2    1    2  501    0 -0.34266847353E+02  0.77773275907E+02 -0.10595102948E+03  0.22363988869E+03  0.17766901782E+03 0.  0.
         24    2    5    5    0    0 -0.64203314373E+02  0.66338551447E+01 -0.11558654984E+02  0.10161931826E+03  0.77632530092E+02 0.  0.
          5    1    5    5  501    0  0.29936467020E+02  0.71139420762E+02 -0.94392374496E+02  0.12202057043E+03  0.47000000000E+01 0. -1.
        -13    1    6    6    0    0 -0.16407688010E+02 -0.18460209074E+02  0.25996516386E+02  0.35858198632E+02  0.00000000000E+00 0.  1.
         14    1    6    6    0    0 -0.47795626363E+02  0.25094064219E+02 -0.37555171370E+02  0.65761119631E+02  0.00000000000E+00 0. -1.
         -5    1    3    3    0  503  0.25131438109E+02 -0.92536601492E+02  0.11013366564E+03  0.14610313516E+03  0.47000000000E+01 0.  1.
         13    1    4    4    0    0 -0.24716323722E+02  0.17727705738E+01  0.27574537677E+02  0.37072827002E+02  0.00000000000E+00 0. -1.
        -14    1    4    4    0    0  0.33851732967E+02  0.12990555012E+02 -0.19438858623E+02  0.41140777447E+02  0.00000000000E+00 0.  1.
</event>
<event>
12    1  0.9966151E-001  0.3237491E+03  0.7818608E-02  0.1074104E+00
         21   -1    0    0  503  502  0.00000000000E+00  0.00000000000E+00  0.76446175662E+03  0.76446175662E+03  0.00000000000E+00 0. -1.
         21   -1    0    0  501  503 -0.00000000000E+00 -0.00000000000E+00 -0.15979581864E+03  0.15979581864E+03  0.00000000000E+00 0. -1.
          6    2    1    2  501    0  0.13580719688E+02 -0.27402210938E+03  0.47942167423E+03  0.57849688842E+03  0.17187482600E+03 0.  0.
         24    2    3    3    0    0  0.65538035204E+02 -0.10510902129E+03  0.22636724541E+03  0.26980638337E+03  0.78804912891E+02 0.  0.
         -6    2    1    2    0  502 -0.13580719688E+02  0.27402210938E+03  0.12524426374E+03  0.34576068684E+03  0.16909102456E+03 0.  0.
        -24    2    5    5    0    0 -0.11358517617E+02  0.45216054592E+02  0.54252422949E+02  0.10613789921E+03  0.78411866054E+02 0.  0.
          5    1    3    3  501    0 -0.51957315516E+02 -0.16891308809E+03  0.25305442882E+03  0.30869050505E+03  0.47000000000E+01 0. -1.
        -11    1    4    4    0    0  0.36702273116E+02 -0.10127918692E+03  0.21099872694E+03  0.23690714073E+03  0.00000000000E+00 0.  1.
         12    1    4    4    0    0  0.28835762087E+02 -0.38298343677E+01  0.15368518469E+02  0.32899242641E+02  0.00000000000E+00 0. -1.
         -5    1    5    5    0  502 -0.22222020706E+01  0.22880605479E+03  0.70991840795E+02  0.23962278763E+03  0.47000000000E+01 0.  1.
         11    1    6    6    0    0 -0.20826437856E+02 -0.13540148034E+02 -0.10949272980E+01  0.24865136001E+02  0.00000000000E+00 0. -1.
        -12    1    6    6    0    0  0.94679202390E+01  0.58756202626E+02  0.55347350247E+02  0.81272763211E+02  0.00000000000E+00 0.  1.
</event>
<event>
12    1  0.9966151E-001  0.4258127E+03  0.7818608E-02  0.1035219E+00
         21   -1    0    0  501  502  0.00000000000E+00  0.00000000000E+00  0.11296664768E+03  0.11296664768E+03  0.00000000000E+00 0.  1.
         21   -1    0    0  502  503 -0.00000000000E+00 -0.00000000000E+00 -0.16986575025E+04  0.16986575025E+04  0.00000000000E+00 0.  1.
         -6    2    1    2    0  503  0.82996409090E+02 -0.38064870302E+03 -0.57900683704E+03  0.71872482054E+03  0.17185636819E+03 0.  0.
        -24    2    3    3    0    0 -0.15030725668E+02 -0.18305423449E+03 -0.24521829612E+03  0.31861261978E+03  0.87448346215E+02 0.  0.
          6    2    1    2  501    0 -0.82996409090E+02  0.38064870302E+03 -0.10066840178E+04  0.10928993297E+04  0.17098068324E+03 0.  0.
         24    2    5    5    0    0 -0.38011123449E+02  0.15847253841E+03 -0.30290774958E+03  0.35350156813E+03  0.81558953999E+02 0.  0.
          5    1    5    5  501    0 -0.44985285641E+02  0.22217616460E+03 -0.70377626825E+03  0.73939776155E+03  0.47000000000E+01 0. -1.
        -11    1    6    6    0    0 -0.42215096586E+02  0.16716815176E+03 -0.28324462667E+03  0.33159436648E+03  0.00000000000E+00 0.  1.
         12    1    6    6    0    0  0.42039731372E+01 -0.86956133467E+01 -0.19663122914E+02  0.21907201655E+02  0.00000000000E+00 0. -1.
         -5    1    3    3    0  503  0.98027134758E+02 -0.19759446853E+03 -0.33378854092E+03  0.40011220076E+03  0.47000000000E+01 0.  1.
         13    1    4    4    0    0 -0.23392446689E+01 -0.17036639639E+03 -0.16778718514E+03  0.23912908769E+03  0.00000000000E+00 0. -1.
        -14    1    4    4    0    0 -0.12691480999E+02 -0.12687838096E+02 -0.77431110985E+02  0.79483532092E+02  0.00000000000E+00 0.  1.
</event>
<event>
12    1  0.9966151E-001  0.2319783E+03  0.7818608E-02  0.1125261E+00
         21   -1    0    0  501  502  0.00000000000E+00  0.00000000000E+00  0.28362070828E+03  0.28362070828E+03  0.00000000000E+00 0. -1.
         21   -1    0    0  502  503 -0.00000000000E+00 -0.00000000000E+00 -0.19417668413E+03  0.19417668413E+03  0.00000000000E+00 0. -1.
         -6    2    1    2    0  503 -0.12257759803E+03 -0.94411124675E+02  0.80958821288E+02  0.24569951856E+03  0.17284442333E+03 0.  0.
        -24    2    3    3    0    0 -0.61642097842E+02  0.88767795842E+01  0.81709678894E+02  0.12568210259E+03  0.72394570544E+02 0.  0.
          6    2    1    2  501    0  0.12257759803E+03  0.94411124675E+02  0.84852028629E+01  0.23209787384E+03  0.17279669086E+03 0.  0.
         24    2    5    5    0    0 -0.87833610790E+01  0.43645353576E+02  0.10680883040E+02  0.91173155975E+02  0.78844142379E+02 0.  0.
          5    1    5    5  501    0  0.13136095911E+03  0.50765771100E+02 -0.21956801774E+01  0.14092471786E+03  0.47000000000E+01 0. -1.
        -11    1    6    6    0    0  0.93552516885E+01 -0.14236099825E+02  0.23648851700E+02  0.29145419179E+02  0.00000000000E+00 0.  1.
         12    1    6    6    0    0 -0.18138612767E+02  0.57881453401E+02 -0.12967968660E+02  0.62027736796E+02  0.00000000000E+00 0. -1.
         -5    1    3    3    0  503 -0.60935500190E+02 -0.10328790426E+03 -0.75085760660E+00  0.12001741597E+03  0.47000000000E+01 0.  1.
         11    1    4    4    0    0 -0.27446259095E+02  0.62602459246E+01 -0.83088544167E+01  0.29351744055E+02  0.00000000000E+00 0. -1.
        -12    1    4    4    0    0 -0.34195838747E+02  0.26165336596E+01  0.90018533311E+02  0.96330358535E+02  0.00000000000E+00 0.  1.
</event>
<event>
12    1  0.9966151E-001  0.3473906E+03  0.7818608E-02  0.1064032E+00
         21   -1    0    0  501  502  0.00000000000E+00  0.00000000000E+00  0.15037538968E+04  0.15037538968E+04  0.00000000000E+00 0. -1.
         21   -1    0    0  502  503 -0.00000000000E+00 -0.00000000000E+00 -0.24833099898E+03  0.24833099898E+03  0.00000000000E+00 0. -1.
         -6    2    1    2    0  503 -0.28410539179E+03 -0.93973945708E+02  0.13509920741E+04  0.13949407992E+04  0.17644623236E+03 0.  0.
        -24    2    3    3    0    0 -0.54483617523E+02 -0.53277562684E+02  0.53188913415E+03  0.54327533024E+03  0.80218889018E+02 0.  0.
          6    2    1    2  501    0  0.28410539179E+03  0.93973945708E+02 -0.95569176304E+02  0.35714409654E+03  0.16991604432E+03 0.  0.
         24    2    5    5    0    0  0.14751057351E+03  0.22335191193E+00 -0.47376666458E+01  0.16814734693E+03  0.80570873208E+02 0.  0.
          5    1    5    5  501    0  0.13659481828E+03  0.93750593796E+02 -0.90831509658E+02  0.18899674962E+03  0.47000000000E+01 0. -1.
        -13    1    6    6    0    0  0.12745456022E+03  0.99963387967E+01 -0.33100292145E+02  0.13206142908E+03  0.00000000000E+00 0.  1.
         14    1    6    6    0    0  0.20056013294E+02 -0.97729868848E+01  0.28362625499E+02  0.36085917850E+02  0.00000000000E+00 0. -1.
         -5    1    3    3    0  503 -0.22962177427E+03 -0.40696383023E+02  0.81910293997E+03  0.85166546899E+03  0.47000000000E+01 0.  1.
         11    1    4    4    0    0  0.42687542528E+01 -0.41977605589E+02  0.12308470328E+03  0.13011604750E+03  0.00000000000E+00 0. -1.
        -12    1    4    4    0    0 -0.58752371775E+02 -0.11299957095E+02  0.40880443087E+03  0.41315928274E+03  0.00000000000E+00 0.  1.
</event>
<event>
12    1  0.9966151E-001  0.1821926E+03  0.7818608E-02  0.1165961E+00
         21   -1    0    0  501  502  0.00000000000E+00  0.00000000000E+00  0.45761068491E+03  0.45761068491E+03  0.00000000000E+00 0. -1.
         21   -1    0    0  502  503 -0.00000000000E+00 -0.00000000000E+00 -0.96308489786E+02  0.96308489786E+02  0.00000000000E+00 0. -1.
         -6    2    1    2    0  503 -0.12497140285E+02  0.58224737023E+02  0.31909722956E+03  0.36690205831E+03  0.17101982332E+03 0.  0.
        -24    2    3    3    0    0 -0.45913632622E+02  0.78060913563E+02  0.30053385309E+03  0.32357972221E+03  0.78623608949E+02 0.  0.
          6    2    1    2  501    0  0.12497140285E+02 -0.58224737023E+02  0.42204965569E+02  0.18701711638E+03  0.17218549354E+03 0.  0.
         24    2    5    5    0    0 -0.57154166623E+02 -0.43860093504E+02  0.50729241977E+02  0.11523689051E+03  0.74268286497E+02 0.  0.
          5    1    5    5  501    0  0.69651306907E+02 -0.14364643519E+02 -0.85242764080E+01  0.71780225868E+02  0.47000000000E+01 0. -1.
        -13    1    6    6    0    0 -0.11687717513E+02 -0.12957806421E+02  0.57275159022E+02  0.59874463079E+02  0.00000000000E+00 0.  1.
         14    1    6    6    0    0 -0.45466449109E+02 -0.30902287083E+02 -0.65459170457E+01  0.55362427435E+02  0.00000000000E+00 0. -1.
         -5    1    3    3    0  503  0.33416492337E+02 -0.19836176540E+02  0.18563376463E+02  0.43322336104E+02  0.47000000000E+01 0.  1.
         13    1    4    4    0    0 -0.21912995133E+02  0.77353794793E+02  0.28203108222E+03  0.29326663680E+03  0.00000000000E+00 0. -1.
        -14    1    4    4    0    0 -0.24000637489E+02  0.70711877006E+00  0.18502770873E+02  0.30313085406E+02  0.00000000000E+00 0.  1.
</event>
<event>
12    1  0.9966151E-001  0.2064254E+03  0.7818608E-02  0.1144725E+00
         21   -1    0    0  501  502  0.00000000000E+00  0.00000000000E+00  0.44957223381E+03  0.44957223381E+03  0.00000000000E+00 0.  1.
         21   -1    0    0  502  503 -0.00000000000E+00 -0.00000000000E+00 -0.94140953849E+02  0.94140953849E+02  0.00000000000E+00 0.  1.
         -6    2    1    2    0  503 -0.10233808476E+03  0.43149602926E+02  0.17362957290E+03  0.26973813050E+03  0.17400131791E+03 0.  0.
        -24    2    3    3    0    0 -0.48788341260E+02  0.92991923516E+02  0.11575995744E+03  0.17634212232E+03  0.81660126587E+02 0.  0.
          6    2    1    2  501    0  0.10233808476E+03 -0.43149602926E+02  0.18180170706E+03  0.27397505716E+03  0.17226578137E+03 0.  0.
         24    2    5    5    0    0  0.78922999953E+01 -0.60301192057E+02  0.55248529460E+02  0.11506634113E+03  0.80556444136E+02 0.  0.
          5    1    5    5  501    0  0.94445784761E+02  0.17151589132E+02  0.12655317760E+03  0.15890871602E+03  0.47000000000E+01 0. -1.
        -11    1    6    6    0    0  0.27297186951E+02 -0.74655199218E+01 -0.89556436621E+01  0.29682889962E+02  0.00000000000E+00 0.  1.
         12    1    6    6    0    0 -0.19404886955E+02 -0.52835672136E+02  0.64204173122E+02  0.85383451172E+02  0.00000000000E+00 0. -1.
         -5    1    3    3    0  503 -0.53549743496E+02 -0.49842320590E+02  0.57869615462E+02  0.93396008180E+02  0.47000000000E+01 0.  1.
         11    1    4    4    0    0 -0.15958962355E+02  0.16111389411E+02 -0.10440454947E+02  0.24965344935E+02  0.00000000000E+00 0. -1.
        -12    1    4    4    0    0 -0.32829378905E+02  0.76880534105E+02  0.12620041239E+03  0.15137677738E+03  0.00000000000E+00 0.  1.
</event>
<event>
12    1  0.9966151E-001  0.2702352E+03  0.7818608E-02  0.1101178E+00
         21   -1    0    0  503  502  0.00000000000E+00  0.00000000000E+00  0.15990341415E+04  0.15990341415E+04  0.00000000000E+00 0.  1.
         21   -1    0    0  501  503 -0.00000000000E+00 -0.00000000000E+00 -0.49289486680E+02  0.49289486680E+02  0.00000000000E+00 0.  1.
          6    2    1    2  501    0  0.15147877999E+03 -0.14347878073E+03  0.55000779180E+03  0.61270746446E+03  0.17137644137E+03 0.  0.
         24    2    3    3    0    0  0.86063769814E+02 -0.56780702328E+01  0.23593781635E+03  0.26352241488E+03  0.79612794222E+02 0.  0.
         -6    2    1    2    0  502 -0.15147877999E+03  0.14347878073E+03  0.99973686302E+03  0.10356161637E+04  0.17174126463E+03 0.  0.
        -24    2    5    5    0    0 -0.17131265953E+03  0.14216152439E+03  0.78801313224E+03  0.82290944988E+03  0.81592522801E+02 0.  0.
          5    1    3    3  501    0  0.65415010175E+02 -0.13780071050E+03  0.31406997546E+03  0.34918504958E+03  0.47000000000E+01 0. -1.
        -13    1    4    4    0    0  0.70336111764E+02 -0.30022958517E+02  0.10795151669E+03  0.13229541418E+03  0.00000000000E+00 0.  1.
         14    1    4    4    0    0  0.15727658051E+02  0.24344888284E+02  0.12798629966E+03  0.13122700070E+03  0.00000000000E+00 0. -1.
         -5    1    5    5    0  502  0.19833879536E+02  0.13172563444E+01  0.21172373078E+03  0.21270671385E+03  0.47000000000E+01 0.  1.
         11    1    6    6    0    0 -0.70688068187E+02  0.70284022711E+02  0.21907442459E+03  0.24068703817E+03  0.00000000000E+00 0. -1.
        -12    1    6    6    0    0 -0.10062459134E+03  0.71877501676E+02  0.56893870765E+03  0.58222241171E+03  0.00000000000E+00 0.  1.
</event>
<event>
12    1  0.9966151E-001  0.1750127E+03  0.7818608E-02  0.1172821E+00
         21   -1    0    0  503  502  0.00000000000E+00  0.00000000000E+00  0.48880828966E+02  0.48880828966E+02  0.00000000000E+00 0. -1.
         21   -1    0    0  501  503 -0.00000000000E+00 -0.00000000000E+00 -0.66352280314E+03  0.66352280314E+03  0.00000000000E+00 0. -1.
          6    2    1    2  501    0 -0.31971372175E+01  0.24480198971E+02 -0.39329834225E+03  0.43047999843E+03  0.17326263648E+03 0.  0.
         24    2    3    3    0    0  0.28860003184E+02 -0.45578706734E+02 -0.18880257993E+03  0.21190159756E+03  0.79658989244E+02 0.  0.
         -6    2    1    2    0  502  0.31971372175E+01 -0.24480198971E+02 -0.22134363192E+03  0.28192363367E+03  0.17285378216E+03 0.  0.
        -24    2    5    5    0    0  0.22709955026E+02 -0.21117417736E+02 -0.23968090807E+03  0.25453012982E+03  0.79855882088E+02 0.  0.
          5    1    3    3  501    0 -0.32057140402E+02  0.70058905705E+02 -0.20449576232E+03  0.21857840087E+03  0.47000000000E+01 0. -1.
        -11    1    4    4    0    0  0.18600620973E+02  0.14174510346E+02 -0.14888967984E+02  0.27723297274E+02  0.00000000000E+00 0.  1.
         12    1    4    4    0    0  0.10259382212E+02 -0.59753217080E+02 -0.17391361194E+03  0.18417830028E+03  0.00000000000E+00 0. -1.
         -5    1    5    5    0  502 -0.19512817808E+02 -0.33627812350E+01  0.18337276156E+02  0.27393503852E+02  0.47000000000E+01 0.  1.
         13    1    6    6    0    0 -0.19661554234E+02 -0.48390427451E+01 -0.14714415955E+02  0.25030123581E+02  0.00000000000E+00 0. -1.
        -14    1    6    6    0    0  0.42371509260E+02 -0.16278374990E+02 -0.22496649212E+03  0.22950000624E+03  0.00000000000E+00 0.  1.
</event>
<event>
12    1  0.9966151E-001  0.1923372E+03  0.7818608E-02  0.1156955E+00
         21   -1    0    0  501  502  0.00000000000E+00  0.00000000000E+00  0.76947719696E+02  0.76947719696E+02  0.00000000000E+00 0.  1.
         21   -1    0    0  502  503 -0.00000000000E+00 -0.00000000000E+00 -0.73425154828E+03  0.73425154828E+03  0.00000000000E+00 0.  1.
         -6    2    1    2    0  503 -0.78043282656E+02 -0.28499123531E+02 -0.56855675242E+03  0.59937467952E+03  0.17055870459E+03 0.  0.
        -24    2    3    3    0    0  0.13761172477E+02 -0.46134833511E+02 -0.33670743057E+03  0.34934413280E+03  0.79697155470E+02 0.  0.
          6    2    1    2  501    0  0.78043282656E+02  0.28499123531E+02 -0.88747076163E+02  0.21182458846E+03  0.17346659257E+03 0.  0.
         24    2    5    5    0    0  0.11439757144E+03  0.34163826612E+02 -0.97837446276E+02  0.17363495632E+03  0.79517046994E+02 0.  0.
          5    1    5    5  501    0 -0.36354288785E+02 -0.56647030809E+01  0.90903701128E+01  0.38189632138E+02  0.47000000000E+01 0. -1.
        -11    1    6    6    0    0  0.76162972311E+00 -0.38899037288E+01  0.11035600319E+02  0.11725864798E+02  0.00000000000E+00 0.  1.
         12    1    6    6    0    0  0.11363594172E+03  0.38053730341E+02 -0.10887304660E+03  0.16190909152E+03  0.00000000000E+00 0. -1.
         -5    1    3    3    0  503 -0.91804455133E+02  0.17635709980E+02 -0.23184932186E+03  0.25003054672E+03  0.47000000000E+01 0.  1.
         13    1    4    4    0    0 -0.13057740948E+02 -0.39173987940E+02 -0.30258266786E+03  0.30538725714E+03  0.00000000000E+00 0. -1.
        -14    1    4    4    0    0  0.26818913425E+02 -0.69608455703E+01 -0.34124762704E+02  0.43956875661E+02  0.00000000000E+00 0.  1.
</event>
<event>
12    1  0.9966151E-001  0.2699588E+03  0.7818608E-02  0.1101324E+00
         21   -1    0    0  503  502  0.00000000000E+00  0.00000000000E+00  0.12953970266E+04  0.12953970266E+04  0.00000000000E+00 0.  1.
         21   -1    0    0  501  503 -0.00000000000E+00 -0.00000000000E+00 -0.58579744244E+02  0.58579744244E+02  0.00000000000E+00 0.  1.
          6    2    1    2  501    0  0.17466062918E+03 -0.11344925169E+03  0.75420322968E+03  0.80106194714E+03  0.17175757161E+03 0.  0.
         24    2    3    3    0    0  0.88813345784E+02 -0.23990630450E+02  0.21851328502E+03  0.25119068240E+03  0.82977963670E+02 0.  0.
         -6    2    1    2    0  502 -0.17466062918E+03  0.11344925169E+03  0.48261405268E+03  0.55291482371E+03  0.17152670445E+03 0.  0.
        -24    2    5    5    0    0 -0.13647984807E+03  0.14818712006E+03  0.40881801880E+03  0.46273480285E+03  0.80032204710E+02 0.  0.
          5    1    3    3  501    0  0.85847283394E+02 -0.89458621236E+02  0.53568994466E+03  0.54987126474E+03  0.47000000000E+01 0. -1.
        -11    1    4    4    0    0  0.30314044784E+02  0.11599018525E+01  0.16572423764E+03  0.16847792029E+03  0.00000000000E+00 0.  1.
         12    1    4    4    0    0  0.58499301000E+02 -0.25150532302E+02  0.52789047380E+02  0.82712762110E+02  0.00000000000E+00 0. -1.
         -5    1    5    5    0  502 -0.38180781112E+02 -0.34737868378E+02  0.73796033880E+02  0.90180020859E+02  0.47000000000E+01 0.  1.
         13    1    6    6    0    0 -0.10324737873E+03  0.80237107940E+02  0.32228954138E+03  0.34780535244E+03  0.00000000000E+00 0. -1.
        -14    1    6    6    0    0 -0.33232469339E+02  0.67950012125E+02  0.86528477421E+02  0.11492945041E+03  0.00000000000E+00 0.  1.
</event>
<event>
12    1  0.9966151E-001  0.1861436E+03  0.7818608E-02  0.1162277E+00
         21   -1    0    0  503  502  0.00000000000E+00  0.00000000000E+00  0.38858053603E+02  0.38858053603E+02  0.00000000000E+00 0. -1.
         21   -1    0    0  501  503 -0.00000000000E+00 -0.00000000000E+00 -0.90500472031E+03  0.90500472031E+03  0.00000000000E+00 0. -1.
          6    2    1    2  501    0  0.70439977624E+02  0.88255878222E+01 -0.36559650558E+03  0.41025632260E+03  0.17207487873E+03 0.  0.
         24    2    3    3    0    0  0.23885729317E+01  0.35323836247E+02 -0.29857486658E+03  0.31102356115E+03  0.79594132629E+02 0.  0.
         -6    2    1    2    0  502 -0.70439977624E+02 -0.88255878222E+01 -0.50055016113E+03  0.53360645132E+03  0.17072111654E+03 0.  0.
        -24    2    5    5    0    0 -0.89120088552E+02  0.45319744938E+02 -0.35198610348E+03  0.37431416391E+03  0.78870823452E+02 0.  0.
          5    1    3    3  501    0  0.68051404692E+02 -0.26498248425E+02 -0.67021638999E+02  0.99232761447E+02  0.47000000000E+01 0. -1.
        -11    1    4    4    0    0  0.27501221044E+02 -0.11184077682E+01 -0.21213010804E+03  0.21390827645E+03  0.00000000000E+00 0.  1.
         12    1    4    4    0    0 -0.25112648112E+02  0.36442244015E+02 -0.86444758540E+02  0.97115284704E+02  0.00000000000E+00 0. -1.
         -5    1    5    5    0  502  0.18680110928E+02 -0.54145332760E+02 -0.14856405765E+03  0.15929228741E+03  0.47000000000E+01 0.  1.
         13    1    6    6    0    0 -0.45747961364E+02 -0.18449494085E+02 -0.15948572243E+03  0.16693997562E+03  0.00000000000E+00 0. -1.
        -14    1    6    6    0    0 -0.43372127188E+02  0.63769239023E+02 -0.19250038105E+03  0.20737418828E+03  0.00000000000E+00 0.  1.
</event>
<event>
12    1  0.9966151E-001  0.1848869E+03  0.7818608E-02  0.1163855E+00
         21   -1    0    0  501  502  0.00000000000E+00  0.00000000000E+00  0.41271156317E+03  0.41271156317E+03  0.00000000000E+00 0. -1.
         21   -1    0    0  502  503 -0.00000000000E+00 -0.00000000000E+00 -0.12840286892E+03  0.12840286892E+03  0.00000000000E+00 0. -1.
         -6    2    1    2    0  503  0.49521361113E+02 -0.29530038727E+02  0.30639825301E+03  0.35785900547E+03  0.17566670132E+03 0.  0.
        -24    2    3    3    0    0 -0.24869456001E+01 -0.11982389260E+01  0.28272718387E+03  0.29390617628E+03  0.80240633593E+02 0.  0.
          6    2    1    2  501    0 -0.49521361113E+02  0.29530038727E+02 -0.22089558766E+02  0.18325542662E+03  0.17254047174E+03 0.  0.
         24    2    5    5    0    0 -0.57415123359E+02  0.56002199102E+01 -0.76324715373E+02  0.12326801192E+03  0.77728255685E+02 0.  0.
          5    1    5    5  501    0  0.78937622459E+01  0.23929818817E+02  0.54235156607E+02  0.59987414707E+02  0.47000000000E+01 0. -1.
        -11    1    6    6    0    0 -0.73507202577E+01  0.26530016186E+02 -0.60934139128E+02  0.66864371368E+02  0.00000000000E+00 0.  1.
         12    1    6    6    0    0 -0.50064403101E+02 -0.20929796276E+02 -0.15390576245E+02  0.56403640549E+02  0.00000000000E+00 0. -1.
         -5    1    3    3    0  503  0.52008306713E+02 -0.28331799801E+02  0.23671069135E+02  0.63952829188E+02  0.47000000000E+01 0.  1.
         11    1    4    4    0    0  0.21288064435E+02  0.55942135195E+01  0.19160553964E+02  0.29182250436E+02  0.00000000000E+00 0. -1.
        -12    1    4    4    0    0 -0.23775010035E+02 -0.67924524455E+01  0.26356662991E+03  0.26472392584E+03  0.00000000000E+00 0.  1.
</event>
<event>
12    1  0.9966151E-001  0.2164543E+03  0.7818608E-02  0.1136641E+00
         21   -1    0    0  503  502  0.00000000000E+00  0.00000000000E+00  0.10624390144E+04  0.10624390144E+04  0.00000000000E+00 0. -1.
         21   -1    0    0  501  503 -0.00000000000E+00 -0.00000000000E+00 -0.85599085513E+02  0.85599085513E+02  0.00000000000E+00 0. -1.
          6    2    1    2  501    0  0.54147938993E+02  0.11976520391E+03  0.88881560980E+03  0.91479268554E+03  0.17197896947E+03 0.  0.
         24    2    3    3    0    0 -0.19576492049E+01  0.17534711473E+02  0.19373357735E+03  0.20998063085E+03  0.79043455406E+02 0.  0.
         -6    2    1    2    0  502 -0.54147938993E+02 -0.11976520391E+03  0.88024319040E+02  0.23324541432E+03  0.17140431498E+03 0.  0.
        -24    2    5    5    0    0 -0.91917247384E+02 -0.12332829629E+03  0.76738168218E+02  0.19338712178E+03  0.88606903663E+02 0.  0.
          5    1    3    3  501    0  0.56105588198E+02  0.10223049243E+03  0.69508203245E+03  0.70481205469E+03  0.47000000000E+01 0. -1.
        -11    1    4    4    0    0 -0.17171864057E+02  0.40856749100E+02  0.16108311534E+03  0.16706859941E+03  0.00000000000E+00 0.  1.
         12    1    4    4    0    0  0.15214214852E+02 -0.23322037627E+02  0.32650462015E+02  0.42912031442E+02  0.00000000000E+00 0. -1.
         -5    1    5    5    0  502  0.37769308391E+02  0.35630923850E+01  0.11286150822E+02  0.39858292538E+02  0.47000000000E+01 0.  1.
         11    1    6    6    0    0 -0.69775700916E+02 -0.67569167614E+02  0.89469291161E+02  0.13205678669E+03  0.00000000000E+00 0. -1.
        -12    1    6    6    0    0 -0.22141546468E+02 -0.55759128678E+02 -0.12731122943E+02  0.61330335091E+02  0.00000000000E+00 0.  1.
</event>
<event>
12    1  0.9966151E-001  0.1810908E+03  0.7818608E-02  0.1166824E+00
         21   -1    0    0  503  502  0.00000000000E+00  0.00000000000E+00  0.21498464065E+04  0.21498464065E+04  0.00000000000E+00 0.  1.
         21   -1    0    0  501  503 -0.00000000000E+00 -0.00000000000E+00 -0.23661367755E+02  0.23661367755E+02  0.00000000000E+00 0.  1.
          6    2    1    2  501    0 -0.50948328260E+02 -0.16873167903E+02  0.17124307043E+04  0.17219793248E+04  0.17295502837E+03 0.  0.
         24    2    3    3    0    0 -0.65862470967E+02 -0.24608120784E+02  0.59982353726E+03  0.60923539225E+03  0.80225074761E+02 0.  0.
         -6    2    1    2    0  502  0.50948328260E+02  0.16873167903E+02  0.41375433437E+03  0.45152844945E+03  0.17264082802E+03 0.  0.
        -24    2    5    5    0    0  0.99616602415E+02  0.14767471498E+02  0.25962405802E+03  0.28981491583E+03  0.80290025802E+02 0.  0.
          5    1    3    3  501    0  0.14914142707E+02  0.77349528808E+01  0.11126071671E+04  0.11127439325E+04  0.47000000000E+01 0. -1.
        -11    1    4    4    0    0 -0.80631958503E+02 -0.32381139316E+01  0.45457527945E+03  0.46168244801E+03  0.00000000000E+00 0.  1.
         12    1    4    4    0    0  0.14769487536E+02 -0.21370006852E+02  0.14524825782E+03  0.14755294424E+03  0.00000000000E+00 0. -1.
         -5    1    5    5    0  502 -0.48668274155E+02  0.21056964048E+01  0.15413027635E+03  0.16171353362E+03  0.47000000000E+01 0.  1.
         13    1    6    6    0    0  0.80806170193E+02  0.53215865176E+01  0.99390023442E+02  0.12820426352E+03  0.00000000000E+00 0. -1.
        -14    1    6    6    0    0  0.18810432221E+02  0.94458849807E+01  0.16023403458E+03  0.16161065231E+03  0.00000000000E+00 0.  1.
</event>
<event>
12    1  0.9966151E-001  0.3062041E+03  0.7818608E-02  0.1082799E+00
         21   -1    0    0  503  502  0.00000000000E+00  0.00000000000E+00  0.24442380681E+03  0.24442380681E+03  0.00000000000E+00 0. -1.
         21   -1    0    0  501  503 -0.00000000000E+00 -0.00000000000E+00 -0.54463354507E+03  0.54463354507E+03  0.00000000000E+00 0. -1.
          6    2    1    2  501    0 -0.16374428829E+03 -0.18637491984E+03  0.69430181131E+02  0.30906293998E+03  0.17073824447E+03 0.  0.
         24    2    3    3    0    0 -0.10882469903E+03 -0.68547345567E+02  0.65789636302E+02  0.17892900087E+03  0.10557346921E+03 0.  0.
         -6    2    1    2    0  502  0.16374428829E+03  0.18637491984E+03 -0.36963991939E+03  0.47999441190E+03  0.17948025729E+03 0.  0.
        -24    2    5    5    0    0  0.93849937803E+02  0.15840344044E+03 -0.16072270334E+03  0.25787706216E+03  0.82275944559E+02 0.  0.
          5    1    3    3  501    0 -0.54919589256E+02 -0.11782757427E+03  0.36405448286E+01  0.13013393912E+03  0.47000000000E+01 0. -1.
        -13    1    4    4    0    0 -0.49146789094E+02 -0.41780119858E+02  0.88657231898E+02  0.10964073176E+03  0.00000000000E+00 0.  1.
         14    1    4    4    0    0 -0.59677909939E+02 -0.26767225709E+02 -0.22867595596E+02  0.69288269103E+02  0.00000000000E+00 0. -1.
         -5    1    5    5    0  502  0.69894350486E+02  0.27971479398E+02 -0.20891721605E+03  0.22211734974E+03  0.47000000000E+01 0.  1.
         13    1    6    6    0    0 -0.88697404450E+01  0.17018021640E+02 -0.43215056385E+02  0.47284526586E+02  0.00000000000E+00 0. -1.
        -14    1    6    6    0    0  0.10271967825E+03  0.14138541880E+03 -0.11750764695E+03  0.21059253558E+03  0.00000000000E+00 0.  1.
</event>
<event>
12    1  0.9966151E-001  0.1719064E+03  0.7818608E-02  0.1176767E+00
         21   -1    0    0  501  502  0.00000000000E+00  0.00000000000E+00  0.36158067424E+02  0.36158067424E+02  0.00000000000E+00 0. -1.
         21   -1    0    0  502  503 -0.00000000000E+00 -0.00000000000E+00 -0.11252450871E+04  0.11252450871E+04  0.00000000000E+00 0. -1.
         -6    2    1    2    0  503  0.32041339867E+02 -0.37033416311E+02 -0.85232006455E+03  0.86881062631E+03  0.16119643477E+03 0.  0.
        -24    2    3    3    0    0  0.15127844316E+02 -0.32967725746E+02 -0.34860310495E+03  0.36477147947E+03  0.10108602690E+03 0.  0.
          6    2    1    2  501    0 -0.32041339867E+02  0.37033416311E+02 -0.23676695515E+03  0.29259252823E+03  0.16478372232E+03 0.  0.
         24    2    5    5    0    0 -0.24010304544E+02  0.20244473545E+02 -0.40263288555E+02  0.95153557628E+02  0.80291554292E+02 0.  0.
          5    1    5    5  501    0 -0.80310353233E+01  0.16788942766E+02 -0.19650366659E+03  0.19743897060E+03  0.47000000000E+01 0. -1.
        -13    1    6    6    0    0  0.17954243581E+01  0.25557798144E+02  0.17931506540E+02  0.31272408308E+02  0.00000000000E+00 0.  1.
         14    1    6    6    0    0 -0.25805728902E+02 -0.53133245989E+01 -0.58194795094E+02  0.63881149321E+02  0.00000000000E+00 0. -1.
         -5    1    3    3    0  503  0.16913495551E+02 -0.40656905647E+01 -0.50371695959E+03  0.50403914685E+03  0.47000000000E+01 0.  1.
         11    1    4    4    0    0  0.54716221227E+02 -0.82398143912E+01 -0.24449971885E+03  0.25068281139E+03  0.00000000000E+00 0. -1.
        -12    1    4    4    0    0 -0.39588376911E+02 -0.24727911355E+02 -0.10410338610E+03  0.11408866808E+03  0.00000000000E+00 0.  1.
</event>
<event>
12    1  0.9966151E-001  0.2635677E+03  0.7818608E-02  0.1105336E+00
         21   -1    0    0  501  502  0.00000000000E+00  0.00000000000E+00  0.14504305465E+03  0.14504305465E+03  0.00000000000E+00 0. -1.
         21   -1    0    0  502  503 -0.00000000000E+00 -0.00000000000E+00 -0.68494414701E+03  0.68494414701E+03  0.00000000000E+00 0. -1.
         -6    2    1    2    0  503  0.69458592653E+02 -0.18739091656E+03 -0.40993581806E+02  0.26673657114E+03  0.17183734441E+03 0.  0.
        -24    2    3    3    0    0 -0.25584346967E+02 -0.93240046831E+02  0.49824935239E+01  0.12519704965E+03  0.79380166640E+02 0.  0.
          6    2    1    2  501    0 -0.69458592653E+02  0.18739091656E+03 -0.49890751055E+03  0.56325063052E+03  0.16853105647E+03 0.  0.
         24    2    5    5    0    0 -0.41365566189E+02  0.30017910782E+02 -0.12257514270E+03  0.15434523538E+03  0.78648592120E+02 0.  0.
          5    1    5    5  501    0 -0.28093026464E+02  0.15737300578E+03 -0.37633236785E+03  0.40890539514E+03  0.47000000000E+01 0. -1.
        -11    1    6    6    0    0 -0.64010910465E+02  0.29629515244E+02 -0.99941242419E+02  0.12232561779E+03  0.00000000000E+00 0.  1.
         12    1    6    6    0    0  0.22645344276E+02  0.38839553823E+00 -0.22633900285E+02  0.32019617589E+02  0.00000000000E+00 0. -1.
         -5    1    3    3    0  503  0.95042939621E+02 -0.94150869727E+02 -0.45976075330E+02  0.14153952149E+03  0.47000000000E+01 0.  1.
         11    1    4    4    0    0  0.28816797981E+02 -0.29816240074E+02  0.36708715895E+01  0.41628011197E+02  0.00000000000E+00 0. -1.
        -12    1    4    4    0    0 -0.54401144948E+02 -0.63423806757E+02  0.13116219344E+01  0.83569038449E+02  0.00000000000E+00 0.  1.
</event>
<event>
12    1  0.9966151E-001  0.1759387E+03  0.7818608E-02  0.1171943E+00
         21   -1    0    0  501  502  0.00000000000E+00  0.00000000000E+00  0.43981030195E+03  0.43981030195E+03  0.00000000000E+00 0.  1.
         21   -1    0    0  502  503 -0.00000000000E+00 -0.00000000000E+00 -0.29874622885E+03  0.29874622885E+03  0.00000000000E+00 0.  1.
         -6    2    1    2    0  503  0.78530702947E+01 -0.35548173396E+02  0.39359227587E+03  0.43112563232E+03  0.17213101952E+03 0.  0.
        -24    2    3    3    0    0 -0.32223041648E+00  0.21496180024E+02  0.95440756063E+02  0.12741966834E+03  0.81637273188E+02 0.  0.
          6    2    1    2  501    0 -0.78530702947E+01  0.35548173396E+02 -0.25252820277E+03  0.30743089847E+03  0.17151653214E+03 0.  0.
         24    2    5    5    0    0 -0.13542180263E+02  0.32550796521E+02 -0.27231898361E+03  0.28609746821E+03  0.80319284633E+02 0.  0.
          5    1    5    5  501    0  0.56891099686E+01  0.29973768749E+01  0.19790780841E+02  0.21333430260E+02  0.47000000000E+01 0. -1.
        -13    1    6    6    0    0 -0.11258105135E+02 -0.17455664622E+02 -0.17898904176E+03  0.18019023900E+03  0.00000000000E+00 0.  1.
         14    1    6    6    0    0 -0.22840751281E+01  0.50006461144E+02 -0.93329941844E+02  0.10590722921E+03  0.00000000000E+00 0. -1.
         -5    1    3    3    0  503  0.81753007112E+01 -0.57044353420E+02  0.29815151980E+03  0.30370596398E+03  0.47000000000E+01 0.  1.
         13    1    4    4    0    0 -0.15594528181E+02  0.49484049764E+02  0.51249362817E+02  0.72927070964E+02  0.00000000000E+00 0. -1.
        -14    1    4    4    0    0  0.15272297765E+02 -0.27987869740E+02  0.44191393246E+02  0.54492597375E+02  0.00000000000E+00 0.  1.
</event>
<event>
12    1  0.9966151E-001  0.1842144E+03  0.7818608E-02  0.1164624E+00
         21   -1    0    0  503  502  0.00000000000E+00  0.00000000000E+00  0.25344304732E+03  0.25344304732E+03  0.00000000000E+00 0. -1.
         21   -1    0    0  501  503 -0.00000000000E+00 -0.00000000000E+00 -0.13331550953E+03  0.13331550953E+03  0.00000000000E+00 0. -1.
          6    2    1    2  501    0  0.60200465432E+02  0.27746601688E+02  0.35938825557E+02  0.18421801042E+03  0.16807946405E+03 0.  0.
         24    2    3    3    0    0  0.79427060911E+02  0.73434501982E+02  0.94968902297E+01  0.12784148914E+03  0.67468298751E+02 0.  0.
         -6    2    1    2    0  502 -0.60200465432E+02 -0.27746601688E+02  0.84188712232E+02  0.20254054643E+03  0.17187484906E+03 0.  0.
        -24    2    5    5    0    0  0.15034657262E+02  0.23835971644E+02  0.13222379111E+02  0.86871207389E+02  0.81102286655E+02 0.  0.
          5    1    3    3  501    0 -0.19226595478E+02 -0.45687900294E+02  0.26441935327E+02  0.56376521273E+02  0.47000000000E+01 0. -1.
        -13    1    4    4    0    0  0.41494968915E+02  0.10775555781E+02  0.29346489360E+02  0.51953454991E+02  0.00000000000E+00 0.  1.
         14    1    4    4    0    0  0.37932091995E+02  0.62658946201E+02 -0.19849599130E+02  0.75888034154E+02  0.00000000000E+00 0. -1.
         -5    1    5    5    0  502 -0.75235122695E+02 -0.51582573332E+02  0.70966333121E+02  0.11566933904E+03  0.47000000000E+01 0.  1.
         13    1    6    6    0    0 -0.11853033589E+02  0.38970210458E+02 -0.16576180135E+02  0.43976601236E+02  0.00000000000E+00 0. -1.
        -14    1    6    6    0    0  0.26887690851E+02 -0.15134238815E+02  0.29798559246E+02  0.42894606152E+02  0.00000000000E+00 0.  1.
</event>
<event>
12    1  0.9966151E-001  0.3431017E+03  0.7818608E-02  0.1065500E+00
         21   -1    0    0  501  502  0.00000000000E+00  0.00000000000E+00  0.64942518753E+03  0.64942518753E+03  0.00000000000E+00 0.  1.
         21   -1    0    0  502  503 -0.00000000000E+00 -0.00000000000E+00 -0.24555904952E+03  0.24555904952E+03  0.00000000000E+00 0.  1.
         -6    2    1    2    0  503 -0.48327058574E+02 -0.29315283034E+03  0.43110058398E+03  0.55096869547E+03  0.17159459011E+03 0.  0.
        -24    2    3    3    0    0 -0.94294736697E+02 -0.24633072517E+03  0.36854189062E+03  0.46018864767E+03  0.79875795877E+02 0.  0.
          6    2    1    2  501    0  0.48327058574E+02  0.29315283034E+03 -0.27234445981E+02  0.34401554158E+03  0.17126263829E+03 0.  0.
         24    2    5    5    0    0  0.67715888421E+01  0.28830109523E+03 -0.15640538086E+02  0.30034741706E+03  0.82465559964E+02 0.  0.
          5    1    5    5  501    0  0.41555469732E+02  0.48517351106E+01 -0.11593907895E+02  0.43668124513E+02  0.47000000000E+01 0. -1.
        -11    1    6    6    0    0 -0.31071141385E+02  0.20388544709E+03  0.15955526575E+01  0.20624557486E+03  0.00000000000E+00 0.  1.
         12    1    6    6    0    0  0.37842730227E+02  0.84415648142E+02 -0.17236090744E+02  0.94101842205E+02  0.00000000000E+00 0. -1.
         -5    1    3    3    0  503  0.45967678123E+02 -0.46822105169E+02  0.62558693361E+02  0.90780047805E+02  0.47000000000E+01 0.  1.
         11    1    4    4    0    0  0.35782249071E+01 -0.82085393380E+02  0.85115172995E+02  0.11830219006E+03  0.00000000000E+00 0. -1.
        -12    1    4    4    0    0 -0.97872961604E+02 -0.16424533179E+03  0.28342671763E+03  0.34188645760E+03  0.00000000000E+00 0.  1.
</event>
<event>
12    1  0.9966151E-001  0.2223738E+03  0.7818608E-02  0.1132476E+00
         21   -1    0    0  501  502  0.00000000000E+00  0.00000000000E+00  0.75009065698E+03  0.75009065698E+03  0.00000000000E+00 0.  1.
         21   -1    0    0  502  503 -0.00000000000E+00 -0.00000000000E+00 -0.65751700719E+02  0.65751700719E+02  0.00000000000E+00 0.  1.
         -6    2    1    2    0  503 -0.89046693635E+01  0.14110694892E+03  0.37496565764E+03  0.43594649457E+03  0.17163810051E+03 0.  0.
        -24    2    3    3    0    0  0.27078298672E+02  0.99647045351E+02  0.35372817879E+03  0.37689720922E+03  0.79152472746E+02 0.  0.
          6    2    1    2  501    0  0.89046693635E+01 -0.14110694892E+03  0.30937329862E+03  0.37989586313E+03  0.16917022419E+03 0.  0.
         24    2    5    5    0    0 -0.37032101807E+01 -0.83156027150E+02  0.29760256585E+03  0.31925010391E+03  0.80154245258E+02 0.  0.
          5    1    5    5  501    0  0.12607879544E+02 -0.57950921771E+02  0.11770732772E+02  0.60645759215E+02  0.47000000000E+01 0. -1.
        -13    1    6    6    0    0  0.33187579524E+02 -0.17879912029E+02  0.13551038986E+03  0.14065622080E+03  0.00000000000E+00 0.  1.
         14    1    6    6    0    0 -0.36890789705E+02 -0.65276115121E+02  0.16209217599E+03  0.17859388312E+03  0.00000000000E+00 0. -1.
         -5    1    3    3    0  503 -0.35982968035E+02  0.41459903571E+02  0.21237478855E+02  0.59049285354E+02  0.47000000000E+01 0.  1.
         13    1    4    4    0    0 -0.74490792650E+01  0.69136579179E+02  0.12018084908E+03  0.13884808911E+03  0.00000000000E+00 0. -1.
        -14    1    4    4    0    0  0.34527377937E+02  0.30510466172E+02  0.23354732971E+03  0.23804912011E+03  0.00000000000E+00 0.  1.
</event>
<event>
12    1  0.9966151E-001  0.1737387E+03  0.7818608E-02  0.1174061E+00
         21   -1    0    0  503  502  0.00000000000E+00  0.00000000000E+00  0.14463173215E+03  0.14463173215E+03  0.00000000000E+00 0. -1.
         21   -1    0    0  501  503 -0.00000000000E+00 -0.00000000000E+00 -0.27349763103E+03  0.27349763103E+03  0.00000000000E+00 0. -1.
          6    2    1    2  501    0 -0.18364992096E+02 -0.52290179967E+01  0.37505938161E+02  0.17774089980E+03  0.17268617924E+03 0.  0.
         24    2    3    3    0    0 -0.29193555807E+02  0.64891317889E+01  0.89084717752E+02  0.12354649667E+03  0.80207713905E+02 0.  0.
         -6    2    1    2    0  502  0.18364992096E+02  0.52290179967E+01 -0.16637183704E+03  0.24038846338E+03  0.17245987824E+03 0.  0.
        -24    2    5    5    0    0 -0.55945574047E+02  0.36971737832E+01 -0.85064435966E+02  0.13012790717E+03  0.80955158008E+02 0.  0.
          5    1    3    3  501    0  0.10828563711E+02 -0.11718149786E+02 -0.51578779591E+02  0.54194403129E+02  0.47000000000E+01 0. -1.
        -13    1    4    4    0    0 -0.42162704939E+02  0.33814280165E+02  0.46405010171E+02  0.71235694703E+02  0.00000000000E+00 0.  1.
         14    1    4    4    0    0  0.12969149131E+02 -0.27325148376E+02  0.42679707581E+02  0.52310801964E+02  0.00000000000E+00 0. -1.
         -5    1    5    5    0  502  0.74310566143E+02  0.15318442135E+01 -0.81307401070E+02  0.11026055621E+03  0.47000000000E+01 0.  1.
         11    1    6    6    0    0  0.51042621049E+01  0.24278094737E+02 -0.18347612308E+01  0.24876609988E+02  0.00000000000E+00 0. -1.
        -12    1    6    6    0    0 -0.61049836152E+02 -0.20580920954E+02 -0.83229674736E+02  0.10525129718E+03  0.00000000000E+00 0.  1.
</event>
<event>
12    1  0.9966151E-001  0.2472708E+03  0.7818608E-02  0.1115072E+00
         21   -1    0    0  501  502  0.00000000000E+00  0.00000000000E+00  0.24693158345E+03  0.24693158345E+03  0.00000000000E+00 0. -1.
         21   -1    0    0  502  503 -0.00000000000E+00 -0.00000000000E+00 -0.31687628836E+03  0.31687628836E+03  0.00000000000E+00 0. -1.
         -6    2    1    2    0  503 -0.15788107733E+03  0.79769612111E+02  0.97019502548E+02  0.26544585060E+03  0.17250823206E+03 0.  0.
        -24    2    3    3    0    0 -0.12869719037E+03  0.69627136558E+02  0.13640804443E+03  0.21516547371E+03  0.79234598101E+02 0.  0.
          6    2    1    2  501    0  0.15788107733E+03 -0.79769612111E+02 -0.16696420746E+03  0.29836202121E+03  0.17278085408E+03 0.  0.
         24    2    5    5    0    0  0.83640161092E+01 -0.74662246801E+01 -0.68047590604E+02  0.10499780912E+03  0.79173000803E+02 0.  0.
          5    1    5    5  501    0  0.14951706122E+03 -0.72303387431E+02 -0.98916616855E+02  0.19336421209E+03  0.47000000000E+01 0. -1.
        -11    1    6    6    0    0  0.23815667813E+02  0.10272073927E+02  0.65734373211E+01  0.26756524706E+02  0.00000000000E+00 0.  1.
         12    1    6    6    0    0 -0.15451651704E+02 -0.17738298607E+02 -0.74621027925E+02  0.78241284412E+02  0.00000000000E+00 0. -1.
         -5    1    3    3    0  503 -0.29183886959E+02  0.10142475553E+02 -0.39388541883E+02  0.50280376888E+02  0.47000000000E+01 0.  1.
         11    1    4    4    0    0 -0.20404570706E+01 -0.59043703121E+01 -0.70571365943E+01  0.94248729832E+01  0.00000000000E+00 0. -1.
        -12    1    4    4    0    0 -0.12665673330E+03  0.75531506870E+02  0.14346518103E+03  0.20574060072E+03  0.00000000000E+00 0.  1.
</event>
<event>
12    1  0.9966151E-001  0.2452870E+03  0.7818608E-02  0.1116360E+00
         21   -1    0    0  501  502  0.00000000000E+00  0.00000000000E+00  0.10550228258E+04  0.10550228258E+04  0.00000000000E+00 0. -1.
         21   -1    0    0  502  503 -0.00000000000E+00 -0.00000000000E+00 -0.66102233144E+02  0.66102233144E+02  0.00000000000E+00 0. -1.
         -6    2    1    2    0  503 -0.36016936172E+02 -0.17089598848E+03  0.28632574951E+03  0.37702538414E+03  0.17222963416E+03 0.  0.
        -24    2    3    3    0    0 -0.32377290780E+02 -0.79402522293E+02  0.65853846619E+02  0.13824881213E+03  0.86156575124E+02 0.  0.
          6    2    1    2  501    0  0.36016936172E+02  0.17089598848E+03  0.70259484318E+03  0.74409967484E+03  0.17187831121E+03 0.  0.
         24    2    5    5    0    0  0.67625200406E+02  0.12164054459E+03  0.62949699329E+03  0.65034165236E+03  0.85488071760E+02 0.  0.
          5    1    5    5  501    0 -0.31608264234E+02  0.49255443896E+02  0.73097849890E+02  0.93758022482E+02  0.47000000000E+01 0. -1.
        -13    1    6    6    0    0  0.23690384116E+02  0.35120160806E+01  0.23461578848E+03  0.23583497781E+03  0.00000000000E+00 0.  1.
         14    1    6    6    0    0  0.43934816290E+02  0.11812852850E+03  0.39488120482E+03  0.41450667455E+03  0.00000000000E+00 0. -1.
         -5    1    3    3    0  503 -0.36396453917E+01 -0.91493466188E+02  0.22047190289E+03  0.23877657200E+03  0.47000000000E+01 0.  1.
         11    1    4    4    0    0 -0.26577587532E+02  0.61479856199E+01  0.40503015929E+02  0.48832982559E+02  0.00000000000E+00 0. -1.
        -12    1    4    4    0    0 -0.57997032481E+01 -0.85550507913E+02  0.25350830690E+02  0.89415829575E+02  0.00000000000E+00 0.  1.
</event>
<event>
12    1  0.9966151E-001  0.2054032E+03  0.7818608E-02  0.1145612E+00
         21   -1    0    0  501  502  0.00000000000E+00  0.00000000000E+00  0.88436702042E+03  0.88436702042E+03  0.00000000000E+00 0.  1.
         21   -1    0    0  502  503 -0.00000000000E+00 -0.00000000000E+00 -0.67239363007E+02  0.67239363007E+02  0.00000000000E+00 0.  1.
         -6    2    1    2    0  503  0.10687472717E+03 -0.24878850578E+02  0.14829978081E+03  0.25194845200E+03  0.17159263667E+03 0.  0.
        -24    2    3    3    0    0 -0.95354569008E+01 -0.30970172862E+02  0.91581150368E+02  0.12222748915E+03  0.74177998460E+02 0.  0.
          6    2    1    2  501    0 -0.10687472717E+03  0.24878850578E+02  0.66882787660E+03  0.69965793143E+03  0.17363561842E+03 0.  0.
         24    2    5    5    0    0 -0.41277172789E+02  0.54043840815E+02  0.20882759245E+03  0.23406584901E+03  0.80952557591E+02 0.  0.
          5    1    5    5  501    0 -0.65597554380E+02 -0.29164990237E+02  0.46000028415E+03  0.46559208242E+03  0.47000000000E+01 0. -1.
        -11    1    6    6    0    0 -0.64206086728E+02  0.47546528311E+02  0.17793956531E+03  0.19505276934E+03  0.00000000000E+00 0.  1.
         12    1    6    6    0    0  0.22928913939E+02  0.64973125041E+01  0.30888027147E+02  0.39013079669E+02  0.00000000000E+00 0. -1.
         -5    1    3    3    0  503  0.11641018407E+03  0.60913222844E+01  0.56718630444E+02  0.12972096285E+03  0.47000000000E+01 0.  1.
         13    1    4    4    0    0  0.27500280103E+02 -0.33852540959E+02  0.53552200807E+02  0.69065897130E+02  0.00000000000E+00 0. -1.
        -14    1    4    4    0    0 -0.37035737004E+02  0.28823680969E+01  0.38028949562E+02  0.53161592019E+02  0.00000000000E+00 0.  1.
</event>
<event>
12    1  0.9966151E-001  0.2089653E+03  0.7818608E-02  0.1142820E+00
         21   -1    0    0  501  502  0.00000000000E+00  0.00000000000E+00  0.65646321131E+03  0.65646321131E+03  0.00000000000E+00 0.  1.
         21   -1    0    0  502  503 -0.00000000000E+00 -0.00000000000E+00 -0.68238069737E+02  0.68238069737E+02  0.00000000000E+00 0.  1.
         -6    2    1    2    0  503 -0.11121325235E+03  0.41112832283E+02  0.36065973131E+03  0.41574738339E+03  0.16944554445E+03 0.  0.
        -24    2    3    3    0    0 -0.93991469818E+02 -0.24451357472E+02  0.15863890391E+03  0.20260480793E+03  0.80312770351E+02 0.  0.
          6    2    1    2  501    0  0.11121325235E+03 -0.41112832283E+02  0.22756541027E+03  0.30895389766E+03  0.17206929549E+03 0.  0.
         24    2    5    5    0    0  0.53020349773E+02 -0.10185675571E+02  0.31608630264E+02  0.10215918650E+03  0.80761924214E+02 0.  0.
          5    1    5    5  501    0  0.58192902576E+02 -0.30927156712E+02  0.19595678000E+03  0.20679471116E+03  0.47000000000E+01 0. -1.
        -13    1    6    6    0    0  0.49454351239E+01 -0.39245377960E+02  0.45809567759E+01  0.39820122862E+02  0.00000000000E+00 0.  1.
         14    1    6    6    0    0  0.48074914649E+02  0.29059702388E+02  0.27027673488E+02  0.62339063640E+02  0.00000000000E+00 0. -1.
         -5    1    3    3    0  503 -0.17221782530E+02  0.65564189755E+02  0.20202082740E+03  0.21314257547E+03  0.47000000000E+01 0.  1.
         13    1    4    4    0    0 -0.27381474597E+02 -0.24155879176E+00  0.11751843314E+03  0.12066642296E+03  0.00000000000E+00 0. -1.
        -14    1    4    4    0    0 -0.66609995221E+02 -0.24209798680E+02  0.41120470772E+02  0.81938384973E+02  0.00000000000E+00 0.  1.
</event>
<event>
12    1  0.9966151E-001  0.2500081E+03  0.7818608E-02  0.1113503E+00
         21   -1    0    0  503  502  0.00000000000E+00  0.00000000000E+00  0.12315479458E+03  0.12315479458E+03  0.00000000000E+00 0. -1.
         21   -1    0    0  501  503 -0.00000000000E+00 -0.00000000000E+00 -0.51229723183E+03  0.51229723183E+03  0.00000000000E+00 0. -1.
          6    2    1    2  501    0 -0.18079033035E+03 -0.69229083250E+01 -0.15695512424E+03  0.29519313113E+03  0.17254275827E+03 0.  0.
         24    2    3    3    0    0 -0.36099853651E+02 -0.16391345624E+02 -0.11175459497E+03  0.14323865374E+03  0.80351395649E+02 0.  0.
         -6    2    1    2    0  502  0.18079033035E+03  0.69229083250E+01 -0.23218731301E+03  0.34025889529E+03  0.17068127399E+03 0.  0.
        -24    2    5    5    0    0  0.15951531196E+03 -0.40955760199E+02 -0.12438345553E+03  0.22030575863E+03  0.77077066835E+02 0.  0.
          5    1    3    3  501    0 -0.14469047670E+03  0.94684372994E+01 -0.45200529269E+02  0.15195447739E+03  0.47000000000E+01 0. -1.
        -11    1    4    4    0    0 -0.52703697678E+02 -0.34160025079E+02 -0.94313199142E+02  0.11331181136E+03  0.00000000000E+00 0.  1.
         12    1    4    4    0    0  0.16603844027E+02  0.17768679454E+02 -0.17441395828E+02  0.29926842373E+02  0.00000000000E+00 0. -1.
         -5    1    5    5    0  502  0.21275018390E+02  0.47878668524E+02 -0.10780385748E+03  0.11995313666E+03  0.47000000000E+01 0.  1.
         13    1    6    6    0    0  0.44937464298E+02 -0.13798547444E+02  0.26612110995E+01  0.47083517855E+02  0.00000000000E+00 0. -1.
        -14    1    6    6    0    0  0.11457784766E+03 -0.27157212755E+02 -0.12704466663E+03  0.17322224077E+03  0.00000000000E+00 0.  1.
</event>
<event>
12    1  0.9966151E-001  0.2369413E+03  0.7818608E-02  0.1121895E+00
         21   -1    0    0  501  502  0.00000000000E+00  0.00000000000E+00  0.27229669931E+03  0.27229669931E+03  0.00000000000E+00 0.  1.
         21   -1    0    0  502  503 -0.00000000000E+00 -0.00000000000E+00 -0.22083753966E+03  0.22083753966E+03  0.00000000000E+00 0.  1.
         -6    2    1    2    0  503 -0.13182697237E+03 -0.95762694481E+02 -0.38311712393E+02  0.24001863366E+03  0.17202416371E+03 0.  0.
        -24    2    3    3    0    0  0.74335082467E-01 -0.19465996729E+02 -0.30560455856E+02  0.87370957709E+02  0.79503535988E+02 0.  0.
          6    2    1    2  501    0  0.13182697237E+03  0.95762694481E+02  0.89770872040E+02  0.25311560530E+03  0.17163873655E+03 0.  0.
         24    2    5    5    0    0  0.38714995261E+02 -0.17596657767E+02  0.30015562902E+02  0.94644882477E+02  0.79045724363E+02 0.  0.
          5    1    5    5  501    0  0.93111977108E+02  0.11335935225E+03  0.59755309138E+02  0.15847072283E+03  0.47000000000E+01 0. -1.
        -13    1    6    6    0    0  0.61701000699E+02 -0.15842298321E+01  0.21665431800E+02  0.65413409989E+02  0.00000000000E+00 0.  1.
         14    1    6    6    0    0 -0.22986005438E+02 -0.16012427935E+02  0.83501311026E+01  0.29231472487E+02  0.00000000000E+00 0. -1.
         -5    1    3    3    0  503 -0.13190130745E+03 -0.76296697752E+02 -0.77512565371E+01  0.15264767595E+03  0.47000000000E+01 0.  1.
         11    1    4    4    0    0  0.29849892606E+02 -0.15440221168E+02  0.11641135499E+02  0.35565890316E+02  0.00000000000E+00 0. -1.
        -12    1    4    4    0    0 -0.29775557523E+02 -0.40257755615E+01 -0.42201591355E+02  0.51805067393E+02  0.00000000000E+00 0.  1.
</event>
<event>
12    1  0.9966151E-001  0.2647111E+03  0.7818608E-02  0.1104691E+00
         21   -1    0    0  503  502  0.00000000000E+00  0.00000000000E+00  0.35374159703E+03  0.35374159703E+03  0.00000000000E+00 0. -1.
         21   -1    0    0  501  503 -0.00000000000E+00 -0.00000000000E+00 -0.22171214149E+03  0.22171214149E+03  0.00000000000E+00 0.  1.
          6    2    1    2  501    0 -0.19211449736E+03  0.48370880102E+02  0.16308890025E+03  0.30892675913E+03  0.17201753104E+03 0.  0.
         24    2    3    3    0    0 -0.93377549459E+02 -0.39954285702E+02  0.56420936367E+02  0.13877839942E+03  0.75897367511E+02 0.  0.
         -6    2    1    2    0  502  0.19211449736E+03 -0.48370880102E+02 -0.31059444713E+02  0.26652697939E+03  0.17556827589E+03 0.  0.
        -24    2    5    5    0    0  0.16986075663E+03 -0.91082527084E+02 -0.49258430435E+02  0.21482778360E+03  0.81091801401E+02 0.  0.
          5    1    3    3  501    0 -0.98736947900E+02  0.88325165804E+02  0.10666796388E+03  0.17014835971E+03  0.47000000000E+01 0. -1.
        -13    1    4    4    0    0 -0.12574554453E+02  0.36755877994E+01 -0.16818657270E+02  0.21318925810E+02  0.00000000000E+00 0.  1.
         14    1    4    4    0    0 -0.80802995006E+02 -0.43629873502E+02  0.73239593637E+02  0.11745947361E+03  0.00000000000E+00 0. -1.
         -5    1    5    5    0  502  0.22253740734E+02  0.42711646982E+02  0.18198985722E+02  0.51699195795E+02  0.47000000000E+01 0.  1.
         13    1    6    6    0    0  0.78249154078E+01 -0.20130819006E+02  0.15362663020E+02  0.26504539046E+02  0.00000000000E+00 0. -1.
        -14    1    6    6    0    0  0.16203584122E+03 -0.70951708078E+02 -0.64621093455E+02  0.18832324455E+03  0.00000000000E+00 0.  1.
</event>
<event>
12    1  0.9966151E-001  0.2727412E+03  0.7818608E-02  0.1099759E+00
         21   -1    0    0  501  502  0.00000000000E+00  0.00000000000E+00  0.96745803937E+02  0.96745803937E+02  0.00000000000E+00 0.  1.
         21   -1    0    0  502  503 -0.00000000000E+00 -0.00000000000E+00 -0.17335802232E+04  0.17335802232E+04  0.00000000000E+00 0. -1.
         -6    2    1    2    0  503 -0.63158245888E+02 -0.20235916572E+03 -0.15011881680E+04  0.15257153030E+04  0.17118140776E+03 0.  0.
        -24    2    3    3    0    0 -0.32511299769E+02 -0.13349273182E+03 -0.57525118213E+03  0.59670334793E+03  0.79143343555E+02 0.  0.
          6    2    1    2  501    0  0.63158245888E+02  0.20235916572E+03 -0.13564625134E+03  0.30461072413E+03  0.17160883362E+03 0.  0.
         24    2    5    5    0    0  0.57824269131E+02  0.22682092267E+03 -0.12943660983E+03  0.27839091275E+03  0.77176986676E+02 0.  0.
          5    1    5    5  501    0  0.53339767568E+01 -0.24461756951E+02 -0.62096415124E+01  0.26219811381E+02  0.47000000000E+01 0. -1.
        -13    1    6    6    0    0  0.28871937637E+02  0.39421822618E+02 -0.57802688786E+02  0.75688966913E+02  0.00000000000E+00 0.  1.
         14    1    6    6    0    0  0.28952331494E+02  0.18739910006E+03 -0.71633921046E+02  0.20270194583E+03  0.00000000000E+00 0. -1.
         -5    1    3    3    0  503 -0.30646946119E+02 -0.68866433903E+02 -0.92593698583E+03  0.92901195512E+03  0.47000000000E+01 0.  1.
         13    1    4    4    0    0 -0.50679628607E+02 -0.68646750287E+02 -0.23900614637E+03  0.25378088794E+03  0.00000000000E+00 0. -1.
        -14    1    4    4    0    0  0.18168328838E+02 -0.64845981532E+02 -0.33624503575E+03  0.34292245998E+03  0.00000000000E+00 0.  1.
</event>
<event>
12    1  0.9966151E-001  0.4334625E+03  0.7818608E-02  0.1032789E+00
         21   -1    0    0  503  502  0.00000000000E+00  0.00000000000E+00  0.36674037354E+03  0.36674037354E+03  0.00000000000E+00 0. -1.
         21   -1    0    0  501  503 -0.00000000000E+00 -0.00000000000E+00 -0.57958475597E+03  0.57958475597E+03  0.00000000000E+00 0. -1.
          6    2    1    2  501    0  0.37991025652E+03 -0.11803113218E+03  0.55058416349E+02  0.43694529741E+03  0.17212382910E+03 0.  0.
         24    2    3    3    0    0  0.11046368683E+03 -0.18628770034E+02  0.57589846421E+02  0.14969839724E+03  0.80893525978E+02 0.  0.
         -6    2    1    2    0  502 -0.37991025652E+03  0.11803113218E+03 -0.26790279878E+03  0.50937983210E+03  0.17155976388E+03 0.  0.
        -24    2    5    5    0    0 -0.22294554984E+03  0.35765881776E+02 -0.80853800653E+02  0.25166893154E+03  0.76262687658E+02 0.  0.
          5    1    3    3  501    0  0.26944656969E+03 -0.99402362145E+02 -0.25314300725E+01  0.28724690016E+03  0.47000000000E+01 0. -1.
        -13    1    4    4    0    0  0.34300116033E+02 -0.31357840546E+02 -0.94649958488E+01  0.47427821687E+02  0.00000000000E+00 0.  1.
         14    1    4    4    0    0  0.76163570798E+02  0.12729070511E+02  0.67054842270E+02  0.10227057556E+03  0.00000000000E+00 0. -1.
         -5    1    5    5    0  502 -0.15696470668E+03  0.82265250403E+02 -0.18704899813E+03  0.25771090056E+03  0.47000000000E+01 0.  1.
         13    1    6    6    0    0 -0.15445774311E+03 -0.20855042367E+01 -0.78754530854E+02  0.17338921496E+03  0.00000000000E+00 0. -1.
        -14    1    6    6    0    0 -0.68487806727E+02  0.37851386013E+02 -0.20992697990E+01  0.78279716575E+02  0.00000000000E+00 0.  1.
</event>
<event>
12    1  0.9966151E-001  0.1789756E+03  0.7818608E-02  0.1168903E+00
         21   -1    0    0  501  502  0.00000000000E+00  0.00000000000E+00  0.32308428187E+02  0.32308428187E+02  0.00000000000E+00 0.  1.
         21   -1    0    0  502  503 -0.00000000000E+00 -0.00000000000E+00 -0.13603886236E+04  0.13603886236E+04  0.00000000000E+00 0.  1.
         -6    2    1    2    0  503  0.46883652996E+02 -0.52613929882E+01 -0.10272614789E+04  0.10426625103E+04  0.17220106067E+03 0.  0.
        -24    2    3    3    0    0  0.14738550611E+02  0.54059863439E+02 -0.59831785782E+03  0.60841944577E+03  0.95132903358E+02 0.  0.
          6    2    1    2  501    0 -0.46883652996E+02  0.52613929882E+01 -0.30081871651E+03  0.35003454142E+03  0.17264565102E+03 0.  0.
         24    2    5    5    0    0 -0.45611198546E+02 -0.38654630837E+02 -0.93333898739E+02  0.13789714281E+03  0.82035622884E+02 0.  0.
          5    1    5    5  501    0 -0.12724544500E+01  0.43916023825E+02 -0.20748481777E+03  0.21213739862E+03  0.47000000000E+01 0. -1.
        -11    1    6    6    0    0 -0.25514095530E+02 -0.58212076166E+02 -0.89235963684E+02  0.10955670722E+03  0.00000000000E+00 0.  1.
         12    1    6    6    0    0 -0.20097103017E+02  0.19557445329E+02 -0.40979350547E+01  0.28340435585E+02  0.00000000000E+00 0. -1.
         -5    1    3    3    0  503  0.32145102386E+02 -0.59321256428E+02 -0.42894362106E+03  0.43424306456E+03  0.47000000000E+01 0.  1.
         11    1    4    4    0    0 -0.29679199500E+02 -0.69521110686E+01 -0.26033352578E+03  0.26211205881E+03  0.00000000000E+00 0. -1.
        -12    1    4    4    0    0  0.44417750110E+02  0.61011974508E+02 -0.33798433204E+03  0.34630738696E+03  0.00000000000E+00 0.  1.
</event>
<event>
12    1  0.9966151E-001  0.3317624E+03  0.7818608E-02  0.1070425E+00
         21   -1    0    0  503  502  0.00000000000E+00  0.00000000000E+00  0.37374345969E+03  0.37374345969E+03  0.00000000000E+00 0. -1.
         21   -1    0    0  501  503 -0.00000000000E+00 -0.00000000000E+00 -0.33434662716E+03  0.33434662716E+03  0.00000000000E+00 0.  1.
          6    2    1    2  501    0  0.25386778882E+03 -0.12682956837E+03  0.14271849247E+03  0.36061106387E+03  0.17069615602E+03 0.  0.
         24    2    3    3    0    0  0.18211825883E+03 -0.59706838194E+02  0.27247597490E+02  0.20892364334E+03  0.78579198582E+02 0.  0.
         -6    2    1    2    0  502 -0.25386778882E+03  0.12682956837E+03 -0.10332165995E+03  0.34747902298E+03  0.17184793389E+03 0.  0.
        -24    2    5    5    0    0 -0.11684868247E+03  0.34171032187E+02  0.11168025367E+02  0.14625820428E+03  0.80283644002E+02 0.  0.
          5    1    3    3  501    0  0.71749529988E+02 -0.67122730174E+02  0.11547089498E+03  0.15168742053E+03  0.47000000000E+01 0. -1.
        -11    1    4    4    0    0  0.68011243421E+02 -0.10631916272E+01 -0.22019115769E+02  0.71494762517E+02  0.00000000000E+00 0.  1.
         12    1    4    4    0    0  0.11410701541E+03 -0.58643646567E+02  0.49266713258E+02  0.13742888082E+03  0.00000000000E+00 0. -1.
         -5    1    5    5    0  502 -0.13701910635E+03  0.92658536182E+02 -0.11448968532E+03  0.20122081870E+03  0.47000000000E+01 0.  1.
         13    1    6    6    0    0 -0.32035682334E+02  0.83281550767E+01 -0.33400573456E+02  0.47023838814E+02  0.00000000000E+00 0. -1.
        -14    1    6    6    0    0 -0.84813000132E+02  0.25842877111E+02  0.44568598823E+02  0.99234365468E+02  0.00000000000E+00 0.  1.
</event>
<event>
12    1  0.9966151E-001  0.2152282E+03  0.7818608E-02  0.1137630E+00
         21   -1    0    0  503  502  0.00000000000E+00  0.00000000000E+00  0.13433236255E+04  0.13433236255E+04  0.00000000000E+00 0. -1.
         21   -1    0    0  501  503 -0.00000000000E+00 -0.00000000000E+00 -0.77096480501E+02  0.77096480501E+02  0.00000000000E+00 0. -1.
          6    2    1    2  501    0 -0.81772490626E+02 -0.94649285457E+02  0.10391637548E+03  0.23835009483E+03  0.17426108903E+03 0.  0.
         24    2    3    3    0    0 -0.17954542240E+02 -0.10957955759E+03  0.29361858605E+02  0.13897147767E+03  0.78236230971E+02 0.  0.
         -6    2    1    2    0  502  0.81772490626E+02  0.94649285457E+02  0.11623107695E+04  0.11820700112E+04  0.17515124582E+03 0.  0.
        -24    2    5    5    0    0  0.28829677614E+02  0.59697471896E+02  0.10294350779E+04  0.10347519534E+04  0.81117735435E+02 0.  0.
          5    1    3    3  501    0 -0.63817948386E+02  0.14930272130E+02  0.74554516876E+02  0.99378617160E+02  0.47000000000E+01 0. -1.
        -11    1    4    4    0    0 -0.17895781260E+02 -0.61914459791E+02  0.55108267424E+02  0.84797290384E+02  0.00000000000E+00 0.  1.
         12    1    4    4    0    0 -0.58760979776E-01 -0.47665097796E+02 -0.25746408819E+02  0.54174187284E+02  0.00000000000E+00 0. -1.
         -5    1    5    5    0  502  0.52942813012E+02  0.34951813562E+02  0.13287569160E+03  0.14731805775E+03  0.47000000000E+01 0.  1.
         11    1    6    6    0    0  0.20851152217E+02  0.31537272618E+01  0.59307232996E+02  0.62944931726E+02  0.00000000000E+00 0. -1.
        -12    1    6    6    0    0  0.79785253970E+01  0.56543744634E+02  0.97012784493E+03  0.97180702171E+03  0.00000000000E+00 0.  1.
</event>
<event>
12    1  0.9966151E-001  0.1959530E+03  0.7818608E-02  0.1153245E+00
         21   -1    0    0  501  502  0.00000000000E+00  0.00000000000E+00  0.22355822911E+03  0.22355822911E+03  0.00000000000E+00 0. -1.
         21   -1    0    0  502  503 -0.00000000000E+00 -0.00000000000E+00 -0.18871347185E+03  0.18871347185E+03  0.00000000000E+00 0. -1.
         -6    2    1    2    0  503  0.56269608755E+02  0.75485012204E+02  0.79559378893E+02  0.21148824175E+03  0.17185262783E+03 0.  0.
        -24    2    3    3    0    0  0.60727584231E+02  0.78323242226E+02  0.11758825457E+03  0.17280731001E+03  0.78822579397E+02 0.  0.
          6    2    1    2  501    0 -0.56269608755E+02 -0.75485012204E+02 -0.44714621639E+02  0.20078345921E+03  0.17161102577E+03 0.  0.
         24    2    5    5    0    0 -0.36730638102E+02 -0.11629021703E+03 -0.52414171990E+02  0.15465094149E+03  0.79354356700E+02 0.  0.
          5    1    5    5  501    0 -0.19538970653E+02  0.40805204827E+02  0.76995503511E+01  0.46132517715E+02  0.47000000000E+01 0. -1.
        -13    1    6    6    0    0 -0.23841995905E+02 -0.95145334348E+01  0.12994772487E+02  0.28772056360E+02  0.00000000000E+00 0.  1.
         14    1    6    6    0    0 -0.12888642197E+02 -0.10677568360E+03 -0.65408944477E+02  0.12587888513E+03  0.00000000000E+00 0. -1.
         -5    1    3    3    0  503 -0.44579754755E+01 -0.28382300214E+01 -0.38028875675E+02  0.38680931737E+02  0.47000000000E+01 0.  1.
         13    1    4    4    0    0  0.40083876238E+02  0.90001125380E+02  0.11051835569E+03  0.14805818670E+03  0.00000000000E+00 0. -1.
        -14    1    4    4    0    0  0.20643707993E+02 -0.11677883154E+02  0.70698988736E+01  0.24749123313E+02  0.00000000000E+00 0.  1.
</event>
<event>
12    1  0.9966151E-001  0.2496215E+03  0.7818608E-02  0.1113751E+00
         21   -1    0    0  501  502  0.00000000000E+00  0.00000000000E+00  0.29224792872E+03  0.29224792872E+03  0.00000000000E+00 0. -1.
         21   -1    0    0  502  503 -0.00000000000E+00 -0.00000000000E+00 -0.24342864186E+03  0.24342864186E+03  0.00000000000E+00 0. -1.
         -6    2    1    2    0  503 -0.17238165036E+02  0.17833151828E+03  0.12043382050E+03  0.27598530528E+03  0.17194271972E+03 0.  0.
        -24    2    3    3    0    0  0.44747878129E+02  0.98719485713E+02  0.11263766519E+03  0.17467777686E+03  0.77956222674E+02 0.  0.
          6    2    1    2  501    0  0.17238165036E+02 -0.17833151828E+03 -0.71614533639E+02  0.25969126531E+03  0.17381492198E+03 0.  0.
         24    2    5    5    0    0 -0.91849095914E+01 -0.19613162107E+03 -0.75428486237E+02  0.22726197659E+03  0.86061455478E+02 0.  0.
          5    1    5    5  501    0  0.26423074627E+02  0.17800102795E+02  0.38139525976E+01  0.32429288717E+02  0.47000000000E+01 0. -1.
        -13    1    6    6    0    0  0.55491815902E+01 -0.17452410783E+03 -0.33426101983E+02  0.17778290673E+03  0.00000000000E+00 0.  1.
         14    1    6    6    0    0 -0.14734091182E+02 -0.21607513240E+02 -0.42002384254E+02  0.49479069862E+02  0.00000000000E+00 0. -1.
         -5    1    3    3    0  503 -0.61986043165E+02  0.79612032565E+02  0.77961553118E+01  0.10130752842E+03  0.47000000000E+01 0.  1.
         13    1    4    4    0    0  0.43439053335E+02  0.71843594329E+02  0.32300688063E+02  0.89954365375E+02  0.00000000000E+00 0. -1.
        -14    1    4    4    0    0  0.13088247943E+01  0.26875891384E+02  0.80336977128E+02  0.84723411487E+02  0.00000000000E+00 0.  1.
</event>
<event>
12    1  0.9966151E-001  0.2585353E+03  0.7818608E-02  0.1108030E+00
         21   -1    0    0  503  502  0.00000000000E+00  0.00000000000E+00  0.97183327380E+02  0.97183327380E+02  0.00000000000E+00 0.  1.
         21   -1    0    0  501  503 -0.00000000000E+00 -0.00000000000E+00 -0.80978470483E+03  0.80978470483E+03  0.00000000000E+00 0.  1.
          6    2    1    2  501    0  0.18623785758E+03  0.51385303793E+02 -0.18024787781E+03  0.31516628555E+03  0.17180075976E+03 0.  0.
         24    2    3    3    0    0  0.15495801685E+03 -0.93799024274E+01 -0.17454222580E+03  0.24642413554E+03  0.78485007714E+02 0.  0.
         -6    2    1    2    0  502 -0.18623785758E+03 -0.51385303793E+02 -0.53235349964E+03  0.59180174666E+03  0.17176748738E+03 0.  0.
        -24    2    5    5    0    0 -0.42098182217E+02 -0.65772933062E+02 -0.19954746174E+03  0.22880698256E+03  0.80219138088E+02 0.  0.
          5    1    3    3  501    0  0.31279840732E+02  0.60765206220E+02 -0.57056520084E+01  0.68742150010E+02  0.47000000000E+01 0. -1.
        -11    1    4    4    0    0  0.17577840736E+02 -0.27320756533E+02 -0.52773861469E+02  0.61971644135E+02  0.00000000000E+00 0.  1.
         12    1    4    4    0    0  0.13738017611E+03  0.17940854105E+02 -0.12176836433E+03  0.18445249141E+03  0.00000000000E+00 0. -1.
         -5    1    5    5    0  502 -0.14413967537E+03  0.14387629270E+02 -0.33280603791E+03  0.36299476409E+03  0.47000000000E+01 0.  1.
         13    1    6    6    0    0 -0.42946170892E+02 -0.26904147952E+02 -0.17645470828E+03  0.18358777422E+03  0.00000000000E+00 0. -1.
        -14    1    6    6    0    0  0.84798867502E+00 -0.38868785110E+02 -0.23092753459E+02  0.45219208342E+02  0.00000000000E+00 0.  1.
</event>
<event>
12    1  0.9966151E-001  0.2349188E+03  0.7818608E-02  0.1123345E+00
         21   -1    0    0  501  502  0.00000000000E+00  0.00000000000E+00  0.59349236215E+03  0.59349236215E+03  0.00000000000E+00 0.  1.
         21   -1    0    0  502  503 -0.00000000000E+00 -0.00000000000E+00 -0.10219925821E+03  0.10219925821E+03  0.00000000000E+00 0.  1.
         -6    2    1    2    0  503 -0.14496246995E+03  0.66289111754E+02  0.35198408424E+03  0.42317804222E+03  0.17256446861E+03 0.  0.
        -24    2    3    3    0    0 -0.99462669961E+02  0.11216943276E+03  0.26860788609E+03  0.31758961448E+03  0.78982038419E+02 0.  0.
          6    2    1    2  501    0  0.14496246995E+03 -0.66289111754E+02  0.13930901970E+03  0.27251357814E+03  0.17160502111E+03 0.  0.
         24    2    5    5    0    0  0.95851562845E+02 -0.88497167285E+02  0.36938499813E+02  0.15672544287E+03  0.78607512091E+02 0.  0.
          5    1    5    5  501    0  0.49110907101E+02  0.22208055530E+02  0.10237051989E+03  0.11578813527E+03  0.47000000000E+01 0. -1.
        -13    1    6    6    0    0  0.75718766483E+02 -0.21786159925E+02  0.36992640209E+02  0.87042655013E+02  0.00000000000E+00 0.  1.
         14    1    6    6    0    0  0.20132796362E+02 -0.66711007360E+02 -0.54140396915E-01  0.69682787857E+02  0.00000000000E+00 0. -1.
         -5    1    3    3    0  503 -0.45499799985E+02 -0.45880321006E+02  0.83376198155E+02  0.10558842774E+03  0.47000000000E+01 0.  1.
         11    1    4    4    0    0 -0.88788295706E+02  0.43930349121E+02  0.17734840413E+03  0.20313959111E+03  0.00000000000E+00 0. -1.
        -12    1    4    4    0    0 -0.10674374255E+02  0.68239083639E+02  0.91259481959E+02  0.11445002337E+03  0.00000000000E+00 0.  1.
</event>
<event>
12    1  0.9966151E-001  0.2722952E+03  0.7818608E-02  0.1100000E+00
         21   -1    0    0  503  502  0.00000000000E+00  0.00000000000E+00  0.38878292007E+03  0.38878292007E+03  0.00000000000E+00 0.  1.
         21   -1    0    0  501  503 -0.00000000000E+00 -0.00000000000E+00 -0.19063283973E+03  0.19063283973E+03  0.00000000000E+00 0.  1.
          6    2    1    2  501    0  0.13663933208E+03  0.16174417802E+03  0.94230148729E+02  0.28813885225E+03  0.17121095481E+03 0.  0.
         24    2    3    3    0    0  0.30591012752E+02  0.14170081901E+03  0.57987468125E+02  0.17419323289E+03  0.77238615696E+02 0.  0.
         -6    2    1    2    0  502 -0.13663933208E+03 -0.16174417802E+03  0.10391993162E+03  0.29127690755E+03  0.17091342396E+03 0.  0.
        -24    2    5    5    0    0 -0.15267652679E+03 -0.17732196898E+03  0.85081210724E+02  0.26166531202E+03  0.80478075141E+02 0.  0.
          5    1    3    3  501    0  0.10604831933E+03  0.20043359010E+02  0.36242680604E+02  0.11394561936E+03  0.47000000000E+01 0. -1.
        -11    1    4    4    0    0 -0.23124585046E+02  0.18858278505E+02  0.62696980541E+01  0.30490821823E+02  0.00000000000E+00 0.  1.
         12    1    4    4    0    0  0.53715597798E+02  0.12284254051E+03  0.51717770071E+02  0.14370241107E+03  0.00000000000E+00 0. -1.
         -5    1    5    5    0  502  0.16037194705E+02  0.15577790960E+02  0.18838720894E+02  0.29611595535E+02  0.47000000000E+01 0.  1.
         11    1    6    6    0    0 -0.13668878758E+03 -0.15953250724E+03  0.44780745784E+02  0.21480167763E+03  0.00000000000E+00 0. -1.
        -12    1    6    6    0    0 -0.15987739205E+02 -0.17789461741E+02  0.40300464940E+02  0.46863634390E+02  0.00000000000E+00 0.  1.
</event>
<event>
12    1  0.9966151E-001  0.2070415E+03  0.7818608E-02  0.1145083E+00
         21   -1    0    0  503  502  0.00000000000E+00  0.00000000000E+00  0.45242967231E+03  0.45242967231E+03  0.00000000000E+00 0. -1.
         21   -1    0    0  501  503 -0.00000000000E+00 -0.00000000000E+00 -0.40191508092E+03  0.40191508092E+03  0.00000000000E+00 0. -1.
          6    2    1    2  501    0 -0.64421576519E+02 -0.86083614183E+02  0.40016454520E+03  0.44799356305E+03  0.17031160015E+03 0.  0.
         24    2    3    3    0    0  0.19928284827E+02 -0.40339058898E+01  0.18638097585E+03  0.20391866007E+03  0.80196900400E+02 0.  0.
         -6    2    1    2    0  502  0.64421576519E+02  0.86083614183E+02 -0.34964995381E+03  0.40635119018E+03  0.17693408776E+03 0.  0.
        -24    2    5    5    0    0  0.55242844586E+02  0.94556677167E+02 -0.36320275214E+03  0.38732987953E+03  0.78201402444E+02 0.  0.
          5    1    3    3  501    0 -0.84349861346E+02 -0.82049708293E+02  0.21378356935E+03  0.24407490298E+03  0.47000000000E+01 0. -1.
        -11    1    4    4    0    0  0.47906086232E+02  0.18308449825E+01  0.15102874773E+03  0.15845512845E+03  0.00000000000E+00 0.  1.
         12    1    4    4    0    0 -0.27977801406E+02 -0.58647508723E+01  0.35352228112E+02  0.45463531613E+02  0.00000000000E+00 0. -1.
         -5    1    5    5    0  502  0.91787319331E+01 -0.84730629836E+01  0.13552798329E+02  0.19021310648E+02  0.47000000000E+01 0.  1.
         11    1    6    6    0    0  0.34372097115E+02  0.50205556601E+01 -0.49781689698E+02  0.60703077915E+02  0.00000000000E+00 0. -1.
        -12    1    6    6    0    0  0.20870747471E+02  0.89536121506E+02 -0.31342106244E+03  0.32662680162E+03  0.00000000000E+00 0.  1.
</event>
<event>
12    1  0.9966151E-001  0.1873997E+03  0.7818608E-02  0.1162014E+00
         21   -1    0    0  501  502  0.00000000000E+00  0.00000000000E+00  0.20641458432E+03  0.20641458432E+03  0.00000000000E+00 0. -1.
         21   -1    0    0  502  503 -0.00000000000E+00 -0.00000000000E+00 -0.19216887614E+03  0.19216887614E+03  0.00000000000E+00 0. -1.
         -6    2    1    2    0  503  0.46885659986E+02 -0.34050988769E+02 -0.66967811864E+02  0.19900588289E+03  0.17821593265E+03 0.  0.
        -24    2    3    3    0    0 -0.61562667798E+01  0.43016808633E+02 -0.42026513624E+02  0.10206750169E+03  0.82238686808E+02 0.  0.
          6    2    1    2  501    0 -0.46885659986E+02  0.34050988769E+02  0.81213520044E+02  0.19957757757E+03  0.17285207167E+03 0.  0.
         24    2    5    5    0    0 -0.91531126425E+02  0.31675023743E+02  0.89258586121E+02  0.15390837600E+03  0.79620592651E+02 0.  0.
          5    1    5    5  501    0  0.44645466439E+02  0.23759650268E+01 -0.80450660769E+01  0.45669201564E+02  0.47000000000E+01 0. -1.
        -13    1    6    6    0    0 -0.69936444865E+02  0.48658343659E+02  0.93064029829E+02  0.12617311273E+03  0.00000000000E+00 0.  1.
         14    1    6    6    0    0 -0.21594681560E+02 -0.16983319916E+02 -0.38054437083E+01  0.27735263274E+02  0.00000000000E+00 0. -1.
         -5    1    3    3    0  503  0.53041926766E+02 -0.77067797402E+02 -0.24941298240E+02  0.96938381198E+02  0.47000000000E+01 0.  1.
         13    1    4    4    0    0 -0.31726845375E+02  0.39880857142E+02  0.20628262942E+01  0.51003242408E+02  0.00000000000E+00 0. -1.
        -14    1    4    4    0    0  0.25570578595E+02  0.31359514912E+01 -0.44089339918E+02  0.51064259281E+02  0.00000000000E+00 0.  1.
</event>
<event>
12    1  0.9966151E-001  0.1974102E+03  0.7818608E-02  0.1152376E+00
         21   -1    0    0  503  502  0.00000000000E+00  0.00000000000E+00  0.52711250826E+02  0.52711250826E+02  0.00000000000E+00 0. -1.
         21   -1    0    0  501  503 -0.00000000000E+00 -0.00000000000E+00 -0.94824911629E+03  0.94824911629E+03  0.00000000000E+00 0. -1.
          6    2    1    2  501    0  0.11815313321E+02  0.94361313606E+02 -0.68510290810E+03  0.71242326071E+03  0.17069636367E+03 0.  0.
         24    2    3    3    0    0  0.19138595594E+02  0.13203787021E+03 -0.53192045887E+03  0.55443558355E+03  0.81603656362E+02 0.  0.
         -6    2    1    2    0  502 -0.11815313321E+02 -0.94361313606E+02 -0.21043495736E+03  0.28853710641E+03  0.17299459923E+03 0.  0.
        -24    2    5    5    0    0 -0.39931180892E+02  0.96590557553E+01 -0.77939254260E+02  0.11769232132E+03  0.78033060802E+02 0.  0.
          5    1    3    3  501    0 -0.73232822727E+01 -0.37676556599E+02 -0.15318244924E+03  0.15798767716E+03  0.47000000000E+01 0. -1.
        -11    1    4    4    0    0 -0.22054231185E+02  0.60845573354E+02 -0.14375882493E+03  0.15765523351E+03  0.00000000000E+00 0.  1.
         12    1    4    4    0    0  0.41192826779E+02  0.71192296852E+02 -0.38816163394E+03  0.39678035003E+03  0.00000000000E+00 0. -1.
         -5    1    5    5    0  502  0.28115867571E+02 -0.10402036936E+03 -0.13249570310E+03  0.17084478509E+03  0.47000000000E+01 0.  1.
         11    1    6    6    0    0 -0.58675391826E+02 -0.11620636232E+02 -0.53850830094E+02  0.80484487289E+02  0.00000000000E+00 0. -1.
        -12    1    6    6    0    0  0.18744210935E+02  0.21279691987E+02 -0.24088424166E+02  0.37207834033E+02  0.00000000000E+00 0.  1.
</event>
<event>
12    1  0.9966151E-001  0.3950605E+03  0.7818608E-02  0.1045544E+00
         21   -1    0    0  501  502  0.00000000000E+00  0.00000000000E+00  0.66414146187E+03  0.66414146187E+03  0.00000000000E+00 0.  1.
         21   -1    0    0  502  503 -0.00000000000E+00 -0.00000000000E+00 -0.39183313186E+03  0.39183313186E+03  0.00000000000E+00 0. -1.
         -6    2    1    2    0  503  0.24816394561E+03  0.25499934471E+03 -0.19821677446E+03  0.44159142496E+03  0.17059626964E+03 0.  0.
        -24    2    3    3    0    0  0.13195834673E+03  0.20431070694E+03 -0.18151501884E+03  0.31363003292E+03  0.79121585203E+02 0.  0.
          6    2    1    2  501    0 -0.24816394561E+03 -0.25499934471E+03  0.47052510447E+03  0.61438316877E+03  0.17164729658E+03 0.  0.
         24    2    5    5    0    0 -0.21219428420E+03 -0.27258437790E+03  0.42879322847E+03  0.55635998884E+03  0.79650154305E+02 0.  0.
          5    1    5    5  501    0 -0.35969661409E+02  0.17585033186E+02  0.41731876005E+02  0.58023179928E+02  0.47000000000E+01 0. -1.
        -13    1    6    6    0    0 -0.11126550042E+03 -0.18571422162E+03  0.30864812105E+03  0.37700589693E+03  0.00000000000E+00 0.  1.
         14    1    6    6    0    0 -0.10092878378E+03 -0.86870156273E+02  0.12014510742E+03  0.17935409191E+03  0.00000000000E+00 0. -1.
         -5    1    3    3    0  503  0.11620559888E+03  0.50688637770E+02 -0.16701755618E+02  0.12796139204E+03  0.47000000000E+01 0.  1.
         13    1    4    4    0    0  0.59314622366E+02  0.66037304568E+02 -0.11134760120E+03  0.14239887048E+03  0.00000000000E+00 0. -1.
        -14    1    4    4    0    0  0.72643724362E+02  0.13827340237E+03 -0.70167417638E+02  0.17123116244E+03  0.00000000000E+00 0.  1.
</event>
<event>
12    1  0.9966151E-001  0.2510347E+03  0.7818608E-02  0.1112925E+00
         21   -1    0    0  501  502  0.00000000000E+00  0.00000000000E+00  0.20048420270E+03  0.20048420270E+03  0.00000000000E+00 0. -1.
         21   -1    0    0  502  503 -0.00000000000E+00 -0.00000000000E+00 -0.33247100743E+03  0.33247100743E+03  0.00000000000E+00 0. -1.
         -6    2    1    2    0  503 -0.18036431730E+03  0.14679519466E+02  0.61480836939E-01  0.24930903605E+03  0.17148823992E+03 0.  0.
        -24    2    3    3    0    0 -0.19583845447E+03  0.13383419661E+02  0.28354388495E+02  0.21669450831E+03  0.87296749178E+02 0.  0.
          6    2    1    2  501    0  0.18036431730E+03 -0.14679519466E+02 -0.13204828556E+03  0.28364617408E+03  0.17398743376E+03 0.  0.
         24    2    5    5    0    0  0.18577931219E+03  0.20060150456E+02 -0.73530084684E+02  0.21521638035E+03  0.77427737551E+02 0.  0.
          5    1    5    5  501    0 -0.54149948973E+01 -0.34739669922E+02 -0.58518200876E+02  0.68429793729E+02  0.47000000000E+01 0. -1.
        -13    1    6    6    0    0  0.12048972628E+03  0.49907242766E+02 -0.49939531233E+02  0.13965122197E+03  0.00000000000E+00 0.  1.
         14    1    6    6    0    0  0.65289585914E+02 -0.29847092310E+02 -0.23590553451E+02  0.75565158375E+02  0.00000000000E+00 0. -1.
         -5    1    3    3    0  503  0.15474137170E+02  0.12960998051E+01 -0.28292907658E+02  0.32614527739E+02  0.47000000000E+01 0.  1.
         11    1    4    4    0    0 -0.37042179297E+01 -0.88322198585E+01  0.21068196560E+02  0.23142995580E+02  0.00000000000E+00 0. -1.
        -12    1    4    4    0    0 -0.19213423654E+03  0.22215639520E+02  0.72861919346E+01  0.19355151273E+03  0.00000000000E+00 0.  1.
</event>
<event>
12    1  0.9966151E-001  0.1904343E+03  0.7818608E-02  0.1158954E+00
         21   -1    0    0  501  502  0.00000000000E+00  0.00000000000E+00  0.12080461668E+03  0.12080461668E+03  0.00000000000E+00 0. -1.
         21   -1    0    0  502  503 -0.00000000000E+00 -0.00000000000E+00 -0.30983782195E+03  0.30983782195E+03  0.00000000000E+00 0. -1.
         -6    2    1    2    0  503  0.27564885525E+02 -0.64119998742E+02 -0.46920119139E+02  0.19612931032E+03  0.17718355350E+03 0.  0.
        -24    2    3    3    0    0  0.37831673763E+02  0.22816398189E+02 -0.56740331611E+02  0.10791439874E+03  0.80462591665E+02 0.  0.
          6    2    1    2  501    0 -0.27564885525E+02  0.64119998742E+02 -0.14211308613E+03  0.23451312832E+03  0.17300023396E+03 0.  0.
         24    2    5    5    0    0  0.15218057212E+02  0.57067931928E+02 -0.15769788135E+03  0.18819803706E+03  0.84032977170E+02 0.  0.
          5    1    5    5  501    0 -0.42782942738E+02  0.70520668141E+01  0.15584795222E+02  0.46315091253E+02  0.47000000000E+01 0. -1.
        -13    1    6    6    0    0  0.24185935087E+02  0.76159447385E+02 -0.10921934562E+03  0.13532954718E+03  0.00000000000E+00 0.  1.
         14    1    6    6    0    0 -0.89678778752E+01 -0.19091515457E+02 -0.48478535731E+02  0.52868489885E+02  0.00000000000E+00 0. -1.
         -5    1    3    3    0  503 -0.10266788237E+02 -0.86936396930E+02  0.98202124724E+01  0.88214911579E+02  0.47000000000E+01 0.  1.
         13    1    4    4    0    0  0.63727294680E+01  0.52824807022E+01  0.20817232872E+02  0.22402532618E+02  0.00000000000E+00 0. -1.
        -14    1    4    4    0    0  0.31458944295E+02  0.17533917486E+02 -0.77557564483E+02  0.85511866119E+02  0.00000000000E+00 0.  1.
</event>
<event>
12    1  0.9966151E-001  0.6730544E+03  0.7818608E-02  0.9764774E-01
         21   -1    0    0  503  502  0.00000000000E+00  0.00000000000E+00  0.37887978802E+03  0.37887978802E+03  0.00000000000E+00 0.  1.
         21   -1    0    0  501  503 -0.00000000000E+00 -0.00000000000E+00 -0.12013517562E+04  0.12013517562E+04  0.00000000000E+00 0.  1.
          6    2    1    2  501    0 -0.34476237665E+03  0.55184149595E+03 -0.35081296865E+03  0.75836514683E+03  0.16928621904E+03 0.  0.
         24    2    3    3    0    0 -0.30155024767E+03  0.48368403950E+03 -0.35661558189E+03  0.67731894223E+03  0.81874747739E+02 0.  0.
         -6    2    1    2    0  502  0.34476237665E+03 -0.55184149595E+03 -0.47165899952E+03  0.82186639737E+03  0.17208146410E+03 0.  0.
        -24    2    5    5    0    0  0.17508503637E+03 -0.24627751650E+03 -0.14852948097E+03  0.34584694283E+03  0.79004531836E+02 0.  0.
          5    1    3    3  501    0 -0.43212128979E+02  0.68157456449E+02  0.58026132446E+01  0.81046204606E+02  0.47000000000E+01 0. -1.
        -11    1    4    4    0    0 -0.14313077375E+02  0.38534107733E+02 -0.48483544528E+01  0.41391402291E+02  0.00000000000E+00 0.  1.
         12    1    4    4    0    0 -0.28723717030E+03  0.44514993177E+03 -0.35176722744E+03  0.63592753994E+03  0.00000000000E+00 0. -1.
         -5    1    5    5    0  502  0.16967734028E+03 -0.30556397945E+03 -0.32312951855E+03  0.47601945454E+03  0.47000000000E+01 0.  1.
         13    1    6    6    0    0  0.12304910793E+03 -0.22205597934E+03 -0.13189627927E+03  0.28608839440E+03  0.00000000000E+00 0. -1.
        -14    1    6    6    0    0  0.52035928448E+02 -0.24221537158E+02 -0.16633201694E+02  0.59758548429E+02  0.00000000000E+00 0.  1.
</event>
<event>
12    1  0.9966151E-001  0.3270212E+03  0.7818608E-02  0.1072472E+00
         21   -1    0    0  503  502  0.00000000000E+00  0.00000000000E+00  0.25453555848E+03  0.25453555848E+03  0.00000000000E+00 0.  1.
         21   -1    0    0  501  503 -0.00000000000E+00 -0.00000000000E+00 -0.16109410132E+04  0.16109410132E+04  0.00000000000E+00 0.  1.
          6    2    1    2  501    0  0.23826010827E+03  0.14437381527E+03 -0.14801496804E+04  0.15158260022E+04  0.17109563028E+03 0.  0.
         24    2    3    3    0    0  0.15057324775E+03  0.11475198586E+03 -0.68830826358E+03  0.71857989356E+03  0.82149111486E+02 0.  0.
         -6    2    1    2    0  502 -0.23826010827E+03 -0.14437381527E+03  0.12374422573E+03  0.34965056947E+03  0.17126356763E+03 0.  0.
        -24    2    5    5    0    0 -0.24447184449E+03 -0.10543320257E+03  0.77534728860E+02  0.28872139267E+03  0.80409983534E+02 0.  0.
          5    1    3    3  501    0  0.87686860519E+02  0.29621829417E+02 -0.79184141682E+03  0.79724610860E+03  0.47000000000E+01 0. -1.
        -11    1    4    4    0    0  0.46246092435E+02 -0.49665595482E+01 -0.18839066760E+03  0.19404744630E+03  0.00000000000E+00 0.  1.
         12    1    4    4    0    0  0.10432715532E+03  0.11971854540E+03 -0.49991759599E+03  0.52453244726E+03  0.00000000000E+00 0. -1.
         -5    1    5    5    0  502  0.62117362189E+01 -0.38940612703E+02  0.46209496874E+02  0.60929176803E+02  0.47000000000E+01 0.  1.
         13    1    6    6    0    0 -0.16251952003E+03 -0.51630158956E+02  0.12302778720E+02  0.17096673966E+03  0.00000000000E+00 0. -1.
        -14    1    6    6    0    0 -0.81952324458E+02 -0.53803043613E+02  0.65231950141E+02  0.11775465301E+03  0.00000000000E+00 0.  1.
</event>
<event>
12    1  0.9966151E-001  0.1741651E+03  0.7818608E-02  0.1173608E+00
         21   -1    0    0  501  502  0.00000000000E+00  0.00000000000E+00  0.24467198192E+02  0.24467198192E+02  0.00000000000E+00 0.  1.
         21   -1    0    0  502  503 -0.00000000000E+00 -0.00000000000E+00 -0.12514277491E+04  0.12514277491E+04  0.00000000000E+00 0.  1.
         -6    2    1    2    0  503 -0.25681924181E+02  0.57221704118E+01 -0.54904392160E+03  0.57596321335E+03  0.17202351821E+03 0.  0.
        -24    2    3    3    0    0 -0.38821146648E+01  0.68795735317E+02 -0.37416850502E+03  0.38872804676E+03  0.79746474352E+02 0.  0.
          6    2    1    2  501    0  0.25681924181E+02 -0.57221704118E+01 -0.67791662926E+03  0.69993173390E+03  0.17216611579E+03 0.  0.
         24    2    5    5    0    0  0.67816755193E+01 -0.69966426972E+02 -0.38902341683E+03  0.40334123828E+03  0.80022769465E+02 0.  0.
          5    1    5    5  501    0  0.18900248662E+02  0.64244256561E+02 -0.28889321244E+03  0.29659049562E+03  0.47000000000E+01 0. -1.
        -11    1    6    6    0    0  0.13617806319E+02 -0.42711281512E+02 -0.36058934343E+03  0.36336534344E+03  0.00000000000E+00 0.  1.
         12    1    6    6    0    0 -0.68361307999E+01 -0.27255145461E+02 -0.28434073391E+02  0.39975894836E+02  0.00000000000E+00 0. -1.
         -5    1    3    3    0  503 -0.21799809517E+02 -0.63073564905E+02 -0.17487541658E+03  0.18723516659E+03  0.47000000000E+01 0.  1.
         13    1    4    4    0    0 -0.22866231934E+02  0.58589966056E+02 -0.35285367245E+03  0.35841507062E+03  0.00000000000E+00 0. -1.
        -14    1    4    4    0    0  0.18984117269E+02  0.10205769261E+02 -0.21314832574E+02  0.30312976138E+02  0.00000000000E+00 0.  1.
</event>
<event>
12    1  0.9966151E-001  0.2628783E+03  0.7818608E-02  0.1105731E+00
         21   -1    0    0  503  502  0.00000000000E+00  0.00000000000E+00  0.71379606146E+03  0.71379606146E+03  0.00000000000E+00 0. -1.
         21   -1    0    0  501  503 -0.00000000000E+00 -0.00000000000E+00 -0.11509978802E+03  0.11509978802E+03  0.00000000000E+00 0. -1.
          6    2    1    2  501    0 -0.16984898984E+03  0.94550451963E+02  0.46889076296E+03  0.53755329174E+03  0.17696476079E+03 0.  0.
         24    2    3    3    0    0 -0.83380964840E+02 -0.16866843194E+02  0.25977212741E+03  0.28527719946E+03  0.81637287142E+02 0.  0.
         -6    2    1    2    0  502  0.16984898984E+03 -0.94550451963E+02  0.12980551048E+03  0.29134255773E+03  0.17390384722E+03 0.  0.
        -24    2    5    5    0    0  0.35309628084E+02  0.11032013628E+02  0.76119028928E+02  0.11203046889E+03  0.73404660858E+02 0.  0.
          5    1    3    3  501    0 -0.86468024996E+02  0.11141729516E+03  0.20911863555E+03  0.25227609229E+03  0.47000000000E+01 0. -1.
        -13    1    4    4    0    0 -0.72643912303E+02  0.11854947061E+02  0.23373633892E+03  0.24505173719E+03  0.00000000000E+00 0.  1.
         14    1    4    4    0    0 -0.10737052538E+02 -0.28721790254E+02  0.26035788491E+02  0.40225462271E+02  0.00000000000E+00 0. -1.
         -5    1    5    5    0  502  0.13453936175E+03 -0.10558246559E+03  0.53686481550E+02  0.17931208883E+03  0.47000000000E+01 0.  1.
         13    1    6    6    0    0 -0.62656560455E+01 -0.25301661021E+02  0.32523419086E+02  0.41679794687E+02  0.00000000000E+00 0. -1.
        -14    1    6    6    0    0  0.41575284130E+02  0.36333674649E+02  0.43595609842E+02  0.70350674208E+02  0.00000000000E+00 0.  1.
</event>
<event>
12    1  0.9966151E-001  0.2280147E+03  0.7818608E-02  0.1128046E+00
         21   -1    0    0  501  502  0.00000000000E+00  0.00000000000E+00  0.11079121040E+03  0.11079121040E+03  0.00000000000E+00 0. -1.
         21   -1    0    0  502  503 -0.00000000000E+00 -0.00000000000E+00 -0.50107592522E+03  0.50107592522E+03  0.00000000000E+00 0. -1.
         -6    2    1    2    0  503 -0.46041846856E+02 -0.14241973337E+03 -0.11804965221E+03  0.25675783239E+03  0.17200474410E+03 0.  0.
        -24    2    3    3    0    0 -0.69098974821E+02 -0.88538339862E+02 -0.13760117092E+03  0.19479665422E+03  0.79987175927E+02 0.  0.
          6    2    1    2  501    0  0.46041846856E+02  0.14241973337E+03 -0.27223506261E+03  0.35510930322E+03  0.17201004565E+03 0.  0.
         24    2    5    5    0    0 -0.18925474408E+02  0.65730364553E+02 -0.20522861434E+03  0.23422106463E+03  0.89789022510E+02 0.  0.
          5    1    5    5  501    0  0.64967321264E+02  0.76689368815E+02 -0.67006448270E+02  0.12088823860E+03  0.47000000000E+01 0. -1.
        -11    1    6    6    0    0  0.18098757063E+02  0.63353032057E+02 -0.80146492651E+02  0.10375274436E+03  0.00000000000E+00 0.  1.
         12    1    6    6    0    0 -0.37024231471E+02  0.23773324965E+01 -0.12508212169E+03  0.13046832027E+03  0.00000000000E+00 0. -1.
         -5    1    3    3    0  503  0.23057127965E+02 -0.53881393507E+02  0.19551518709E+02  0.61961178169E+02  0.47000000000E+01 0.  1.
         13    1    4    4    0    0 -0.21493902602E+02 -0.29634355052E+01 -0.76164898234E+02  0.79195085214E+02  0.00000000000E+00 0. -1.
        -14    1    4    4    0    0 -0.47605072219E+02 -0.85574904357E+02 -0.61436272682E+02  0.11560156901E+03  0.00000000000E+00 0.  1.
</event>
<event>
12    1  0.9966151E-001  0.3573266E+03  0.7818608E-02  0.1059739E+00
         21   -1    0    0  503  502  0.00000000000E+00  0.00000000000E+00  0.47728651537E+03  0.47728651537E+03  0.00000000000E+00 0.  1.
         21   -1    0    0  501  503 -0.00000000000E+00 -0.00000000000E+00 -0.34155679659E+03  0.34155679659E+03  0.00000000000E+00 0.  1.
          6    2    1    2  501    0 -0.47076640835E+02  0.30898500990E+03 -0.12370793682E+03  0.37726638221E+03  0.17128433397E+03 0.  0.
         24    2    3    3    0    0 -0.74085062186E+01  0.10501668753E+03  0.53739324036E+01  0.13260159849E+03  0.80441992441E+02 0.  0.
         -6    2    1    2    0  502  0.47076640835E+02 -0.30898500990E+03  0.25943765559E+03  0.44157692975E+03  0.17318874472E+03 0.  0.
        -24    2    5    5    0    0  0.55913784016E+02 -0.22961038393E+03  0.26492159122E+03  0.36138597080E+03  0.67595049731E+02 0.  0.
          5    1    3    3  501    0 -0.39668134616E+02  0.20396832236E+03 -0.12908186922E+03  0.24466478372E+03  0.47000000000E+01 0. -1.
        -11    1    4    4    0    0 -0.23657908157E+02 -0.91808447828E+00 -0.70675441280E+01  0.24708089312E+02  0.00000000000E+00 0.  1.
         12    1    4    4    0    0  0.16249401938E+02  0.10593477201E+03  0.12441476532E+02  0.10789350918E+03  0.00000000000E+00 0. -1.
         -5    1    5    5    0  502 -0.88371431817E+01 -0.79374625966E+02 -0.54839356311E+01  0.80190958947E+02  0.47000000000E+01 0.  1.
         11    1    6    6    0    0  0.22938101150E+02 -0.81732715464E+02  0.14556510262E+03  0.16850991769E+03  0.00000000000E+00 0. -1.
        -12    1    6    6    0    0  0.32975682866E+02 -0.14787766847E+03  0.11935648860E+03  0.19287605311E+03  0.00000000000E+00 0.  1.
</event>
<event>
12    1  0.9966151E-001  0.2261309E+03  0.7818608E-02  0.1129557E+00
         21   -1    0    0  503  502  0.00000000000E+00  0.00000000000E+00  0.11466139479E+03  0.11466139479E+03  0.00000000000E+00 0.  1.
         21   -1    0    0  501  503 -0.00000000000E+00 -0.00000000000E+00 -0.71938120976E+03  0.71938120976E+03  0.00000000000E+00 0.  1.
          6    2    1    2  501    0 -0.14200750741E+03  0.25970531498E+02 -0.55991722345E+03  0.60351615598E+03  0.17286946736E+03 0.  0.
         24    2    3    3    0    0 -0.10433435242E+03 -0.24423536594E+02 -0.49414516852E+03  0.51237405860E+03  0.82858687641E+02 0.  0.
         -6    2    1    2    0  502  0.14200750741E+03 -0.25970531498E+02 -0.44802591525E+02  0.23052644858E+03  0.17405335567E+03 0.  0.
        -24    2    5    5    0    0  0.12466995921E+03 -0.74684927245E+02 -0.61639277019E+02  0.17594397054E+03  0.77694550708E+02 0.  0.
          5    1    3    3  501    0 -0.37673154982E+02  0.50394068092E+02 -0.65772054926E+02  0.91142097378E+02  0.47000000000E+01 0. -1.
        -13    1    4    4    0    0 -0.30254569712E+02 -0.32742580389E+02 -0.31792190451E+03  0.32103232380E+03  0.00000000000E+00 0.  1.
         14    1    4    4    0    0 -0.74079782712E+02  0.83190437956E+01 -0.17622326401E+03  0.19134173480E+03  0.00000000000E+00 0. -1.
         -5    1    5    5    0  502  0.17337548193E+02  0.48714395747E+02  0.16836685494E+02  0.54582478038E+02  0.47000000000E+01 0.  1.
         11    1    6    6    0    0  0.10798641694E+03 -0.37020678840E+02 -0.70001783517E+02  0.13390984505E+03  0.00000000000E+00 0. -1.
        -12    1    6    6    0    0  0.16683542270E+02 -0.37664248405E+02  0.83625064986E+01  0.42034125488E+02  0.00000000000E+00 0.  1.
</event>
<event>
12    1  0.9966151E-001  0.2571191E+03  0.7818608E-02  0.1108915E+00
         21   -1    0    0  501  502  0.00000000000E+00  0.00000000000E+00  0.33217935749E+03  0.33217935749E+03  0.00000000000E+00 0. -1.
         21   -1    0    0  502  503 -0.00000000000E+00 -0.00000000000E+00 -0.36553156825E+03  0.36553156825E+03  0.00000000000E+00 0. -1.
         -6    2    1    2    0  503  0.15857900816E+03 -0.10694873505E+03  0.21887465953E+03  0.33766307241E+03  0.17182811216E+03 0.  0.
        -24    2    3    3    0    0  0.18145236601E+03 -0.96628477847E+02  0.22105710611E+03  0.31203981576E+03  0.78997332821E+02 0.  0.
          6    2    1    2  501    0 -0.15857900816E+03  0.10694873505E+03 -0.25222687029E+03  0.36004785333E+03  0.17155386570E+03 0.  0.
         24    2    5    5    0    0 -0.76288259818E+02  0.12771286318E+03 -0.13002011473E+03  0.21118718901E+03  0.74594400319E+02 0.  0.
          5    1    5    5  501    0 -0.82290748339E+02 -0.20764128126E+02 -0.12220675556E+03  0.14886066433E+03  0.47000000000E+01 0. -1.
        -11    1    6    6    0    0 -0.54743885105E+02  0.10331795277E+03 -0.13462945126E+03  0.17831595966E+03  0.00000000000E+00 0.  1.
         12    1    6    6    0    0 -0.21544374713E+02  0.24394910408E+02  0.46093365356E+01  0.32871229349E+02  0.00000000000E+00 0. -1.
         -5    1    3    3    0  503 -0.22873357857E+02 -0.10320257208E+02 -0.21824465826E+01  0.25623256654E+02  0.47000000000E+01 0.  1.
         11    1    4    4    0    0 -0.35046790917E+01 -0.14103855194E+02  0.38004008318E+01  0.15021469747E+02  0.00000000000E+00 0. -1.
        -12    1    4    4    0    0  0.18495704511E+03 -0.82524622652E+02  0.21725670528E+03  0.29701834601E+03  0.00000000000E+00 0.  1.
</event>
<event>
12    1  0.9966151E-001  0.3193729E+03  0.7818608E-02  0.1075971E+00
         21   -1    0    0  501  502  0.00000000000E+00  0.00000000000E+00  0.16615670329E+03  0.16615670329E+03  0.00000000000E+00 0. -1.
         21   -1    0    0  502  503 -0.00000000000E+00 -0.00000000000E+00 -0.70269127891E+03  0.70269127891E+03  0.00000000000E+00 0. -1.
         -6    2    1    2    0  503 -0.24828831148E+03  0.10278879391E+03 -0.11345076410E+03  0.33892497677E+03  0.17258749153E+03 0.  0.
        -24    2    3    3    0    0 -0.22503458040E+03  0.43217366367E+02 -0.11842039348E+03  0.27461107311E+03  0.94231357566E+02 0.  0.
          6    2    1    2  501    0  0.24828831148E+03 -0.10278879391E+03 -0.42308381152E+03  0.52992300543E+03  0.17206352996E+03 0.  0.
         24    2    5    5    0    0  0.19582058646E+03 -0.98018158517E+02 -0.41567643633E+03  0.47651345256E+03  0.79529298175E+02 0.  0.
          5    1    5    5  501    0  0.52467725015E+02 -0.47706353889E+01 -0.74073751868E+01  0.53409552867E+02  0.47000000000E+01 0. -1.
        -11    1    6    6    0    0  0.18023490303E+02 -0.84104532404E+01 -0.10951509207E+03  0.11130650168E+03  0.00000000000E+00 0.  1.
         12    1    6    6    0    0  0.17779709616E+03 -0.89607705277E+02 -0.30616134427E+03  0.36520695088E+03  0.00000000000E+00 0. -1.
         -5    1    3    3    0  503 -0.23253731075E+02  0.59571427539E+02  0.49696293770E+01  0.64313903661E+02  0.47000000000E+01 0.  1.
         11    1    4    4    0    0 -0.21680362116E+01  0.82370538281E+00 -0.31627596370E+02  0.31712516831E+02  0.00000000000E+00 0. -1.
        -12    1    4    4    0    0 -0.22286654419E+03  0.42393660984E+02 -0.86792797107E+02  0.24289855628E+03  0.00000000000E+00 0.  1.
</event>
<event>
12    1  0.9966151E-001  0.3012606E+03  0.7818608E-02  0.1084736E+00
         21   -1    0    0  501  502  0.00000000000E+00  0.00000000000E+00  0.10547273426E+04  0.10547273426E+04  0.00000000000E+00 0. -1.
         21   -1    0    0  502  503 -0.00000000000E+00 -0.00000000000E+00 -0.26749813745E+03  0.26749813745E+03  0.00000000000E+00 0. -1.
         -6    2    1    2    0  503 -0.16891417284E+03 -0.17950148045E+03  0.93874232052E+03  0.98589811639E+03  0.17322001125E+03 0.  0.
        -24    2    3    3    0    0 -0.12085964976E+03 -0.54115729114E+02  0.63915288283E+03  0.65755874166E+03  0.79570874180E+02 0.  0.
          6    2    1    2  501    0  0.16891417284E+03  0.17950148045E+03 -0.15151311537E+03  0.33632736365E+03  0.17148496185E+03 0.  0.
         24    2    5    5    0    0  0.40701987348E+02  0.26145875712E+02 -0.19474035456E+02  0.96717859171E+02  0.81454574057E+02 0.  0.
          5    1    5    5  501    0  0.12821218549E+03  0.15335560474E+03 -0.13203907991E+03  0.23960950448E+03  0.47000000000E+01 0. -1.
        -13    1    6    6    0    0  0.15914879296E+02  0.22053692594E+02 -0.50160673745E+02  0.57059109094E+02  0.00000000000E+00 0.  1.
         14    1    6    6    0    0  0.24787108052E+02  0.40921831176E+01  0.30686638289E+02  0.39658750077E+02  0.00000000000E+00 0. -1.
         -5    1    3    3    0  503 -0.48054523078E+02 -0.12538575134E+03  0.29958943768E+03  0.32833937473E+03  0.47000000000E+01 0.  1.
         13    1    4    4    0    0  0.52503980402E+01  0.54382120788E+01  0.73401869003E+01  0.10536563668E+02  0.00000000000E+00 0. -1.
        -14    1    4    4    0    0 -0.12611004780E+03 -0.59553941193E+02  0.63181269593E+03  0.64702217799E+03  0.00000000000E+00 0.  1.
</event>
<event>
12    1  0.9966151E-001  0.3201638E+03  0.7818608E-02  0.1075737E+00
         21   -1    0    0  503  502  0.00000000000E+00  0.00000000000E+00  0.13000679607E+04  0.13000679607E+04  0.00000000000E+00 0.  1.
         21   -1    0    0  501  503 -0.00000000000E+00 -0.00000000000E+00 -0.27256205379E+03  0.27256205379E+03  0.00000000000E+00 0. -1.
          6    2    1    2  501    0  0.26923422515E+03  0.42092346574E+01  0.11769185020E+04  0.12193185663E+04  0.17057496948E+03 0.  0.
         24    2    3    3    0    0  0.10296304405E+03 -0.54615107714E+02  0.45517105105E+03  0.47631931878E+03  0.78199803684E+02 0.  0.
         -6    2    1    2    0  502 -0.26923422515E+03 -0.42092346574E+01 -0.14941259510E+03  0.35331144814E+03  0.17320528331E+03 0.  0.
        -24    2    5    5    0    0 -0.12930087472E+03  0.41582672482E+02 -0.23747084181E+02  0.15968254546E+03  0.80540402668E+02 0.  0.
          5    1    3    3  501    0  0.16627118110E+03  0.58824342371E+02  0.72174745092E+03  0.74299924753E+03  0.47000000000E+01 0. -1.
        -11    1    4    4    0    0  0.84854566095E+02 -0.50966802524E+02  0.44362843269E+03  0.45453723570E+03  0.00000000000E+00 0.  1.
         12    1    4    4    0    0  0.18108477957E+02 -0.36483051896E+01  0.11542618363E+02  0.21782083081E+02  0.00000000000E+00 0. -1.
         -5    1    5    5    0  502 -0.13993335042E+03 -0.45791907139E+02 -0.12566551092E+03  0.19362890268E+03  0.47000000000E+01 0.  1.
         13    1    6    6    0    0 -0.11705599089E+03  0.40209975637E+02 -0.47782425789E+02  0.13267293378E+03  0.00000000000E+00 0. -1.
        -14    1    6    6    0    0 -0.12244883834E+02  0.13726968448E+01  0.24035341608E+02  0.27009611677E+02  0.00000000000E+00 0.  1.
</event>
<event>
12    1  0.9966151E-001  0.3851649E+03  0.7818608E-02  0.1049068E+00
         21   -1    0    0  501  502  0.00000000000E+00  0.00000000000E+00  0.21554048860E+03  0.21554048860E+03  0.00000000000E+00 0. -1.
         21   -1    0    0  502  503 -0.00000000000E+00 -0.00000000000E+00 -0.80827729528E+03  0.80827729528E+03  0.00000000000E+00 0. -1.
         -6    2    1    2    0  503 -0.28373051108E+03  0.19489222714E+03 -0.49394506733E+03  0.62618505844E+03  0.17216275658E+03 0.  0.
        -24    2    3    3    0    0 -0.23781495044E+03  0.20091604745E+03 -0.47701273642E+03  0.57665406864E+03  0.89808437230E+02 0.  0.
          6    2    1    2  501    0  0.28373051108E+03 -0.19489222714E+03 -0.98791739344E+02  0.39763272544E+03  0.17281780424E+03 0.  0.
         24    2    5    5    0    0  0.10917840211E+03 -0.17807115657E+02 -0.35276828131E+02  0.14095430912E+03  0.79916492685E+02 0.  0.
          5    1    5    5  501    0  0.17455210897E+03 -0.17708511148E+03 -0.63514911213E+02  0.25667841632E+03  0.47000000000E+01 0. -1.
        -13    1    6    6    0    0  0.80809572635E+02 -0.19501940928E+02 -0.60613119991E+02  0.10288081961E+03  0.00000000000E+00 0.  1.
         14    1    6    6    0    0  0.28368829471E+02  0.16948252702E+01  0.25336291860E+02  0.38073489510E+02  0.00000000000E+00 0. -1.
         -5    1    3    3    0  503 -0.45915560642E+02 -0.60238203138E+01 -0.16932330911E+02  0.49530989798E+02  0.47000000000E+01 0.  1.
         13    1    4    4    0    0 -0.13954735334E+01  0.92626822218E+01  0.15695954764E+01  0.94978028135E+01  0.00000000000E+00 0. -1.
        -14    1    4    4    0    0 -0.23641947690E+03  0.19165336523E+03 -0.47858233190E+03  0.56715626583E+03  0.00000000000E+00 0.  1.
</event>
<event>
12    1  0.9966151E-001  0.2667228E+03  0.7818608E-02  0.1103244E+00
         21   -1    0    0  503  502  0.00000000000E+00  0.00000000000E+00  0.45648590471E+03  0.45648590471E+03  0.00000000000E+00 0. -1.
         21   -1    0    0  501  503 -0.00000000000E+00 -0.00000000000E+00 -0.19852275043E+03  0.19852275043E+03  0.00000000000E+00 0.  1.
          6    2    1    2  501    0 -0.75515796774E+02 -0.18951599012E+03 -0.23495334922E+02  0.26724595345E+03  0.17102462629E+03 0.  0.
         24    2    3    3    0    0  0.48357832070E+01 -0.56801623871E+02 -0.49888701569E+02  0.10980333146E+03  0.79486349663E+02 0.  0.
         -6    2    1    2    0  502  0.75515796774E+02  0.18951599012E+03  0.28145848920E+03  0.38776270170E+03  0.17181992204E+03 0.  0.
        -24    2    5    5    0    0  0.39488114787E+02  0.46014847109E+02  0.18650013978E+03  0.21189414271E+03  0.80250534035E+02 0.  0.
          5    1    3    3  501    0 -0.80351579981E+02 -0.13271436625E+03  0.26393366647E+02  0.15744262198E+03  0.47000000000E+01 0. -1.
        -11    1    4    4    0    0 -0.16037606755E+02 -0.32046050137E+02 -0.64881334422E+02  0.74119779521E+02  0.00000000000E+00 0.  1.
         12    1    4    4    0    0  0.20873389962E+02 -0.24755573733E+02  0.14992632853E+02  0.35683551943E+02  0.00000000000E+00 0. -1.
         -5    1    5    5    0  502  0.36027681987E+02  0.14350114301E+03  0.94958349421E+02  0.17586855899E+03  0.47000000000E+01 0.  1.
         11    1    6    6    0    0  0.56229240255E+02  0.29361591422E+02  0.76454086758E+02  0.99343132085E+02  0.00000000000E+00 0. -1.
        -12    1    6    6    0    0 -0.16741125468E+02  0.16653255687E+02  0.11004605302E+03  0.11255101062E+03  0.00000000000E+00 0.  1.
</event>
<event>
12    1  0.9966151E-001  0.1931492E+03  0.7818608E-02  0.1156159E+00
         21   -1    0    0  503  502  0.00000000000E+00  0.00000000000E+00  0.31668860234E+03  0.31668860234E+03  0.00000000000E+00 0.  1.
         21   -1    0    0  501  503 -0.00000000000E+00 -0.00000000000E+00 -0.15495675161E+03  0.15495675161E+03  0.00000000000E+00 0.  1.
          6    2    1    2  501    0  0.28928679711E+02  0.76753144584E+02  0.19883963749E+03  0.27720714809E+03  0.17486762937E+03 0.  0.
         24    2    3    3    0    0  0.62768974199E+02  0.10538259223E+03  0.17034293527E+03  0.22430192301E+03  0.79051895617E+02 0.  0.
         -6    2    1    2    0  502 -0.28928679711E+02 -0.76753144584E+02 -0.37107786764E+02  0.19443820585E+03  0.17234069265E+03 0.  0.
        -24    2    5    5    0    0 -0.61226636291E+02 -0.10672483198E+03 -0.28516693288E+02  0.14930111543E+03  0.79616144847E+02 0.  0.
          5    1    3    3  501    0 -0.33840294488E+02 -0.28629447649E+02  0.28496702226E+02  0.52905225087E+02  0.47000000000E+01 0. -1.
        -13    1    4    4    0    0  0.18606314724E+02  0.98377882796E+02  0.10461042468E+03  0.14480242996E+03  0.00000000000E+00 0.  1.
         14    1    4    4    0    0  0.44162659475E+02  0.70047094374E+01  0.65732510585E+02  0.79499493042E+02  0.00000000000E+00 0. -1.
         -5    1    5    5    0  502  0.32297956580E+02  0.29971687396E+02 -0.85910934756E+01  0.45137090422E+02  0.47000000000E+01 0.  1.
         13    1    6    6    0    0  0.16709931507E+02 -0.23275579755E+02  0.74165666008E+01  0.29596957344E+02  0.00000000000E+00 0. -1.
        -14    1    6    6    0    0 -0.77936567798E+02 -0.83449252225E+02 -0.35933259889E+02  0.11970415809E+03  0.00000000000E+00 0.  1.
</event>
<event>
12    1  0.9966151E-001  0.2384234E+03  0.7818608E-02  0.1122485E+00
         21   -1    0    0  503  502  0.00000000000E+00  0.00000000000E+00  0.14648367474E+03  0.14648367474E+03  0.00000000000E+00 0. -1.
         21   -1    0    0  501  503 -0.00000000000E+00 -0.00000000000E+00 -0.37785226492E+03  0.37785226492E+03  0.00000000000E+00 0. -1.
          6    2    1    2  501    0  0.14689292427E+03 -0.75153064262E+02 -0.14862687159E+03  0.28095489469E+03  0.17210517605E+03 0.  0.
         24    2    3    3    0    0  0.14874975205E+03 -0.10352995065E+03 -0.15445735387E+03  0.25154775247E+03  0.81081799381E+02 0.  0.
         -6    2    1    2    0  502 -0.14689292427E+03  0.75153064262E+02 -0.82741718585E+02  0.24338104496E+03  0.15862732042E+03 0.  0.
        -24    2    5    5    0    0 -0.41032296560E+02 -0.12295352057E+02 -0.45116436816E+02  0.10093298480E+03  0.79480497649E+02 0.  0.
          5    1    3    3  501    0 -0.18568277776E+01  0.28376886385E+02  0.58304822764E+01  0.29407142226E+02  0.47000000000E+01 0. -1.
        -11    1    4    4    0    0  0.11193538298E+03 -0.94860720339E+02 -0.15538977916E+03  0.21371492623E+03  0.00000000000E+00 0.  1.
         12    1    4    4    0    0  0.36814369066E+02 -0.86692303080E+01  0.93242529224E+00  0.37832826233E+02  0.00000000000E+00 0. -1.
         -5    1    5    5    0  502 -0.10586062771E+03  0.87448416319E+02 -0.37625281769E+02  0.14244806016E+03  0.47000000000E+01 0.  1.
         13    1    6    6    0    0 -0.57373331741E+02  0.96407140837E+01 -0.45047395089E+02  0.73579279471E+02  0.00000000000E+00 0. -1.
        -14    1    6    6    0    0  0.16341035181E+02 -0.21936066141E+02 -0.69041726555E-01  0.27353705330E+02  0.00000000000E+00 0.  1.
</event>
<event>
12    1  0.9966151E-001  0.2736255E+03  0.7818608E-02  0.1101110E+00
         21   -1    0    0  501  502  0.00000000000E+00  0.00000000000E+00  0.58287287219E+02  0.58287287219E+02  0.00000000000E+00 0. -1.
         21   -1    0    0  502  503 -0.00000000000E+00 -0.00000000000E+00 -0.14041602353E+04  0.14041602353E+04  0.00000000000E+00 0. -1.
         -6    2    1    2    0  503  0.81899337986E+02 -0.19162904858E+03 -0.42533916976E+03  0.50575122919E+03  0.17731808333E+03 0.  0.
        -24    2    3    3    0    0  0.11195623032E+03 -0.19336997890E+03 -0.33613096282E+03  0.41148224278E+03  0.80046647052E+02 0.  0.
          6    2    1    2  501    0 -0.81899337986E+02  0.19162904858E+03 -0.92053377836E+03  0.95669629336E+03  0.15638467575E+03 0.  0.
         24    2    5    5    0    0 -0.10295579792E+03  0.19433103526E+03 -0.77863772651E+03  0.81314402146E+03  0.81006437419E+02 0.  0.
          5    1    5    5  501    0  0.21056459937E+02 -0.27019866798E+01 -0.14189605185E+03  0.14355227190E+03  0.47000000000E+01 0. -1.
        -11    1    6    6    0    0 -0.50655745607E+02  0.85304214775E+02 -0.21652506490E+03  0.23817203310E+03  0.00000000000E+00 0.  1.
         12    1    6    6    0    0 -0.52300052316E+02  0.10902682049E+03 -0.56211266162E+03  0.57497198837E+03  0.00000000000E+00 0. -1.
         -5    1    3    3    0  503 -0.30056892334E+02  0.17409303207E+01 -0.89208206935E+02  0.94268986415E+02  0.47000000000E+01 0.  1.
         11    1    4    4    0    0 -0.62364949126E+01 -0.73941480133E+01 -0.13488133105E+00  0.96739592004E+01  0.00000000000E+00 0. -1.
        -12    1    4    4    0    0  0.11819272523E+03 -0.18597583089E+03 -0.33599608149E+03  0.40180828358E+03  0.00000000000E+00 0.  1.
</event>
<event>
12    1  0.9966151E-001  0.1903601E+03  0.7818608E-02  0.1159108E+00
         21   -1    0    0  501  502  0.00000000000E+00  0.00000000000E+00  0.15993248203E+03  0.15993248203E+03  0.00000000000E+00 0.  1.
         21   -1    0    0  502  503 -0.00000000000E+00 -0.00000000000E+00 -0.52676481241E+03  0.52676481241E+03  0.00000000000E+00 0.  1.
         -6    2    1    2    0  503  0.13541383162E+02  0.76497741846E+02  0.78813977871E+02  0.20209683649E+03  0.16910415324E+03 0.  0.
        -24    2    3    3    0    0  0.60159071770E+02  0.11983302921E+02  0.20185812455E+02  0.10312879366E+03  0.80407509549E+02 0.  0.
          6    2    1    2  501    0 -0.13541383162E+02 -0.76497741846E+02 -0.44564630825E+03  0.48460045796E+03  0.17378635801E+03 0.  0.
         24    2    5    5    0    0 -0.26991774864E+02 -0.93628225651E+02 -0.19086358836E+03  0.22884531946E+03  0.80289914240E+02 0.  0.
          5    1    5    5  501    0  0.13450391701E+02  0.17130483806E+02 -0.25478271989E+03  0.25575513850E+03  0.47000000000E+01 0. -1.
        -13    1    6    6    0    0 -0.32578059785E+02 -0.27613643912E+01 -0.32021240750E+02  0.45763686170E+02  0.00000000000E+00 0.  1.
         14    1    6    6    0    0  0.55862849214E+01 -0.90866861260E+02 -0.15884234761E+03  0.18308163329E+03  0.00000000000E+00 0. -1.
         -5    1    3    3    0  503 -0.46617688608E+02  0.64514438925E+02  0.58628165417E+02  0.98968042827E+02  0.47000000000E+01 0.  1.
         11    1    4    4    0    0  0.35384598280E+02  0.11758529624E+02  0.51259798707E+02  0.63386905412E+02  0.00000000000E+00 0. -1.
        -12    1    4    4    0    0  0.24774473491E+02  0.22477329737E+00 -0.31073986252E+02  0.39741888246E+02  0.00000000000E+00 0.  1.
</event>
<event>
12    1  0.9966151E-001  0.2817512E+03  0.7818608E-02  0.1094866E+00
         21   -1    0    0  503  502  0.00000000000E+00  0.00000000000E+00  0.63539172939E+03  0.63539172939E+03  0.00000000000E+00 0.  1.
         21   -1    0    0  501  503 -0.00000000000E+00 -0.00000000000E+00 -0.12748898920E+03  0.12748898920E+03  0.00000000000E+00 0.  1.
          6    2    1    2  501    0  0.19684047071E+03 -0.10324453419E+03  0.31265931609E+03  0.42087955946E+03  0.17314199628E+03 0.  0.
         24    2    3    3    0    0  0.11507629885E+03 -0.26056866204E+02  0.82623676220E+02  0.16479011902E+03  0.80047464809E+02 0.  0.
         -6    2    1    2    0  502 -0.19684047071E+03  0.10324453419E+03  0.19524342410E+03  0.34200115913E+03  0.17157853432E+03 0.  0.
        -24    2    5    5    0    0 -0.40538698237E+02  0.79676200447E+02  0.10904180677E+03  0.16189419295E+03  0.79548294230E+02 0.  0.
          5    1    3    3  501    0  0.81764171866E+02 -0.77187667991E+02  0.23003563987E+03  0.25608944044E+03  0.47000000000E+01 0. -1.
        -13    1    4    4    0    0  0.10578220960E+03 -0.48973993471E+02  0.59252517743E+02  0.13076386642E+03  0.00000000000E+00 0.  1.
         14    1    4    4    0    0  0.92940892513E+01  0.22917127267E+02  0.23371158478E+02  0.34026252597E+02  0.00000000000E+00 0. -1.
         -5    1    5    5    0  502 -0.15630177248E+03  0.23568333747E+02  0.86201617326E+02  0.18010696617E+03  0.47000000000E+01 0.  1.
         11    1    6    6    0    0  0.20975568532E+01 -0.67436353719E+01 -0.77459044492E+01  0.10482146656E+02  0.00000000000E+00 0. -1.
        -12    1    6    6    0    0 -0.42636255091E+02  0.86419835819E+02  0.11678771122E+03  0.15141204630E+03  0.00000000000E+00 0.  1.
</event>
<event>
12    1  0.9966151E-001  0.5251742E+03  0.7818608E-02  0.1007422E+00
         21   -1    0    0  501  502  0.00000000000E+00  0.00000000000E+00  0.62673127488E+03  0.62673127488E+03  0.00000000000E+00 0.  1.
         21   -1    0    0  502  503 -0.00000000000E+00 -0.00000000000E+00 -0.44278061538E+03  0.44278061538E+03  0.00000000000E+00 0.  1.
         -6    2    1    2    0  503 -0.19220099844E+03  0.45754586910E+03  0.48776123000E+02  0.52722033802E+03  0.17115118613E+03 0.  0.
        -24    2    3    3    0    0 -0.15228620163E+03  0.33880769775E+03 -0.26697177678E+02  0.38089790824E+03  0.79929556157E+02 0.  0.
          6    2    1    2  501    0  0.19220099844E+03 -0.45754586910E+03  0.13517453650E+03  0.54229155223E+03  0.17180956368E+03 0.  0.
         24    2    5    5    0    0  0.13285656867E+03 -0.17590468884E+03  0.36624344780E+02  0.23802563884E+03  0.81984966434E+02 0.  0.
          5    1    5    5  501    0  0.59344429774E+02 -0.28164118026E+03  0.98550191719E+02  0.30426591339E+03  0.47000000000E+01 0. -1.
        -11    1    6    6    0    0  0.49743121520E+02 -0.40341384508E+02  0.45817497868E+02  0.78746736780E+02  0.00000000000E+00 0.  1.
         12    1    6    6    0    0  0.83113447148E+02 -0.13556330433E+03 -0.91931530883E+01  0.15927890206E+03  0.00000000000E+00 0. -1.
         -5    1    3    3    0  503 -0.39914796810E+02  0.11873817135E+03  0.75473300679E+02  0.14632242978E+03  0.47000000000E+01 0.  1.
         11    1    4    4    0    0 -0.15675382084E+02  0.12215820496E+03  0.19618905353E+01  0.12317545882E+03  0.00000000000E+00 0. -1.
        -12    1    4    4    0    0 -0.13661081955E+03  0.21664949279E+03 -0.28659068214E+02  0.25772244942E+03  0.00000000000E+00 0.  1.
</event>
<event>
12    1  0.9966151E-001  0.2397702E+03  0.7818608E-02  0.1120190E+00
         21   -1    0    0  501  502  0.00000000000E+00  0.00000000000E+00  0.43962585728E+03  0.43962585728E+03  0.00000000000E+00 0.  1.
         21   -1    0    0  502  503 -0.00000000000E+00 -0.00000000000E+00 -0.14300419048E+03  0.14300419048E+03  0.00000000000E+00 0. -1.
         -6    2    1    2    0  503  0.11311585036E+03 -0.12305501221E+03  0.59975122644E+02  0.24574528630E+03  0.16987053532E+03 0.  0.
        -24    2    3    3    0    0  0.13727881775E+03 -0.13608749319E+03  0.43363003507E+02  0.21331463635E+03  0.79104389270E+02 0.  0.
          6    2    1    2  501    0 -0.11311585036E+03  0.12305501221E+03  0.23664654416E+03  0.33688476146E+03  0.17190702141E+03 0.  0.
         24    2    5    5    0    0 -0.24519060653E+02  0.11210564147E+03  0.19085926500E+03  0.23644649784E+03  0.79440720812E+02 0.  0.
          5    1    5    5  501    0 -0.88596789702E+02  0.10949370741E+02  0.45787279167E+02  0.10043826362E+03  0.47000000000E+01 0. -1.
        -13    1    6    6    0    0 -0.33935102073E+02  0.98182239089E+02  0.19331610579E+03  0.21945947231E+03  0.00000000000E+00 0.  1.
         14    1    6    6    0    0  0.94160414200E+01  0.13923402384E+02 -0.24568407985E+01  0.16987025540E+02  0.00000000000E+00 0. -1.
         -5    1    3    3    0  503 -0.24162967398E+02  0.13032480974E+02  0.16612119137E+02  0.32430649948E+02  0.47000000000E+01 0.  1.
         13    1    4    4    0    0  0.14937250724E+02 -0.59631207893E+02 -0.36463547587E+01  0.61581639447E+02  0.00000000000E+00 0. -1.
        -14    1    4    4    0    0  0.12234156703E+03 -0.76456285295E+02  0.47009358265E+02  0.15173299690E+03  0.00000000000E+00 0.  1.
</event>
<event>
12    1  0.9966151E-001  0.4847380E+03  0.7818608E-02  0.1018022E+00
         21   -1    0    0  503  502  0.00000000000E+00  0.00000000000E+00  0.13002449755E+03  0.13002449755E+03  0.00000000000E+00 0.  1.
         21   -1    0    0  501  503 -0.00000000000E+00 -0.00000000000E+00 -0.17977618121E+04  0.17977618121E+04  0.00000000000E+00 0.  1.
          6    2    1    2  501    0  0.34394678663E+03 -0.29495032401E+03 -0.84845330496E+03  0.97584238891E+03  0.16462160133E+03 0.  0.
         24    2    3    3    0    0  0.14476346892E+03 -0.96091122747E+02 -0.44086238715E+03  0.48049259102E+03  0.79520562257E+02 0.  0.
         -6    2    1    2    0  502 -0.34394678663E+03  0.29495032401E+03 -0.81928400964E+03  0.95194392078E+03  0.17226681107E+03 0.  0.
        -24    2    5    5    0    0 -0.31909217567E+03  0.20803288437E+03 -0.71014550183E+03  0.81014936205E+03  0.83293802336E+02 0.  0.
          5    1    3    3  501    0  0.19918331772E+03 -0.19885920126E+03 -0.40759091781E+03  0.49534979789E+03  0.47000000000E+01 0. -1.
        -13    1    4    4    0    0 -0.14842262314E+01  0.25380910816E+01  0.21568889089E+01  0.36465056711E+01  0.00000000000E+00 0.  1.
         14    1    4    4    0    0  0.14624769515E+03 -0.98629213828E+02 -0.44301927605E+03  0.47684608535E+03  0.00000000000E+00 0. -1.
         -5    1    5    5    0  502 -0.24854610968E+02  0.86917439641E+02 -0.10913850781E+03  0.14179455873E+03  0.47000000000E+01 0.  1.
         11    1    6    6    0    0 -0.20094786872E+03  0.83406172288E+02 -0.41944825035E+03  0.47251822213E+03  0.00000000000E+00 0. -1.
        -12    1    6    6    0    0 -0.11814430695E+03  0.12462671208E+03 -0.29069725148E+03  0.33763113992E+03  0.00000000000E+00 0.  1.
</event>
<event>
12    1  0.9966151E-001  0.1836757E+03  0.7818608E-02  0.1164631E+00
         21   -1    0    0  503  502  0.00000000000E+00  0.00000000000E+00  0.10231110748E+03  0.10231110748E+03  0.00000000000E+00 0.  1.
         21   -1    0    0  501  503 -0.00000000000E+00 -0.00000000000E+00 -0.51660203081E+03  0.51660203081E+03  0.00000000000E+00 0.  1.
          6    2    1    2  501    0  0.34271569165E+02 -0.53507481128E+02 -0.19248683433E+02  0.18325832294E+03  0.17080840180E+03 0.  0.
         24    2    3    3    0    0  0.70908537525E+02 -0.63870203512E+02  0.23820798407E+02  0.12558056526E+03  0.78074479457E+02 0.  0.
         -6    2    1    2    0  502 -0.34271569165E+02  0.53507481128E+02 -0.39504223989E+03  0.43565481534E+03  0.17233443023E+03 0.  0.
        -24    2    5    5    0    0  0.46126889363E+02  0.46102952054E+02 -0.22100985986E+03  0.24374833165E+03  0.79465205690E+02 0.  0.
          5    1    3    3  501    0 -0.36636968360E+02  0.10362722384E+02 -0.43069481840E+02  0.57677757687E+02  0.47000000000E+01 0. -1.
        -11    1    4    4    0    0  0.41018836277E+02  0.11140715295E+02  0.99022201783E+01  0.43643034166E+02  0.00000000000E+00 0.  1.
         12    1    4    4    0    0  0.29889701248E+02 -0.75010918808E+02  0.13918578229E+02  0.81937531089E+02  0.00000000000E+00 0. -1.
         -5    1    5    5    0  502 -0.80398458528E+02  0.74045290741E+01 -0.17403238004E+03  0.19190648370E+03  0.47000000000E+01 0.  1.
         11    1    6    6    0    0  0.56109702667E+02  0.45065268780E+02 -0.10494464361E+03  0.12724997212E+03  0.00000000000E+00 0. -1.
        -12    1    6    6    0    0 -0.99828133046E+01  0.10376832741E+01 -0.11606521625E+03  0.11649835952E+03  0.00000000000E+00 0.  1.
</event>
<event>
12    1  0.9966151E-001  0.1755986E+03  0.7818608E-02  0.1174146E+00
         21   -1    0    0  503  502  0.00000000000E+00  0.00000000000E+00  0.47998928622E+03  0.47998928622E+03  0.00000000000E+00 0.  1.
         21   -1    0    0  501  503 -0.00000000000E+00 -0.00000000000E+00 -0.86732629194E+02  0.86732629194E+02  0.00000000000E+00 0.  1.
          6    2    1    2  501    0  0.16511237374E+02 -0.10557340059E+02  0.35294166742E+03  0.39421147108E+03  0.17450153279E+03 0.  0.
         24    2    3    3    0    0  0.68212051805E+02 -0.10988835964E+01  0.15205356308E+03  0.18650842085E+03  0.83731794718E+02 0.  0.
         -6    2    1    2    0  502 -0.16511237374E+02  0.10557340059E+02  0.40314989612E+02  0.17251044433E+03  0.16658474308E+03 0.  0.
        -24    2    5    5    0    0  0.33318946729E+02 -0.26090040142E+02 -0.93577201451E+01  0.93040035890E+02  0.82328846380E+02 0.  0.
          5    1    3    3  501    0 -0.51700814432E+02 -0.94584564631E+01  0.20088810434E+03  0.20770305024E+03  0.47000000000E+01 0. -1.
        -13    1    4    4    0    0  0.53225110916E+02 -0.18894016985E+02  0.15313463966E+03  0.16321799586E+03  0.00000000000E+00 0.  1.
         14    1    4    4    0    0  0.14986940890E+02  0.17795133389E+02 -0.10810765811E+01  0.23290424988E+02  0.00000000000E+00 0. -1.
         -5    1    5    5    0  502 -0.49830184103E+02  0.36647380201E+02  0.49672709757E+02  0.79470408442E+02  0.47000000000E+01 0.  1.
         13    1    6    6    0    0 -0.95699942863E+01 -0.35850675571E+02  0.17999191707E+02  0.41241079419E+02  0.00000000000E+00 0. -1.
        -14    1    6    6    0    0  0.42888941016E+02  0.97606354293E+01 -0.27356911852E+02  0.51798956471E+02  0.00000000000E+00 0.  1.
</event>
<event>
12    1  0.9966151E-001  0.1884754E+03  0.7818608E-02  0.1159897E+00
         21   -1    0    0  501  502  0.00000000000E+00  0.00000000000E+00  0.74222999585E+02  0.74222999585E+02  0.00000000000E+00 0.  1.
         21   -1    0    0  502  503 -0.00000000000E+00 -0.00000000000E+00 -0.18888054633E+04  0.18888054633E+04  0.00000000000E+00 0.  1.
         -6    2    1    2    0  503 -0.29901605816E+01  0.75350037701E+02 -0.59160393724E+02  0.19754217424E+03  0.17273213128E+03 0.  0.
        -24    2    3    3    0    0  0.15948488931E+02  0.30173724868E+02  0.35503949919E+02  0.90851032883E+02  0.76345083302E+02 0.  0.
          6    2    1    2  501    0  0.29901605816E+01 -0.75350037701E+02 -0.17554220700E+04  0.17654862887E+04  0.17247788942E+03 0.  0.
         24    2    5    5    0    0  0.27062504837E+02 -0.10867050830E+03 -0.15403334295E+04  0.15464544535E+04  0.79703477447E+02 0.  0.
          5    1    5    5  501    0 -0.24072344256E+02  0.33320470597E+02 -0.21508864057E+03  0.21903183518E+03  0.47000000000E+01 0. -1.
        -11    1    6    6    0    0  0.46627631647E+02 -0.32419659559E+02 -0.77698628809E+03  0.77905895941E+03  0.00000000000E+00 0.  1.
         12    1    6    6    0    0 -0.19565126810E+02 -0.76250848738E+02 -0.76334714136E+03  0.76739549409E+03  0.00000000000E+00 0. -1.
         -5    1    3    3    0  503 -0.18938649513E+02  0.45176312833E+02 -0.94664343643E+02  0.10669114136E+03  0.47000000000E+01 0.  1.
         11    1    4    4    0    0  0.34128557164E+02 -0.12591654310E+02  0.94856571925E+01  0.37593694481E+02  0.00000000000E+00 0. -1.
        -12    1    4    4    0    0 -0.18180068233E+02  0.42765379179E+02  0.26018292727E+02  0.53257338402E+02  0.00000000000E+00 0.  1.
</event>
<event>
12    1  0.9966151E-001  0.1862520E+03  0.7818608E-02  0.1161972E+00
         21   -1    0    0  503  502  0.00000000000E+00  0.00000000000E+00  0.40803226372E+03  0.40803226372E+03  0.00000000000E+00 0. -1.
         21   -1    0    0  501  503 -0.00000000000E+00 -0.00000000000E+00 -0.94045031856E+02  0.94045031856E+02  0.00000000000E+00 0. -1.
          6    2    1    2  501    0 -0.53465476991E+02 -0.45379916355E+02  0.78341430228E+02  0.20171294226E+03  0.17214191049E+03 0.  0.
         24    2    3    3    0    0 -0.33231040024E+02 -0.87531399329E+01  0.11626297648E+03  0.14504648956E+03  0.79627162168E+02 0.  0.
         -6    2    1    2    0  502  0.53465476991E+02  0.45379916355E+02  0.23564580163E+03  0.30036435332E+03  0.17254537628E+03 0.  0.
        -24    2    5    5    0    0  0.49573700203E+02 -0.79730008664E+01  0.50442694238E+02  0.10753292255E+03  0.80608582267E+02 0.  0.
          5    1    3    3  501    0 -0.20234436967E+02 -0.36626776422E+02 -0.37921546255E+02  0.56666452693E+02  0.47000000000E+01 0. -1.
        -11    1    4    4    0    0 -0.11824278723E+02  0.21883081859E+02  0.21466037476E+01  0.24965791528E+02  0.00000000000E+00 0.  1.
         12    1    4    4    0    0 -0.21406761301E+02 -0.30636221792E+02  0.11411637273E+03  0.12008069804E+03  0.00000000000E+00 0. -1.
         -5    1    5    5    0  502  0.38917767884E+01  0.53352917222E+02  0.18520310740E+03  0.19283143077E+03  0.47000000000E+01 0.  1.
         11    1    6    6    0    0  0.63927261844E+02 -0.28221776565E+02  0.40707299817E+02  0.80871798160E+02  0.00000000000E+00 0. -1.
        -12    1    6    6    0    0 -0.14353561641E+02  0.20248775699E+02  0.97353944215E+01  0.26661124388E+02  0.00000000000E+00 0.  1.
</event>
<event>
12    1  0.9966151E-001  0.6650508E+03  0.7818608E-02  0.9779007E-01
         21   -1    0    0  501  502  0.00000000000E+00  0.00000000000E+00  0.13918630542E+04  0.13918630542E+04  0.00000000000E+00 0.  1.
         21   -1    0    0  502  503 -0.00000000000E+00 -0.00000000000E+00 -0.51004468663E+03  0.51004468663E+03  0.00000000000E+00 0. -1.
         -6    2    1    2    0  503  0.58114555958E+03 -0.27608524646E+03 -0.14303651189E+03  0.68025882981E+03  0.16834312301E+03 0.  0.
        -24    2    3    3    0    0  0.22860072078E+03 -0.12326928385E+03 -0.11276722595E+03  0.29479949153E+03  0.82077323761E+02 0.  0.
          6    2    1    2  501    0 -0.58114555958E+03  0.27608524646E+03  0.10248548795E+04  0.12216489111E+04  0.16776564941E+03 0.  0.
         24    2    5    5    0    0 -0.55068872342E+03  0.24684526213E+03  0.10047482806E+04  0.11746493273E+04  0.78046660683E+02 0.  0.
          5    1    5    5  501    0 -0.30456836158E+02  0.29239984327E+02  0.20106598880E+02  0.46999583729E+02  0.47000000000E+01 0. -1.
        -11    1    6    6    0    0 -0.28101422083E+03  0.16551394877E+03  0.56715212220E+03  0.65423649337E+03  0.00000000000E+00 0.  1.
         12    1    6    6    0    0 -0.26967450259E+03  0.81331313364E+02  0.43759615843E+03  0.52041283397E+03  0.00000000000E+00 0. -1.
         -5    1    3    3    0  503  0.35254483880E+03 -0.15281596261E+03 -0.30269285940E+02  0.38545933827E+03  0.47000000000E+01 0.  1.
         13    1    4    4    0    0  0.22017133995E+03 -0.10482671964E+03 -0.12182576056E+03  0.27259049144E+03  0.00000000000E+00 0. -1.
        -14    1    4    4    0    0  0.84293808305E+01 -0.18442564213E+02  0.90585346088E+01  0.22209000095E+02  0.00000000000E+00 0.  1.
</event>
<event>
12    1  0.9966151E-001  0.2165580E+03  0.7818608E-02  0.1137045E+00
         21   -1    0    0  503  502  0.00000000000E+00  0.00000000000E+00  0.13806124248E+04  0.13806124248E+04  0.00000000000E+00 0. -1.
         21   -1    0    0  501  503 -0.00000000000E+00 -0.00000000000E+00 -0.49333858543E+02  0.49333858543E+02  0.00000000000E+00 0. -1.
          6    2    1    2  501    0  0.10849728167E+03 -0.73769420118E+02  0.10675077976E+04  0.10886657993E+04  0.16854298316E+03 0.  0.
         24    2    3    3    0    0  0.74741660241E+02  0.23316123471E+02  0.57699959821E+03  0.58748177281E+03  0.77950879760E+02 0.  0.
         -6    2    1    2    0  502 -0.10849728167E+03  0.73769420118E+02  0.26377076863E+03  0.34128048401E+03  0.17228976437E+03 0.  0.
        -24    2    5    5    0    0 -0.13372657444E+03  0.93311274979E+02  0.19736711371E+03  0.26745679748E+03  0.77392313552E+02 0.  0.
          5    1    3    3  501    0  0.33755621429E+02 -0.97085543589E+02  0.49050819938E+03  0.50118402650E+03  0.47000000000E+01 0. -1.
        -11    1    4    4    0    0  0.77017211636E+02  0.56067354988E+01  0.54808805155E+03  0.55350121827E+03  0.00000000000E+00 0.  1.
         12    1    4    4    0    0 -0.22755513954E+01  0.17709387972E+02  0.28911546661E+02  0.33980554540E+02  0.00000000000E+00 0. -1.
         -5    1    5    5    0  502  0.25229292770E+02 -0.19541854862E+02  0.66403654920E+02  0.73823686523E+02  0.47000000000E+01 0.  1.
         13    1    6    6    0    0 -0.24429367058E+02  0.33031511836E+02  0.10327475776E+03  0.11114652644E+03  0.00000000000E+00 0. -1.
        -14    1    6    6    0    0 -0.10929720738E+03  0.60279763143E+02  0.94092355949E+02  0.15631027104E+03  0.00000000000E+00 0.  1.
</event>
<event>
12    1  0.9966151E-001  0.2065052E+03  0.7818608E-02  0.1144365E+00
         21   -1    0    0  503  502  0.00000000000E+00  0.00000000000E+00  0.22071017644E+03  0.22071017644E+03  0.00000000000E+00 0.  1.
         21   -1    0    0  501  503 -0.00000000000E+00 -0.00000000000E+00 -0.20440270425E+03  0.20440270425E+03  0.00000000000E+00 0.  1.
          6    2    1    2  501    0  0.11025050492E+03  0.29662913483E+02 -0.41592713622E+02  0.21064413023E+03  0.17206374838E+03 0.  0.
         24    2    3    3    0    0  0.81084430636E+02 -0.28659327872E+02 -0.73259222276E+02  0.13800115744E+03  0.79255055621E+02 0.  0.
         -6    2    1    2    0  502 -0.11025050492E+03 -0.29662913483E+02  0.57900185814E+02  0.21446875046E+03  0.17207367938E+03 0.  0.
        -24    2    5    5    0    0 -0.64037771353E+02  0.43642109423E+02  0.64225296559E+02  0.12745530234E+03  0.78195239644E+02 0.  0.
          5    1    3    3  501    0  0.29166074281E+02  0.58322241355E+02  0.31666508654E+02  0.72642972791E+02  0.47000000000E+01 0. -1.
        -13    1    4    4    0    0 -0.59193728191E+01 -0.21903591029E+01 -0.41038292429E+02  0.41520815178E+02  0.00000000000E+00 0.  1.
         14    1    4    4    0    0  0.87003803455E+02 -0.26468968769E+02 -0.32220929847E+02  0.96480342265E+02  0.00000000000E+00 0. -1.
         -5    1    5    5    0  502 -0.46212733565E+02 -0.73305022906E+02 -0.63251107445E+01  0.87013448114E+02  0.47000000000E+01 0.  1.
         11    1    6    6    0    0 -0.34786316074E+02 -0.13763480252E+02  0.48289453328E+02  0.61085124845E+02  0.00000000000E+00 0. -1.
        -12    1    6    6    0    0 -0.29251455279E+02  0.57405589675E+02  0.15935843231E+02  0.66370177500E+02  0.00000000000E+00 0.  1.
</event>
<event>
12    1  0.9966151E-001  0.2111067E+03  0.7818608E-02  0.1140850E+00
         21   -1    0    0  503  502  0.00000000000E+00  0.00000000000E+00  0.13754811481E+04  0.13754811481E+04  0.00000000000E+00 0.  1.
         21   -1    0    0  501  503 -0.00000000000E+00 -0.00000000000E+00 -0.32279143833E+02  0.32279143833E+02  0.00000000000E+00 0.  1.
          6    2    1    2  501    0  0.10618368072E+03  0.60054758224E+02  0.66533992710E+03  0.69778633604E+03  0.17130967321E+03 0.  0.
         24    2    3    3    0    0  0.46070373340E+02  0.40368533160E+02  0.59455880484E+03  0.60274311193E+03  0.77762386768E+02 0.  0.
         -6    2    1    2    0  502 -0.10618368072E+03 -0.60054758224E+02  0.67786207717E+03  0.70997395589E+03  0.17229182902E+03 0.  0.
        -24    2    5    5    0    0 -0.14091588504E+03 -0.30147325300E+02  0.55029670794E+03  0.57434286068E+03  0.79228195531E+02 0.  0.
          5    1    3    3  501    0  0.60113307377E+02  0.19686225065E+02  0.70781122258E+02  0.95043224110E+02  0.47000000000E+01 0. -1.
        -13    1    4    4    0    0 -0.19022178877E+02  0.39241607267E+01  0.61625387434E+02  0.64613703679E+02  0.00000000000E+00 0.  1.
         14    1    4    4    0    0  0.65092552217E+02  0.36444372433E+02  0.53293341741E+03  0.53812940825E+03  0.00000000000E+00 0. -1.
         -5    1    5    5    0  502  0.34732204326E+02 -0.29907432924E+02  0.12756536923E+03  0.13563109521E+03  0.47000000000E+01 0.  1.
         13    1    6    6    0    0 -0.59993975669E+02 -0.46527922608E+01  0.10486734816E+03  0.12090527822E+03  0.00000000000E+00 0. -1.
        -14    1    6    6    0    0 -0.80921909375E+02 -0.25494533040E+02  0.44542935978E+03  0.45343758246E+03  0.00000000000E+00 0.  1.
</event>
<event>
12    1  0.9966151E-001  0.1816912E+03  0.7818608E-02  0.1166590E+00
         21   -1    0    0  501  502  0.00000000000E+00  0.00000000000E+00  0.65055163497E+03  0.65055163497E+03  0.00000000000E+00 0. -1.
         21   -1    0    0  502  503 -0.00000000000E+00 -0.00000000000E+00 -0.10478952701E+03  0.10478952701E+03  0.00000000000E+00 0. -1.
         -6    2    1    2    0  503  0.52798346959E+02  0.15792584326E+02 -0.16986571119E+00  0.17996874022E+03  0.17132322505E+03 0.  0.
        -24    2    3    3    0    0  0.43320258273E+02  0.43817752734E+02  0.57403492918E+02  0.11506861809E+03  0.78415468102E+02 0.  0.
          6    2    1    2  501    0 -0.52798346959E+02 -0.15792584326E+02  0.54593197367E+03  0.57537242176E+03  0.17313183613E+03 0.  0.
         24    2    5    5    0    0  0.23870139879E+01 -0.89936072480E+01  0.11450616350E+03  0.14035291664E+03  0.80626899497E+02 0.  0.
          5    1    5    5  501    0 -0.55185360947E+02 -0.67989770783E+01  0.43142581017E+03  0.43501950512E+03  0.47000000000E+01 0. -1.
        -13    1    6    6    0    0  0.24834070250E+02 -0.18575161325E+02  0.11153500024E+03  0.11576624699E+03  0.00000000000E+00 0.  1.
         14    1    6    6    0    0 -0.22447056262E+02  0.95815540768E+01  0.29711632595E+01  0.24586669650E+02  0.00000000000E+00 0. -1.
         -5    1    3    3    0  503  0.94780886867E+01 -0.28025168408E+02 -0.57573358629E+02  0.64900122136E+02  0.47000000000E+01 0.  1.
         13    1    4    4    0    0  0.97533975438E+01 -0.22899448443E+02  0.11638892482E+02  0.27476850636E+02  0.00000000000E+00 0. -1.
        -14    1    4    4    0    0  0.33566860729E+02  0.66717201177E+02  0.45764600435E+02  0.87591767451E+02  0.00000000000E+00 0.  1.
</event>
<event>
12    1  0.9966151E-001  0.3371549E+03  0.7818608E-02  0.1068017E+00
         21   -1    0    0  501  502  0.00000000000E+00  0.00000000000E+00  0.97892193715E+02  0.97892193715E+02  0.00000000000E+00 0.  1.
         21   -1    0    0  502  503 -0.00000000000E+00 -0.00000000000E+00 -0.19646095416E+04  0.19646095416E+04  0.00000000000E+00 0.  1.
         -6    2    1    2    0  503  0.24905643423E+03  0.14889632629E+03 -0.15928418563E+04  0.16281272473E+04  0.17162147482E+03 0.  0.
        -24    2    3    3    0    0  0.14366680554E+03  0.88147962512E+02 -0.12582976191E+04  0.12721226487E+04  0.81073551862E+02 0.  0.
          6    2    1    2  501    0 -0.24905643423E+03 -0.14889632629E+03 -0.27387549160E+03  0.43437448809E+03  0.17168048111E+03 0.  0.
         24    2    5    5    0    0 -0.11194119869E+03 -0.15067926198E+02 -0.71605739112E+02  0.15572458004E+03  0.79780251878E+02 0.  0.
          5    1    5    5  501    0 -0.13711523554E+03 -0.13382840009E+03 -0.20226975249E+03  0.27864990806E+03  0.47000000000E+01 0. -1.
        -13    1    6    6    0    0 -0.33515890081E+02 -0.28536224318E+02 -0.61328149788E+02  0.75490217530E+02  0.00000000000E+00 0.  1.
         14    1    6    6    0    0 -0.78425308607E+02  0.13468298120E+02 -0.10277589324E+02  0.80234362506E+02  0.00000000000E+00 0. -1.
         -5    1    3    3    0  503  0.10538962869E+03  0.60748363775E+02 -0.33454423725E+03  0.35600459859E+03  0.47000000000E+01 0.  1.
         13    1    4    4    0    0  0.21354052745E+02  0.51557285937E+02 -0.27792200558E+03  0.28346920553E+03  0.00000000000E+00 0. -1.
        -14    1    4    4    0    0  0.12231275280E+03  0.36590676575E+02 -0.98037561348E+03  0.98865344314E+03  0.00000000000E+00 0.  1.
</event>
<event>
12    1  0.9966151E-001  0.1918118E+03  0.7818608E-02  0.1156848E+00
         21   -1    0    0  501  502  0.00000000000E+00  0.00000000000E+00  0.56079261408E+02  0.56079261408E+02  0.00000000000E+00 0.  1.
         21   -1    0    0  502  503 -0.00000000000E+00 -0.00000000000E+00 -0.15223685392E+04  0.15223685392E+04  0.00000000000E+00 0.  1.
         -6    2    1    2    0  503 -0.81235754509E+02  0.26275941943E+02 -0.13777507466E+03  0.23616467605E+03  0.17176178295E+03 0.  0.
        -24    2    3    3    0    0 -0.12073582035E+03  0.31747816894E+02 -0.89860078033E+02  0.17364960972E+03  0.80587164854E+02 0.  0.
          6    2    1    2  501    0  0.81235754509E+02 -0.26275941943E+02 -0.13285142031E+04  0.13422831245E+04  0.17171000437E+03 0.  0.
         24    2    5    5    0    0  0.29288108471E+02 -0.73647143539E+01 -0.27853754232E+03  0.29084160421E+03  0.78061795654E+02 0.  0.
          5    1    5    5  501    0  0.51947646037E+02 -0.18911227589E+02 -0.10499766608E+04  0.10514415203E+04  0.47000000000E+01 0. -1.
        -11    1    6    6    0    0  0.40665426448E+02  0.25411977775E+02 -0.18374619962E+03  0.18990026698E+03  0.00000000000E+00 0.  1.
         12    1    6    6    0    0 -0.11377317976E+02 -0.32776692128E+02 -0.94791342696E+02  0.10094133723E+03  0.00000000000E+00 0. -1.
         -5    1    3    3    0  503  0.39500065841E+02 -0.54718749508E+01 -0.47914996624E+02  0.62515066332E+02  0.47000000000E+01 0.  1.
         11    1    4    4    0    0 -0.86570297614E+02  0.53560795413E+02 -0.39963194684E+02  0.10936284636E+03  0.00000000000E+00 0. -1.
        -12    1    4    4    0    0 -0.34165522736E+02 -0.21812978519E+02 -0.49896883349E+02  0.64286763363E+02  0.00000000000E+00 0.  1.
</event>
<event>
12    1  0.9966151E-001  0.2712044E+03  0.7818608E-02  0.1100670E+00
         21   -1    0    0  501  502  0.00000000000E+00  0.00000000000E+00  0.31323036735E+03  0.31323036735E+03  0.00000000000E+00 0.  1.
         21   -1    0    0  502  503 -0.00000000000E+00 -0.00000000000E+00 -0.23711551329E+03  0.23711551329E+03  0.00000000000E+00 0.  1.
         -6    2    1    2    0  503  0.18652235896E+03  0.95523751346E+02  0.67845314264E+02  0.27956179579E+03  0.17215235559E+03 0.  0.
        -24    2    3    3    0    0  0.62702424910E+02  0.71059674797E+02 -0.21590063378E+02  0.12480184010E+03  0.78283440042E+02 0.  0.
          6    2    1    2  501    0 -0.18652235896E+03 -0.95523751346E+02  0.82695397893E+01  0.27078408485E+03  0.17128998178E+03 0.  0.
         24    2    5    5    0    0 -0.80118877487E+02  0.18641855291E+02 -0.29811532637E+00  0.11441598925E+03  0.79525948122E+02 0.  0.
          5    1    5    5  501    0 -0.10640348147E+03 -0.11416560664E+03  0.85676551157E+01  0.15636809560E+03  0.47000000000E+01 0. -1.
        -13    1    6    6    0    0  0.14039651289E+02  0.54312204824E+01  0.11031086973E+02  0.18662659083E+02  0.00000000000E+00 0.  1.
         14    1    6    6    0    0 -0.94158528776E+02  0.13210634809E+02 -0.11329202299E+02  0.95753330167E+02  0.00000000000E+00 0. -1.
         -5    1    3    3    0  503  0.12381993405E+03  0.24464076550E+02  0.89435377643E+02  0.15475995568E+03  0.47000000000E+01 0.  1.
         11    1    4    4    0    0  0.47666066606E+02  0.73399087176E+02  0.11605496610E+02  0.88284582208E+02  0.00000000000E+00 0. -1.
        -12    1    4    4    0    0  0.15036358304E+02 -0.23394123797E+01 -0.33195559988E+02  0.36517257896E+02  0.00000000000E+00 0.  1.
</event>
<event>
12    1  0.9966151E-001  0.1882537E+03  0.7818608E-02  0.1160224E+00
         21   -1    0    0  503  502  0.00000000000E+00  0.00000000000E+00  0.25853974420E+03  0.25853974420E+03  0.00000000000E+00 0. -1.
         21   -1    0    0  501  503 -0.00000000000E+00 -0.00000000000E+00 -0.22367904495E+03  0.22367904495E+03  0.00000000000E+00 0. -1.
          6    2    1    2  501    0 -0.77983786474E+02 -0.10307000633E+02  0.16796929759E+03  0.25229571555E+03  0.17103139460E+03 0.  0.
         24    2    3    3    0    0 -0.21180609145E+02 -0.37588407476E+02  0.16561987577E+03  0.18906213352E+03  0.80330819110E+02 0.  0.
         -6    2    1    2    0  502  0.77983786474E+02  0.10307000633E+02 -0.13310859833E+03  0.22992307359E+03  0.17017348679E+03 0.  0.
        -24    2    5    5    0    0  0.82533127072E+02  0.44564253904E+02 -0.38138867995E+02  0.12875195330E+03  0.79528626519E+02 0.  0.
          5    1    3    3  501    0 -0.56803177329E+02  0.27281406843E+02  0.23494218119E+01  0.63233582034E+02  0.47000000000E+01 0. -1.
        -13    1    4    4    0    0 -0.22447218401E+02 -0.49029564567E+02  0.52170389566E+02  0.75030163022E+02  0.00000000000E+00 0.  1.
         14    1    4    4    0    0  0.12666092564E+01  0.11441157091E+02  0.11344948621E+03  0.11403197050E+03  0.00000000000E+00 0. -1.
         -5    1    5    5    0  502 -0.45493405978E+01 -0.34257253271E+02 -0.94969730337E+02  0.10117112030E+03  0.47000000000E+01 0.  1.
         11    1    6    6    0    0  0.61746843637E+02  0.16364610879E+02  0.14516598899E+02  0.65507288388E+02  0.00000000000E+00 0. -1.
        -12    1    6    6    0    0  0.20786283435E+02  0.28199643025E+02 -0.52655466895E+02  0.63244664911E+02  0.00000000000E+00 0.  1.
</event>
<event>
12    1  0.9966151E-001  0.1912275E+03  0.7818608E-02  0.1157714E+00
         21   -1    0    0  503  502  0.00000000000E+00  0.00000000000E+00  0.57481972669E+03  0.57481972669E+03  0.00000000000E+00 0. -1.
         21   -1    0    0  501  503 -0.00000000000E+00 -0.00000000000E+00 -0.64136246082E+02  0.64136246082E+02  0.00000000000E+00 0. -1.
          6    2    1    2  501    0  0.30052626199E+01 -0.78934955198E+02  0.29716318077E+03  0.35337500446E+03  0.17414987515E+03 0.  0.
         24    2    3    3    0    0  0.24698653668E+02 -0.16588565875E+02  0.50728845268E+02  0.98209083553E+02  0.78653698828E+02 0.  0.
         -6    2    1    2    0  502 -0.30052626199E+01  0.78934955198E+02  0.21352029984E+03  0.28558096832E+03  0.17241175211E+03 0.  0.
        -24    2    5    5    0    0  0.44788235683E+02  0.15355325302E+01  0.14611885791E+03  0.17226753803E+03  0.79479809420E+02 0.  0.
          5    1    3    3  501    0 -0.21693391048E+02 -0.62346389323E+02  0.24643433550E+03  0.25516592090E+03  0.47000000000E+01 0. -1.
        -11    1    4    4    0    0  0.77558017988E-01 -0.35010361125E+02  0.56935974368E+02  0.66838885229E+02  0.00000000000E+00 0.  1.
         12    1    4    4    0    0  0.24621095650E+02  0.18421795250E+02 -0.62071291006E+01  0.31370198324E+02  0.00000000000E+00 0. -1.
         -5    1    5    5    0  502 -0.47793498303E+02  0.77399422668E+02  0.67401441930E+02  0.11331343029E+03  0.47000000000E+01 0.  1.
         13    1    6    6    0    0  0.47267448597E+02 -0.11951053888E+02  0.15023696957E+03  0.15794994907E+03  0.00000000000E+00 0. -1.
        -14    1    6    6    0    0 -0.24792129145E+01  0.13486586418E+02 -0.41181116601E+01  0.14317588956E+02  0.00000000000E+00 0.  1.
</event>
<event>
12    1  0.9966151E-001  0.1848745E+03  0.7818608E-02  0.1163275E+00
         21   -1    0    0  501  502  0.00000000000E+00  0.00000000000E+00  0.32701243082E+03  0.32701243082E+03  0.00000000000E+00 0.  1.
         21   -1    0    0  502  503 -0.00000000000E+00 -0.00000000000E+00 -0.10465195447E+03  0.10465195447E+03  0.00000000000E+00 0.  1.
         -6    2    1    2    0  503  0.62561822094E+02 -0.26611576075E+02  0.97793818968E+02  0.20873966746E+03  0.17142479453E+03 0.  0.
        -24    2    3    3    0    0  0.55858634124E+02 -0.50099402034E+02  0.12843622907E+03  0.16927249130E+03  0.80790929462E+02 0.  0.
          6    2    1    2  501    0 -0.62561822094E+02  0.26611576075E+02  0.12456665738E+03  0.22292471783E+03  0.17191980725E+03 0.  0.
         24    2    5    5    0    0 -0.34347306171E+02  0.15538568562E+02  0.15568865952E+03  0.17922872921E+03  0.80391505261E+02 0.  0.
          5    1    5    5  501    0 -0.28214515923E+02  0.11073007514E+02 -0.31122002139E+02  0.43695988618E+02  0.47000000000E+01 0. -1.
        -13    1    6    6    0    0  0.26385133923E+02  0.80197529059E+01  0.50076960866E+02  0.57168118199E+02  0.00000000000E+00 0.  1.
         14    1    6    6    0    0 -0.60732440094E+02  0.75188156558E+01  0.10561169865E+03  0.12206061101E+03  0.00000000000E+00 0. -1.
         -5    1    3    3    0  503  0.67031879694E+01  0.23487825959E+02 -0.30642410104E+02  0.39467176162E+02  0.47000000000E+01 0.  1.
         13    1    4    4    0    0  0.48146367374E+02  0.67097311399E+01  0.82720021373E+02  0.95946313734E+02  0.00000000000E+00 0. -1.
        -14    1    4    4    0    0  0.77122667498E+01 -0.56809133174E+02  0.45716207699E+02  0.73326177569E+02  0.00000000000E+00 0.  1.
</event>
<event>
12    1  0.9966151E-001  0.3985373E+03  0.7818608E-02  0.1044301E+00
         21   -1    0    0  501  502  0.00000000000E+00  0.00000000000E+00  0.28825291452E+04  0.28825291452E+04  0.00000000000E+00 0. -1.
         21   -1    0    0  502  503 -0.00000000000E+00 -0.00000000000E+00 -0.59226401957E+02  0.59226401957E+02  0.00000000000E+00 0. -1.
         -6    2    1    2    0  503  0.28872231187E+03  0.21386643605E+03  0.10227337630E+04  0.10976412587E+04  0.17243131038E+03 0.  0.
        -24    2    3    3    0    0  0.12008638603E+03  0.16373513016E+03  0.65518047327E+03  0.69012594099E+03  0.76042283684E+02 0.  0.
          6    2    1    2  501    0 -0.28872231187E+03 -0.21386643605E+03  0.18005689802E+04  0.18441142885E+04  0.17207391071E+03 0.  0.
         24    2    5    5    0    0 -0.16528745025E+03 -0.11646056157E+03  0.71971656875E+03  0.75187434472E+03  0.80250154542E+02 0.  0.
          5    1    5    5  501    0 -0.12343486162E+03 -0.97405874480E+02  0.10808524115E+04  0.10922399438E+04  0.47000000000E+01 0. -1.
        -13    1    6    6    0    0 -0.64560071921E+01  0.10675565822E+02  0.24396286359E+02  0.27401213889E+02  0.00000000000E+00 0.  1.
         14    1    6    6    0    0 -0.15883144306E+03 -0.12713612739E+03  0.69532028239E+03  0.72447313083E+03  0.00000000000E+00 0. -1.
         -5    1    3    3    0  503  0.16863592584E+03  0.50131305887E+02  0.36755328977E+03  0.40751531767E+03  0.47000000000E+01 0.  1.
         13    1    4    4    0    0  0.12403495357E+03  0.15649864760E+03  0.55907783619E+03  0.59367038273E+03  0.00000000000E+00 0. -1.
        -14    1    4    4    0    0 -0.39485675363E+01  0.72364825604E+01  0.96102637075E+02  0.96455558254E+02  0.00000000000E+00 0.  1.
</event>
<event>
12    1  0.9966151E-001  0.2333499E+03  0.7818608E-02  0.1125705E+00
         21   -1    0    0  501  502  0.00000000000E+00  0.00000000000E+00  0.26892584301E+03  0.26892584301E+03  0.00000000000E+00 0.  1.
         21   -1    0    0  502  503 -0.00000000000E+00 -0.00000000000E+00 -0.20844548684E+03  0.20844548684E+03  0.00000000000E+00 0.  1.
         -6    2    1    2    0  503  0.53535523663E+02 -0.14827220009E+03 -0.29429751737E+02  0.22729928713E+03  0.16108431962E+03 0.  0.
        -24    2    3    3    0    0  0.36993858020E+01 -0.16274384474E+02 -0.26273349702E+02  0.86093349443E+02  0.80269763101E+02 0.  0.
          6    2    1    2  501    0 -0.53535523663E+02  0.14827220009E+03  0.89910107911E+02  0.25007204272E+03  0.17205086874E+03 0.  0.
         24    2    5    5    0    0  0.12401335267E+02  0.10753267972E+03  0.10608849374E+03  0.17075490678E+03  0.78647309956E+02 0.  0.
          5    1    5    5  501    0 -0.65936858930E+02  0.40739520369E+02 -0.16178385824E+02  0.79317135938E+02  0.47000000000E+01 0. -1.
        -11    1    6    6    0    0  0.27803476700E+02  0.12917362753E+02  0.43421447087E+01  0.30963620553E+02  0.00000000000E+00 0.  1.
         12    1    6    6    0    0 -0.15402141433E+02  0.94615316967E+02  0.10174634903E+03  0.13979128623E+03  0.00000000000E+00 0. -1.
         -5    1    3    3    0  503  0.49836137861E+02 -0.13199781561E+03 -0.31564020341E+01  0.14120593769E+03  0.47000000000E+01 0.  1.
         11    1    4    4    0    0  0.15977321762E+02 -0.13506692025E+02  0.25401364873E+02  0.32907975896E+02  0.00000000000E+00 0. -1.
        -12    1    4    4    0    0 -0.12277935960E+02 -0.27676924490E+01 -0.51674714575E+02  0.53185373547E+02  0.00000000000E+00 0.  1.
</event>
<event>
12    1  0.9966151E-001  0.2128478E+03  0.7818608E-02  0.1139435E+00
         21   -1    0    0  503  502  0.00000000000E+00  0.00000000000E+00  0.55620719731E+02  0.55620719731E+02  0.00000000000E+00 0.  1.
         21   -1    0    0  501  503 -0.00000000000E+00 -0.00000000000E+00 -0.81303056566E+03  0.81303056566E+03  0.00000000000E+00 0.  1.
          6    2    1    2  501    0  0.11274013627E+03  0.54411339381E+02 -0.36683312617E+03  0.42384303370E+03  0.17148015213E+03 0.  0.
         24    2    3    3    0    0  0.35979505489E+02 -0.28074396972E+02 -0.19807446334E+03  0.22087094837E+03  0.86416353930E+02 0.  0.
         -6    2    1    2    0  502 -0.11274013627E+03 -0.54411339381E+02 -0.39057671975E+03  0.44480825169E+03  0.17214318046E+03 0.  0.
        -24    2    5    5    0    0 -0.30617461367E+02  0.20978235423E+02 -0.24684078715E+03  0.26284718431E+03  0.82345326493E+02 0.  0.
          5    1    3    3  501    0  0.76760630782E+02  0.82485736353E+02 -0.16875866283E+03  0.20297208532E+03  0.47000000000E+01 0. -1.
        -11    1    4    4    0    0 -0.28012333791E+02 -0.11265548360E+02 -0.45955881534E+02  0.54986784520E+02  0.00000000000E+00 0.  1.
         12    1    4    4    0    0  0.63991839281E+02 -0.16808848613E+02 -0.15211858181E+03  0.16588416385E+03  0.00000000000E+00 0. -1.
         -5    1    5    5    0  502 -0.82122674904E+02 -0.75389574804E+02 -0.14373593260E+03  0.18196106739E+03  0.47000000000E+01 0.  1.
         13    1    6    6    0    0 -0.57701831736E+02  0.22965346693E+02 -0.15208264425E+03  0.16427428044E+03  0.00000000000E+00 0. -1.
        -14    1    6    6    0    0  0.27084370368E+02 -0.19871112700E+01 -0.94758142904E+02  0.98572903863E+02  0.00000000000E+00 0.  1.
</event>
<event>
12    1  0.9966151E-001  0.5121509E+03  0.7818608E-02  0.1010664E+00
         21   -1    0    0  501  502  0.00000000000E+00  0.00000000000E+00  0.40753179303E+03  0.40753179303E+03  0.00000000000E+00 0. -1.
         21   -1    0    0  502  503 -0.00000000000E+00 -0.00000000000E+00 -0.73976459981E+03  0.73976459981E+03  0.00000000000E+00 0. -1.
         -6    2    1    2    0  503 -0.47068949110E+03  0.10614421568E+03 -0.37312903946E+03  0.63365908462E+03  0.17170720393E+03 0.  0.
        -24    2    3    3    0    0 -0.46907204591E+03  0.79718389678E+02 -0.36670901949E+03  0.60601406580E+03  0.79962097693E+02 0.  0.
          6    2    1    2  501    0  0.47068949110E+03 -0.10614421568E+03  0.40896232681E+02  0.51363730823E+03  0.17127635857E+03 0.  0.
         24    2    5    5    0    0  0.39565052938E+03 -0.73575552869E+02 -0.21215479466E+02  0.41081941894E+03  0.79810995641E+02 0.  0.
          5    1    5    5  501    0  0.75038961713E+02 -0.32568662814E+02  0.62111712148E+02  0.10281788929E+03  0.47000000000E+01 0. -1.
        -11    1    6    6    0    0  0.20029502121E+03 -0.56181545461E+00 -0.27475312015E+02  0.20217147160E+03  0.00000000000E+00 0.  1.
         12    1    6    6    0    0  0.19535550818E+03 -0.73013737414E+02  0.62598325484E+01  0.20864794734E+03  0.00000000000E+00 0. -1.
         -5    1    3    3    0  503 -0.16174451828E+01  0.26425826004E+02 -0.64200199746E+01  0.27645018817E+02  0.47000000000E+01 0.  1.
         13    1    4    4    0    0 -0.39271919270E+03  0.45826940627E+02 -0.32898870493E+03  0.51435594754E+03  0.00000000000E+00 0. -1.
        -14    1    4    4    0    0 -0.76352853210E+02  0.33891449052E+02 -0.37720314559E+02  0.91658118258E+02  0.00000000000E+00 0.  1.
</event>
<event>
12    1  0.9966151E-001  0.4060849E+03  0.7818608E-02  0.1041705E+00
         21   -1    0    0  501  502  0.00000000000E+00  0.00000000000E+00  0.13033366690E+04  0.13033366690E+04  0.00000000000E+00 0. -1.
         21   -1    0    0  502  503 -0.00000000000E+00 -0.00000000000E+00 -0.23515138786E+03  0.23515138786E+03  0.00000000000E+00 0.  1.
         -6    2    1    2    0  503 -0.14496042561E+02  0.36759478745E+03  0.10569750628E+04  0.11322484683E+04  0.17162239852E+03 0.  0.
        -24    2    3    3    0    0 -0.74610150256E+02  0.20894542242E+03  0.64330398160E+03  0.68511405858E+03  0.79475760186E+02 0.  0.
          6    2    1    2  501    0  0.14496042561E+02 -0.36759478745E+03  0.11210218357E+02  0.40623958853E+03  0.17195601554E+03 0.  0.
         24    2    5    5    0    0 -0.57620632140E+02 -0.23114796926E+03  0.12385080850E+01  0.25151378599E+03  0.80672979991E+02 0.  0.
          5    1    5    5  501    0  0.72116674702E+02 -0.13644681819E+03  0.99717102717E+01  0.15472580253E+03  0.47000000000E+01 0. -1.
        -11    1    6    6    0    0 -0.15458129985E+02 -0.11022261571E+03  0.39099890602E+02  0.11796940384E+03  0.00000000000E+00 0.  1.
         12    1    6    6    0    0 -0.42162502155E+02 -0.12092535355E+03 -0.37861382517E+02  0.13354438215E+03  0.00000000000E+00 0. -1.
         -5    1    3    3    0  503  0.60114107694E+02  0.15864936503E+03  0.41367108120E+03  0.44713440975E+03  0.47000000000E+01 0.  1.
         11    1    4    4    0    0  0.55063911662E+00  0.93635422344E+00 -0.23715675437E+01  0.26085044150E+01  0.00000000000E+00 0. -1.
        -12    1    4    4    0    0 -0.75160789372E+02  0.20800906819E+03  0.64567554914E+03  0.68250555417E+03  0.00000000000E+00 0.  1.
</event>
<event>
12    1  0.9966151E-001  0.1777254E+03  0.7818608E-02  0.1170078E+00
         21   -1    0    0  503  502  0.00000000000E+00  0.00000000000E+00  0.14846621424E+03  0.14846621424E+03  0.00000000000E+00 0.  1.
         21   -1    0    0  501  503 -0.00000000000E+00 -0.00000000000E+00 -0.32194053072E+03  0.32194053072E+03  0.00000000000E+00 0.  1.
          6    2    1    2  501    0  0.19759657400E+02  0.48674990114E+02 -0.22391702247E+03  0.28587609957E+03  0.16978401759E+03 0.  0.
         24    2    3    3    0    0 -0.31546970463E+02 -0.49404043377E+01 -0.18058220645E+03  0.19981230425E+03  0.79343586398E+02 0.  0.
         -6    2    1    2    0  502 -0.19759657400E+02 -0.48674990114E+02  0.50442705990E+02  0.18453064540E+03  0.16955056408E+03 0.  0.
        -24    2    5    5    0    0 -0.20833433873E+02 -0.23417439829E+02  0.98840202219E+02  0.12972640757E+03  0.77956056804E+02 0.  0.
          5    1    3    3  501    0  0.51306627863E+02  0.53615394451E+02 -0.43334816018E+02  0.86063795316E+02  0.47000000000E+01 0. -1.
        -13    1    4    4    0    0 -0.48913034659E+02  0.19980991013E+02 -0.91080554380E+02  0.10529668726E+03  0.00000000000E+00 0.  1.
         14    1    4    4    0    0  0.17366064196E+02 -0.24921395351E+02 -0.89501652070E+02  0.94515616991E+02  0.00000000000E+00 0. -1.
         -5    1    5    5    0  502  0.10737764723E+01 -0.25257550285E+02 -0.48397496228E+02  0.54804237824E+02  0.47000000000E+01 0.  1.
         11    1    6    6    0    0 -0.21324945626E+02 -0.19616370791E+02 -0.17833301122E+01  0.29029908289E+02  0.00000000000E+00 0. -1.
        -12    1    6    6    0    0  0.49151175326E+00 -0.38010690381E+01  0.10062353233E+03  0.10069649929E+03  0.00000000000E+00 0.  1.
</event>
<event>
12    1  0.9966151E-001  0.2980619E+03  0.7818608E-02  0.1086497E+00
         21   -1    0    0  503  502  0.00000000000E+00  0.00000000000E+00  0.21717738435E+03  0.21717738435E+03  0.00000000000E+00 0. -1.
         21   -1    0    0  501  503 -0.00000000000E+00 -0.00000000000E+00 -0.44393573479E+03  0.44393573479E+03  0.00000000000E+00 0. -1.
          6    2    1    2  501    0 -0.24202577574E+03  0.29612259966E+02 -0.16367093835E+02  0.29627700992E+03  0.16750767977E+03 0.  0.
         24    2    3    3    0    0 -0.24166565762E+03 -0.10274284990E+02 -0.17296193319E+02  0.25610214987E+03  0.82348660363E+02 0.  0.
         -6    2    1    2    0  502  0.24202577574E+03 -0.29612259966E+02 -0.21039125660E+03  0.36483610922E+03  0.17142795476E+03 0.  0.
        -24    2    5    5    0    0  0.10836035382E+03 -0.18106966116E+02 -0.18328287309E+03  0.22788439781E+03  0.79176124510E+02 0.  0.
          5    1    3    3  501    0 -0.36011812409E+00  0.39886544956E+02  0.92909948390E+00  0.40174860042E+02  0.47000000000E+01 0. -1.
        -13    1    4    4    0    0 -0.13593367750E+03  0.25930325245E+02  0.16451230062E+02  0.13935921002E+03  0.00000000000E+00 0.  1.
         14    1    4    4    0    0 -0.10573198012E+03 -0.36204610235E+02 -0.33747423381E+02  0.11674293986E+03  0.00000000000E+00 0. -1.
         -5    1    5    5    0  502  0.13366542192E+03 -0.11505293850E+02 -0.27108383508E+02  0.13695171141E+03  0.47000000000E+01 0.  1.
         13    1    6    6    0    0  0.22594715904E+02 -0.27706178634E+02 -0.15015553591E+02  0.38776544081E+02  0.00000000000E+00 0. -1.
        -14    1    6    6    0    0  0.85765637921E+02  0.95992125177E+01 -0.16826731950E+03  0.18910785373E+03  0.00000000000E+00 0.  1.
</event>
<event>
12    1  0.9966151E-001  0.3110591E+03  0.7818608E-02  0.1079885E+00
         21   -1    0    0  503  502  0.00000000000E+00  0.00000000000E+00  0.75103604787E+02  0.75103604787E+02  0.00000000000E+00 0. -1.
         21   -1    0    0  501  503 -0.00000000000E+00 -0.00000000000E+00 -0.14258120721E+04  0.14258120721E+04  0.00000000000E+00 0. -1.
          6    2    1    2  501    0  0.25886786500E+03 -0.19962234009E+02 -0.90935637374E+03  0.96096248776E+03  0.17061308892E+03 0.  0.
         24    2    3    3    0    0  0.10380839834E+03 -0.67018078988E+02 -0.40945304648E+03  0.43543121624E+03  0.81737019294E+02 0.  0.
         -6    2    1    2    0  502 -0.25886786500E+03  0.19962234009E+02 -0.44135209354E+03  0.53995318909E+03  0.17130882528E+03 0.  0.
        -24    2    5    5    0    0 -0.24218129131E+03 -0.27408733523E+02 -0.32817129548E+03  0.41604018188E+03  0.77395201580E+02 0.  0.
          5    1    3    3  501    0  0.15505946667E+03  0.47055844980E+02 -0.49990332726E+03  0.52553127153E+03  0.47000000000E+01 0. -1.
        -13    1    4    4    0    0  0.10774988105E+03 -0.34087858694E+02 -0.34341919376E+03  0.36153666705E+03  0.00000000000E+00 0.  1.
         14    1    4    4    0    0 -0.39414827126E+01 -0.32930220294E+02 -0.66033852720E+02  0.73894549188E+02  0.00000000000E+00 0. -1.
         -5    1    5    5    0  502 -0.16686573696E+02  0.47370967532E+02 -0.11318079806E+03  0.12391300721E+03  0.47000000000E+01 0.  1.
         11    1    6    6    0    0 -0.76567387889E+02  0.27113063942E+02 -0.98021834480E+02  0.12730264396E+03  0.00000000000E+00 0. -1.
        -12    1    6    6    0    0 -0.16561390342E+03 -0.54521797465E+02 -0.23014946100E+03  0.28873753792E+03  0.00000000000E+00 0.  1.
</event>
<event>
12    1  0.9966151E-001  0.2547062E+03  0.7818608E-02  0.1110383E+00
         21   -1    0    0  501  502  0.00000000000E+00  0.00000000000E+00  0.31611068916E+03  0.31611068916E+03  0.00000000000E+00 0.  1.
         21   -1    0    0  502  503 -0.00000000000E+00 -0.00000000000E+00 -0.24864547939E+03  0.24864547939E+03  0.00000000000E+00 0.  1.
         -6    2    1    2    0  503 -0.10607651338E+03 -0.15479938988E+03 -0.84376724656E+02  0.26831825248E+03  0.17222129703E+03 0.  0.
        -24    2    3    3    0    0  0.54981772471E+01 -0.99410945940E+02 -0.28262573537E+02  0.13161536565E+03  0.81308457659E+02 0.  0.
          6    2    1    2  501    0  0.10607651338E+03  0.15479938988E+03  0.15184193443E+03  0.29643791607E+03  0.17205925500E+03 0.  0.
         24    2    5    5    0    0  0.96359025329E+02  0.63758008285E+02  0.15057045218E+03  0.20475002480E+03  0.76817746684E+02 0.  0.
          5    1    5    5  501    0  0.97174880530E+01  0.91041381599E+02  0.12714822544E+01  0.91687891265E+02  0.47000000000E+01 0. -1.
        -11    1    6    6    0    0  0.96211677027E+02  0.34245957613E+02  0.85095895327E+02  0.13293150045E+03  0.00000000000E+00 0.  1.
         12    1    6    6    0    0  0.14734830220E+00  0.29512050672E+02  0.65474556848E+02  0.71818524357E+02  0.00000000000E+00 0. -1.
         -5    1    3    3    0  503 -0.11157469063E+03 -0.55388443944E+02 -0.56114151119E+02  0.13670288683E+03  0.47000000000E+01 0.  1.
         13    1    4    4    0    0  0.28143451698E+01 -0.10602066984E+03 -0.43623159553E+02  0.11467904352E+03  0.00000000000E+00 0. -1.
        -14    1    4    4    0    0  0.26838320773E+01  0.66097239022E+01  0.15360586016E+02  0.16936322135E+02  0.00000000000E+00 0.  1.
</event>
<event>
12    1  0.9966151E-001  0.1845513E+03  0.7818608E-02  0.1163914E+00
         21   -1    0    0  501  502  0.00000000000E+00  0.00000000000E+00  0.68631717919E+02  0.68631717919E+02  0.00000000000E+00 0.  1.
         21   -1    0    0  502  503 -0.00000000000E+00 -0.00000000000E+00 -0.69443217513E+03  0.69443217513E+03  0.00000000000E+00 0.  1.
         -6    2    1    2    0  503  0.30418655097E+02 -0.50838786639E+02 -0.10536082332E+03  0.21087135429E+03  0.17278873853E+03 0.  0.
        -24    2    3    3    0    0  0.11415084332E+02  0.92565411335E+01  0.14283985947E+02  0.75558551839E+02  0.72726025585E+02 0.  0.
          6    2    1    2  501    0 -0.30418655097E+02  0.50838786639E+02 -0.52043963388E+03  0.55219253876E+03  0.17478361060E+03 0.  0.
         24    2    5    5    0    0 -0.62677840255E+02 -0.80113366618E+01 -0.41546843734E+03  0.42751281249E+03  0.78488784143E+02 0.  0.
          5    1    5    5  501    0  0.32259185157E+02  0.58850123301E+02 -0.10497119654E+03  0.12467972627E+03  0.47000000000E+01 0. -1.
        -13    1    6    6    0    0 -0.48929100808E+02 -0.16547849913E+02 -0.10901460800E+03  0.12063197338E+03  0.00000000000E+00 0.  1.
         14    1    6    6    0    0 -0.13748739447E+02  0.85365132515E+01 -0.30645382934E+03  0.30688083911E+03  0.00000000000E+00 0. -1.
         -5    1    3    3    0  503  0.19003570766E+02 -0.60095327772E+02 -0.11964480927E+03  0.13531280245E+03  0.47000000000E+01 0.  1.
         13    1    4    4    0    0  0.25051432733E+02  0.83328584830E+01  0.39128789943E+02  0.47202468313E+02  0.00000000000E+00 0. -1.
        -14    1    4    4    0    0 -0.13636348401E+02  0.92368265055E+00 -0.24844803996E+02  0.28356083526E+02  0.00000000000E+00 0.  1.
</event>
<event>
12    1  0.9966151E-001  0.2834787E+03  0.7818608E-02  0.1093892E+00
         21   -1    0    0  503  502  0.00000000000E+00  0.00000000000E+00  0.17855039085E+04  0.17855039085E+04  0.00000000000E+00 0. -1.
         21   -1    0    0  501  503 -0.00000000000E+00 -0.00000000000E+00 -0.35172045712E+03  0.35172045712E+03  0.00000000000E+00 0. -1.
          6    2    1    2  501    0 -0.20704296277E+03  0.86474679918E+02 -0.28128303274E+03  0.39888802619E+03  0.17218261884E+03 0.  0.
         24    2    3    3    0    0 -0.65163195548E+02  0.96521999328E+02 -0.14734935151E+03  0.20346249577E+03  0.78245877745E+02 0.  0.
         -6    2    1    2    0  502  0.20704296277E+03 -0.86474679918E+02  0.17150664841E+04  0.17383363394E+04  0.17324989277E+03 0.  0.
        -24    2    5    5    0    0  0.19404911687E+03 -0.35433984230E+02  0.15627047081E+04  0.15770595790E+04  0.78487477741E+02 0.  0.
          5    1    3    3  501    0 -0.14187976723E+03 -0.10047319410E+02 -0.13393368123E+03  0.19542553043E+03  0.47000000000E+01 0. -1.
        -11    1    4    4    0    0 -0.41159155197E+02  0.22459367001E+02 -0.10463301943E+03  0.11465848411E+03  0.00000000000E+00 0.  1.
         12    1    4    4    0    0 -0.24004040351E+02  0.74062632327E+02 -0.42716332083E+02  0.88804011660E+02  0.00000000000E+00 0. -1.
         -5    1    5    5    0  502  0.12993845901E+02 -0.51040695688E+02  0.15236177600E+03  0.16127676037E+03  0.47000000000E+01 0.  1.
         11    1    6    6    0    0  0.80342802467E+02  0.24101313202E+02  0.63750389733E+03  0.64299849014E+03  0.00000000000E+00 0. -1.
        -12    1    6    6    0    0  0.11370631441E+03 -0.59535297432E+02  0.92520081074E+03  0.93406108888E+03  0.00000000000E+00 0.  1.
</event>
<event>
12    1  0.9966151E-001  0.2778858E+03  0.7818608E-02  0.1097328E+00
         21   -1    0    0  503  502  0.00000000000E+00  0.00000000000E+00  0.47256108126E+03  0.47256108126E+03  0.00000000000E+00 0. -1.
         21   -1    0    0  501  503 -0.00000000000E+00 -0.00000000000E+00 -0.18327532793E+03  0.18327532793E+03  0.00000000000E+00 0. -1.
          6    2    1    2  501    0 -0.17550073178E+03  0.12722265847E+03  0.25717323426E+03  0.37610132069E+03  0.16830929659E+03 0.  0.
         24    2    3    3    0    0 -0.72846917882E+02 -0.38185553835E+01  0.10731033287E+03  0.15206876848E+03  0.79297843574E+02 0.  0.
         -6    2    1    2    0  502  0.17550073178E+03 -0.12722265847E+03  0.32112519075E+02  0.27973508851E+03  0.17388040193E+03 0.  0.
        -24    2    5    5    0    0  0.15073213810E+03 -0.15877290775E+03  0.45162077299E+02  0.23729357071E+03  0.79621679100E+02 0.  0.
          5    1    3    3  501    0 -0.10265381390E+03  0.13104121385E+03  0.14986290139E+03  0.22403255221E+03  0.47000000000E+01 0. -1.
        -13    1    4    4    0    0 -0.54023819549E+02  0.21446130730E+02  0.10557163586E+03  0.12051506089E+03  0.00000000000E+00 0.  1.
         14    1    4    4    0    0 -0.18823098333E+02 -0.25264686113E+02  0.17386970039E+01  0.31553707588E+02  0.00000000000E+00 0. -1.
         -5    1    5    5    0  502  0.24768593683E+02  0.31550249284E+02 -0.13049558224E+02  0.42441517795E+02  0.47000000000E+01 0.  1.
         11    1    6    6    0    0  0.21672007803E+00 -0.21703264956E+02  0.24408856942E+02  0.32662990901E+02  0.00000000000E+00 0. -1.
        -12    1    6    6    0    0  0.15051541802E+03 -0.13706964280E+03  0.20753220356E+02  0.20463057981E+03  0.00000000000E+00 0.  1.
</event>
<event>
12    1  0.9966151E-001  0.3560519E+03  0.7818608E-02  0.1060168E+00
         21   -1    0    0  501  502  0.00000000000E+00  0.00000000000E+00  0.43236326827E+03  0.43236326827E+03  0.00000000000E+00 0.  1.
         21   -1    0    0  502  503 -0.00000000000E+00 -0.00000000000E+00 -0.34890358895E+03  0.34890358895E+03  0.00000000000E+00 0.  1.
         -6    2    1    2    0  503  0.59646185519E+02  0.30579707905E+03 -0.11445123660E+03  0.37399474658E+03  0.17234692891E+03 0.  0.
        -24    2    3    3    0    0  0.24045917200E+01  0.25943573130E+03 -0.12437577237E+03  0.29951950884E+03  0.83246157178E+02 0.  0.
          6    2    1    2  501    0 -0.59646185519E+02 -0.30579707905E+03  0.19791091593E+03  0.40727211064E+03  0.17214040913E+03 0.  0.
         24    2    5    5    0    0 -0.68103170085E+02 -0.23012122930E+03  0.21208036804E+03  0.32967560171E+03  0.78192697297E+02 0.  0.
          5    1    5    5  501    0  0.84569845664E+01 -0.75675849756E+02 -0.14169452106E+02  0.77596508924E+02  0.47000000000E+01 0. -1.
        -13    1    6    6    0    0  0.54661078206E+01 -0.11784520148E+03  0.92667986739E+02  0.15001575122E+03  0.00000000000E+00 0.  1.
         14    1    6    6    0    0 -0.73569277906E+02 -0.11227602781E+03  0.11941238130E+03  0.17965985050E+03  0.00000000000E+00 0. -1.
         -5    1    3    3    0  503  0.57241593799E+02  0.46361347754E+02  0.99245357686E+01  0.74475237740E+02  0.47000000000E+01 0.  1.
         13    1    4    4    0    0 -0.31311066714E+02  0.69088190421E+02 -0.14699857386E+02  0.77263489188E+02  0.00000000000E+00 0. -1.
        -14    1    4    4    0    0  0.33715658434E+02  0.19034754088E+03 -0.10967591499E+03  0.22225601965E+03  0.00000000000E+00 0.  1.
</event>
<event>
12    1  0.1479340E+000  0.3790901E+03  0.7818608E-02  0.1051286E+00
         21   -1    0    0  503  502  0.00000000000E+00  0.00000000000E+00  0.19237060831E+04  0.19237060831E+04  0.00000000000E+00 0.  1.
         21   -1    0    0  501  503 -0.00000000000E+00 -0.00000000000E+00 -0.33522160064E+03  0.33522160064E+03  0.00000000000E+00 0. -1.
          6    2    1    2  501    0 -0.10958669818E+03 -0.31958977808E+03  0.17899570440E+04  0.18296253208E+04  0.17156842429E+03 0.  0.
         24    2    3    3    0    0 -0.18302853896E+02 -0.14581393050E+03  0.10875175961E+04  0.11002598064E+04  0.79249120568E+02 0.  0.
         -6    2    1    2    0  502  0.10958669818E+03  0.31958977808E+03 -0.20147256154E+03  0.42930236302E+03  0.17193735828E+03 0.  0.
        -24    2    5    5    0    0  0.17091540063E+01  0.94639173949E+02 -0.10589858181E+03  0.16210053961E+03  0.78119017266E+02 0.  0.
          5    1    3    3  501    0 -0.91283844284E+02 -0.17377584758E+03  0.70243944797E+03  0.72936551433E+03  0.47000000000E+01 0. -1.
        -13    1    4    4    0    0  0.83656749521E-01 -0.10419378765E+03  0.48702716095E+03  0.49804799758E+03  0.00000000000E+00 0.  1.
         14    1    4    4    0    0 -0.18386510646E+02 -0.41620142844E+02  0.60049043511E+03  0.60221180886E+03  0.00000000000E+00 0. -1.
         -5    1    5    5    0  502  0.10787754417E+03  0.22495060413E+03 -0.95573979733E+02  0.26720182342E+03  0.47000000000E+01 0.  1.
         11    1    6    6    0    0 -0.45523650254E+01  0.85179950570E+02 -0.38210815225E+02  0.93468788408E+02  0.00000000000E+00 0. -1.
        -12    1    6    6    0    0  0.62615190317E+01  0.94592233797E+01 -0.67687766583E+02  0.68631751198E+02  0.00000000000E+00 0.  1.
</event>
<event>
12    1  0.9966151E-001  0.3671820E+03  0.7818608E-02  0.1055782E+00
         21   -1    0    0  501  502  0.00000000000E+00  0.00000000000E+00  0.80424471703E+03  0.80424471703E+03  0.00000000000E+00 0. -1.
         21   -1    0    0  502  503 -0.00000000000E+00 -0.00000000000E+00 -0.22188358802E+03  0.22188358802E+03  0.00000000000E+00 0.  1.
         -6    2    1    2    0  503  0.93922112824E+02  0.31117906825E+03  0.54491515781E+03  0.65704187371E+03  0.17063914790E+03 0.  0.
        -24    2    3    3    0    0  0.79658272553E+02  0.12252254185E+03  0.33747187403E+03  0.37624025676E+03  0.79449678410E+02 0.  0.
          6    2    1    2  501    0 -0.93922112824E+02 -0.31117906825E+03  0.37445971191E+02  0.36908643135E+03  0.17078880892E+03 0.  0.
         24    2    5    5    0    0  0.16275021877E+02 -0.84736987718E+02  0.32704004768E+02  0.11716580778E+03  0.72201393068E+02 0.  0.
          5    1    5    5  501    0 -0.11019713470E+03 -0.22644208053E+03  0.47419664228E+01  0.25192062356E+03  0.47000000000E+01 0. -1.
        -11    1    6    6    0    0  0.16859775383E+02 -0.54711446155E+02 -0.16447394653E+02  0.59566023513E+02  0.00000000000E+00 0.  1.
         12    1    6    6    0    0 -0.58475350609E+00 -0.30025541563E+02  0.49151399421E+02  0.57599784270E+02  0.00000000000E+00 0. -1.
         -5    1    3    3    0  503  0.14263840271E+02  0.18865652640E+03  0.20744328378E+03  0.28080161695E+03  0.47000000000E+01 0.  1.
         13    1    4    4    0    0  0.13901225690E+02  0.42820717585E+02  0.19569205795E+03  0.20080398272E+03  0.00000000000E+00 0. -1.
        -14    1    4    4    0    0  0.65757046863E+02  0.79701824265E+02  0.14177981608E+03  0.17543627405E+03  0.00000000000E+00 0.  1.
</event>
<event>
12    1  0.9966151E-001  0.1893351E+03  0.7818608E-02  0.1159266E+00
         21   -1    0    0  501  502  0.00000000000E+00  0.00000000000E+00  0.60057916924E+02  0.60057916924E+02  0.00000000000E+00 0.  1.
         21   -1    0    0  502  503 -0.00000000000E+00 -0.00000000000E+00 -0.67735018210E+03  0.67735018210E+03  0.00000000000E+00 0.  1.
         -6    2    1    2    0  503  0.38178617675E+02  0.68741057875E+02 -0.17999984287E+03  0.26124266153E+03  0.17223485387E+03 0.  0.
        -24    2    3    3    0    0 -0.45570558638E+02  0.30375837118E+02 -0.87466733269E+02  0.13058937581E+03  0.80023673693E+02 0.  0.
          6    2    1    2  501    0 -0.38178617675E+02 -0.68741057875E+02 -0.43729242231E+03  0.47616543749E+03  0.17124812808E+03 0.  0.
         24    2    5    5    0    0  0.25580423409E+02  0.20710709813E+01 -0.13243304717E+03  0.15672702164E+03  0.79788469926E+02 0.  0.
          5    1    5    5  501    0 -0.63759041084E+02 -0.70812128857E+02 -0.30485937514E+03  0.31943841585E+03  0.47000000000E+01 0. -1.
        -11    1    6    6    0    0 -0.41502533118E+01  0.32832325743E+02 -0.26218830195E+02  0.42221005117E+02  0.00000000000E+00 0.  1.
         12    1    6    6    0    0  0.29730676721E+02 -0.30761254762E+02 -0.10621421697E+03  0.11450601652E+03  0.00000000000E+00 0. -1.
         -5    1    3    3    0  503  0.83749176313E+02  0.38365220758E+02 -0.92533109604E+02  0.13065328572E+03  0.47000000000E+01 0.  1.
         11    1    4    4    0    0 -0.26944224397E+00  0.38294191500E+02 -0.85302462592E+01  0.39233694741E+02  0.00000000000E+00 0. -1.
        -12    1    4    4    0    0 -0.45301116394E+02 -0.79183543829E+01 -0.78936487010E+02  0.91355681072E+02  0.00000000000E+00 0.  1.
</event>
<event>
12    1  0.9966151E-001  0.2228956E+03  0.7818608E-02  0.1133188E+00
         21   -1    0    0  503  502  0.00000000000E+00  0.00000000000E+00  0.83363849786E+02  0.83363849786E+02  0.00000000000E+00 0. -1.
         21   -1    0    0  501  503 -0.00000000000E+00 -0.00000000000E+00 -0.65042696571E+03  0.65042696571E+03  0.00000000000E+00 0.  1.
          6    2    1    2  501    0  0.11102170240E+02  0.13023776625E+03 -0.16341459788E+03  0.27638160038E+03  0.18054729100E+03 0.  0.
         24    2    3    3    0    0 -0.37638443265E+02  0.14161782239E+03 -0.85590328786E+02  0.18373247765E+03  0.70424845987E+02 0.  0.
         -6    2    1    2    0  502 -0.11102170240E+02 -0.13023776625E+03 -0.40364851805E+03  0.45740921512E+03  0.17089742541E+03 0.  0.
        -24    2    5    5    0    0 -0.30351590557E+02 -0.15833386080E+03 -0.32061182329E+03  0.36753645291E+03  0.79374255637E+02 0.  0.
          5    1    3    3  501    0  0.48740613505E+02 -0.11380056143E+02 -0.77824269090E+02  0.92649122727E+02  0.47000000000E+01 0. -1.
        -13    1    4    4    0    0 -0.34163463150E+02  0.71898699840E+02 -0.81320625284E+02  0.11379635034E+03  0.00000000000E+00 0.  1.
         14    1    4    4    0    0 -0.34749801150E+01  0.69719122549E+02 -0.42697035017E+01  0.69936127315E+02  0.00000000000E+00 0. -1.
         -5    1    5    5    0  502  0.19249420317E+02  0.28096094550E+02 -0.83036694753E+02  0.89872762209E+02  0.47000000000E+01 0.  1.
         13    1    6    6    0    0 -0.42660603067E+02 -0.38763890203E+02 -0.80391933181E+02  0.98921328126E+02  0.00000000000E+00 0. -1.
        -14    1    6    6    0    0  0.12309012510E+02 -0.11956997059E+03 -0.24021989011E+03  0.26861512478E+03  0.00000000000E+00 0.  1.
</event>
<event>
12    1  0.9966151E-001  0.1868734E+03  0.7818608E-02  0.1161414E+00
         21   -1    0    0  501  502  0.00000000000E+00  0.00000000000E+00  0.29481370011E+02  0.29481370011E+02  0.00000000000E+00 0. -1.
         21   -1    0    0  502  503 -0.00000000000E+00 -0.00000000000E+00 -0.14552925250E+04  0.14552925250E+04  0.00000000000E+00 0. -1.
         -6    2    1    2    0  503  0.98402260687E+01 -0.70791873396E+02 -0.39034381934E+03  0.43257891744E+03  0.17218566469E+03 0.  0.
        -24    2    3    3    0    0 -0.95901177284E+01  0.57512961299E+01 -0.30926363842E+03  0.31929837719E+03  0.78628289178E+02 0.  0.
          6    2    1    2  501    0 -0.98402260687E+01  0.70791873396E+02 -0.10354673357E+04  0.10521949776E+04  0.17266542287E+03 0.  0.
         24    2    5    5    0    0 -0.30508223009E+02  0.53131268498E+01 -0.84984803477E+03  0.85422718423E+03  0.80643778901E+02 0.  0.
          5    1    5    5  501    0  0.20667996941E+02  0.65478746546E+02 -0.18561930090E+03  0.19796779337E+03  0.47000000000E+01 0. -1.
        -11    1    6    6    0    0 -0.27233210376E+02 -0.20518884680E+02 -0.14723387118E+03  0.15113068913E+03  0.00000000000E+00 0.  1.
         12    1    6    6    0    0 -0.32750126332E+01  0.25832011530E+02 -0.70261416360E+03  0.70309649509E+03  0.00000000000E+00 0. -1.
         -5    1    3    3    0  503  0.19430343797E+02 -0.76543169526E+02 -0.81080180923E+02  0.11328054025E+03  0.47000000000E+01 0.  1.
         13    1    4    4    0    0 -0.10271178805E+02  0.41151056789E+01 -0.10886467227E+01  0.11118289459E+02  0.00000000000E+00 0. -1.
        -14    1    4    4    0    0  0.68106107711E+00  0.16361904510E+01 -0.30817499170E+03  0.30818008773E+03  0.00000000000E+00 0.  1.
</event>
<event>
12    1  0.9966151E-001  0.2593952E+03  0.7818608E-02  0.1107521E+00
         21   -1    0    0  503  502  0.00000000000E+00  0.00000000000E+00  0.90072454724E+03  0.90072454724E+03  0.00000000000E+00 0.  1.
         21   -1    0    0  501  503 -0.00000000000E+00 -0.00000000000E+00 -0.77339148970E+02  0.77339148970E+02  0.00000000000E+00 0.  1.
          6    2    1    2  501    0  0.41701445739E+02 -0.18888025385E+03  0.32099335532E+03  0.41270160256E+03  0.17283262923E+03 0.  0.
         24    2    3    3    0    0  0.41250417829E+02 -0.12935385874E+03  0.31845843949E+03  0.35293446327E+03  0.68650855341E+02 0.  0.
         -6    2    1    2    0  502 -0.41701445739E+02  0.18888025385E+03  0.50239204295E+03  0.56536209365E+03  0.17268981222E+03 0.  0.
        -24    2    5    5    0    0 -0.51858355570E+02  0.16923334725E+03  0.27099108089E+03  0.33285906356E+03  0.77651628520E+02 0.  0.
          5    1    3    3  501    0  0.45102790966E+00 -0.59526395110E+02  0.25349158294E+01  0.59767139293E+02  0.47000000000E+01 0. -1.
        -13    1    4    4    0    0 -0.75944477287E+01 -0.39452006980E+02  0.15477821763E+03  0.15990757688E+03  0.00000000000E+00 0.  1.
         14    1    4    4    0    0  0.48844865558E+02 -0.89901851755E+02  0.16368022186E+03  0.19302688639E+03  0.00000000000E+00 0. -1.
         -5    1    5    5    0  502  0.10156909831E+02  0.19646906600E+02  0.23140096206E+03  0.23250303009E+03  0.47000000000E+01 0.  1.
         11    1    6    6    0    0 -0.50982293690E+02  0.46181726309E+02  0.78270276636E+02  0.10420260227E+03  0.00000000000E+00 0. -1.
        -12    1    6    6    0    0 -0.87606187949E+00  0.12305162094E+03  0.19272080425E+03  0.22865646129E+03  0.00000000000E+00 0.  1.
</event>
<event>
12    1  0.9966151E-001  0.2594998E+03  0.7818608E-02  0.1107656E+00
         21   -1    0    0  503  502  0.00000000000E+00  0.00000000000E+00  0.10167639523E+04  0.10167639523E+04  0.00000000000E+00 0. -1.
         21   -1    0    0  501  503 -0.00000000000E+00 -0.00000000000E+00 -0.93355599912E+02  0.93355599912E+02  0.00000000000E+00 0. -1.
          6    2    1    2  501    0 -0.62602595984E+02  0.18230127670E+03  0.15966002003E+03  0.30348972344E+03  0.17164454471E+03 0.  0.
         24    2    3    3    0    0 -0.87239399020E+02  0.58583938926E+02  0.79026968714E+02  0.15370076960E+03  0.79598204438E+02 0.  0.
         -6    2    1    2    0  502  0.62602595984E+02 -0.18230127670E+03  0.76374833237E+03  0.80662982878E+03  0.17374499985E+03 0.  0.
        -24    2    5    5    0    0  0.31826073733E+02 -0.12950115593E+02  0.24906989944E+03  0.26391167964E+03  0.80205706643E+02 0.  0.
          5    1    3    3  501    0  0.24636803035E+02  0.12371733777E+03  0.80633051315E+02  0.14978895384E+03  0.47000000000E+01 0. -1.
        -11    1    4    4    0    0 -0.79010461570E+02  0.76387275491E+02  0.55647725356E+02  0.12318416388E+03  0.00000000000E+00 0.  1.
         12    1    4    4    0    0 -0.82289374499E+01 -0.17803336565E+02  0.23379243358E+02  0.30516605715E+02  0.00000000000E+00 0. -1.
         -5    1    5    5    0  502  0.30776522251E+02 -0.16935116110E+03  0.51467843293E+03  0.54271814915E+03  0.47000000000E+01 0.  1.
         13    1    6    6    0    0  0.39363474411E+02  0.17301470139E+02  0.20773174721E+03  0.21213510503E+03  0.00000000000E+00 0. -1.
        -14    1    6    6    0    0 -0.75374006775E+01 -0.30251585732E+02  0.41338152231E+02  0.51776574608E+02  0.00000000000E+00 0.  1.
</event>
<event>
12    1  0.9966151E-001  0.2040601E+03  0.7818608E-02  0.1146452E+00
         21   -1    0    0  503  502  0.00000000000E+00  0.00000000000E+00  0.42618445318E+02  0.42618445318E+02  0.00000000000E+00 0. -1.
         21   -1    0    0  501  503 -0.00000000000E+00 -0.00000000000E+00 -0.10281563867E+04  0.10281563867E+04  0.00000000000E+00 0. -1.
          6    2    1    2  501    0 -0.71324850436E+02 -0.80547440594E+02 -0.61516548012E+03  0.64812737716E+03  0.17339378481E+03 0.  0.
         24    2    3    3    0    0 -0.79507887317E+02 -0.47103946268E+01 -0.48010325278E+03  0.49294324495E+03  0.78423322109E+02 0.  0.
         -6    2    1    2    0  502  0.71324850436E+02  0.80547440594E+02 -0.37037246130E+03  0.42264745490E+03  0.17285828464E+03 0.  0.
        -24    2    5    5    0    0  0.44856865515E+02  0.76298529351E+02 -0.37507443847E+03  0.39502851101E+03  0.86793353139E+02 0.  0.
          5    1    3    3  501    0  0.81830368813E+01 -0.75837045967E+02 -0.13506222734E+03  0.15518413221E+03  0.47000000000E+01 0. -1.
        -11    1    4    4    0    0 -0.48774553522E+02 -0.81583448839E+01 -0.99756492257E+02  0.11134124757E+03  0.00000000000E+00 0.  1.
         12    1    4    4    0    0 -0.30733333795E+02  0.34479502571E+01 -0.38034676052E+03  0.38160199739E+03  0.00000000000E+00 0. -1.
         -5    1    5    5    0  502  0.26467984920E+02  0.42489112431E+01  0.47019771709E+01  0.27618943894E+02  0.47000000000E+01 0.  1.
         13    1    6    6    0    0  0.16178117334E+02 -0.14436063370E+02 -0.13590322058E+03  0.13762200685E+03  0.00000000000E+00 0. -1.
        -14    1    6    6    0    0  0.28678748181E+02  0.90734592721E+02 -0.23917121789E+03  0.25740650415E+03  0.00000000000E+00 0.  1.
</event>
<event>
12    1  0.9966151E-001  0.1799443E+03  0.7818608E-02  0.1168016E+00
         21   -1    0    0  501  502  0.00000000000E+00  0.00000000000E+00  0.38011608545E+03  0.38011608545E+03  0.00000000000E+00 0. -1.
         21   -1    0    0  502  503 -0.00000000000E+00 -0.00000000000E+00 -0.14484833456E+03  0.14484833456E+03  0.00000000000E+00 0. -1.
         -6    2    1    2    0  503  0.50764344450E+02  0.88575480643E+01 -0.51137988912E+02  0.18706964315E+03  0.17240789614E+03 0.  0.
        -24    2    3    3    0    0 -0.89372424801E+01 -0.43433894425E+02  0.72796090782E+01  0.88411748407E+02  0.76139786315E+02 0.  0.
          6    2    1    2  501    0 -0.50764344450E+02 -0.88575480643E+01  0.28640573981E+03  0.33789477686E+03  0.17172407405E+03 0.  0.
         24    2    5    5    0    0 -0.77600539337E+02  0.11128901024E+02  0.28075279684E+03  0.30363568657E+03  0.85010593951E+02 0.  0.
          5    1    5    5  501    0  0.26836194886E+02 -0.19986449088E+02  0.56529429688E+01  0.34259090288E+02  0.47000000000E+01 0. -1.
        -11    1    6    6    0    0 -0.48185619441E+02 -0.34849724854E+02  0.12116129682E+03  0.13496820771E+03  0.00000000000E+00 0.  1.
         12    1    6    6    0    0 -0.29414919896E+02  0.45978625878E+02  0.15959150002E+03  0.16866747887E+03  0.00000000000E+00 0. -1.
         -5    1    3    3    0  503  0.59701586931E+02  0.52291442490E+02 -0.58417597990E+02  0.98657894740E+02  0.47000000000E+01 0.  1.
         11    1    4    4    0    0 -0.33055992132E+02 -0.76726531079E+01 -0.18002290861E+02  0.38414199169E+02  0.00000000000E+00 0. -1.
        -12    1    4    4    0    0  0.24118749652E+02 -0.35761241318E+02  0.25281899939E+02  0.49997549239E+02  0.00000000000E+00 0.  1.
</event>
<event>
12    1  0.9966151E-001  0.1866921E+03  0.7818608E-02  0.1161494E+00
         21   -1    0    0  501  502  0.00000000000E+00  0.00000000000E+00  0.84347641191E+02  0.84347641191E+02  0.00000000000E+00 0. -1.
         21   -1    0    0  502  503 -0.00000000000E+00 -0.00000000000E+00 -0.53433370572E+03  0.53433370572E+03  0.00000000000E+00 0. -1.
         -6    2    1    2    0  503  0.35261138201E+02  0.62308513916E+02 -0.77661854547E+02  0.20220113713E+03  0.17241878503E+03 0.  0.
        -24    2    3    3    0    0  0.64876861416E+01  0.47356990230E+02 -0.11744865471E+03  0.15065951248E+03  0.81359250313E+02 0.  0.
          6    2    1    2  501    0 -0.35261138201E+02 -0.62308513916E+02 -0.37232420998E+03  0.41648020979E+03  0.17235065718E+03 0.  0.
         24    2    5    5    0    0  0.14899058295E+02 -0.23405626775E+02 -0.76630528034E+02  0.11401314797E+03  0.79730513480E+02 0.  0.
          5    1    5    5  501    0 -0.50160196497E+02 -0.38902887141E+02 -0.29569368195E+03  0.30246706182E+03  0.47000000000E+01 0. -1.
        -11    1    6    6    0    0  0.20570766046E+01 -0.40939279796E+02 -0.81957155217E+02  0.91636409170E+02  0.00000000000E+00 0.  1.
         12    1    6    6    0    0  0.12841981690E+02  0.17533653021E+02  0.53266271834E+01  0.22376738796E+02  0.00000000000E+00 0. -1.
         -5    1    3    3    0  503  0.28773452060E+02  0.14951523686E+02  0.39786800165E+02  0.51541624648E+02  0.47000000000E+01 0.  1.
         13    1    4    4    0    0  0.77386172455E+01  0.65004500764E+02 -0.54217815333E+02  0.85000251858E+02  0.00000000000E+00 0. -1.
        -14    1    4    4    0    0 -0.12509311039E+01 -0.17647510534E+02 -0.63230839379E+02  0.65659260621E+02  0.00000000000E+00 0.  1.
</event>
<event>
12    1  0.9966151E-001  0.1976156E+03  0.7818608E-02  0.1152861E+00
         21   -1    0    0  503  502  0.00000000000E+00  0.00000000000E+00  0.30450906611E+03  0.30450906611E+03  0.00000000000E+00 0.  1.
         21   -1    0    0  501  503 -0.00000000000E+00 -0.00000000000E+00 -0.18788927763E+03  0.18788927763E+03  0.00000000000E+00 0.  1.
          6    2    1    2  501    0 -0.44935152008E+02 -0.73083934371E+02  0.20124550296E+03  0.28204909740E+03  0.17802109856E+03 0.  0.
         24    2    3    3    0    0  0.21497976397E+02  0.10457103616E+02  0.12636930560E+03  0.15158454087E+03  0.80231899081E+02 0.  0.
         -6    2    1    2    0  502  0.44935152008E+02  0.73083934371E+02 -0.84625714482E+02  0.21034924633E+03  0.17240900363E+03 0.  0.
        -24    2    5    5    0    0  0.16833714935E+02  0.90873298397E+02 -0.19796867342E+01  0.12113821484E+03  0.78289319926E+02 0.  0.
          5    1    3    3  501    0 -0.66433128404E+02 -0.83541037987E+02  0.74876197366E+02  0.13046455653E+03  0.47000000000E+01 0. -1.
        -11    1    4    4    0    0  0.10431781760E+02 -0.29960603002E+02  0.20625498937E+02  0.37840071476E+02  0.00000000000E+00 0.  1.
         12    1    4    4    0    0  0.11066194636E+02  0.40417706617E+02  0.10574380666E+03  0.11374446940E+03  0.00000000000E+00 0. -1.
         -5    1    5    5    0  502  0.28101437073E+02 -0.17789364026E+02 -0.82646027747E+02  0.89211031495E+02  0.47000000000E+01 0.  1.
         13    1    6    6    0    0 -0.25386781151E+02  0.52536764359E+02 -0.19430883914E+02  0.61499264355E+02  0.00000000000E+00 0. -1.
        -14    1    6    6    0    0  0.42220496085E+02  0.38336534038E+02  0.17451197180E+02  0.59638950483E+02  0.00000000000E+00 0.  1.
</event>
<event>
12    1  0.9966151E-001  0.4558429E+03  0.7818608E-02  0.1026008E+00
         21   -1    0    0  501  502  0.00000000000E+00  0.00000000000E+00  0.54458317859E+03  0.54458317859E+03  0.00000000000E+00 0. -1.
         21   -1    0    0  502  503 -0.00000000000E+00 -0.00000000000E+00 -0.42590869648E+03  0.42590869648E+03  0.00000000000E+00 0. -1.
         -6    2    1    2    0  503  0.35862688602E+03 -0.22330710106E+03 -0.97522781666E+02  0.46615814706E+03  0.17121162452E+03 0.  0.
        -24    2    3    3    0    0  0.23116538637E+03 -0.77782175205E+02 -0.91634988945E+02  0.27255883394E+03  0.80024022181E+02 0.  0.
          6    2    1    2  501    0 -0.35862688602E+03  0.22330710106E+03  0.21619726378E+03  0.50433372801E+03  0.17068083541E+03 0.  0.
         24    2    5    5    0    0 -0.21498462531E+03  0.19621384552E+03  0.18712458226E+03  0.35522150729E+03  0.80302226987E+02 0.  0.
          5    1    5    5  501    0 -0.14364226071E+03  0.27093255541E+02  0.29072681522E+02  0.14911222072E+03  0.47000000000E+01 0. -1.
        -13    1    6    6    0    0 -0.10624577801E+03  0.13199019257E+03  0.71187852179E+02  0.18378598036E+03  0.00000000000E+00 0.  1.
         14    1    6    6    0    0 -0.10873884730E+03  0.64223652952E+02  0.11593673008E+03  0.17143552693E+03  0.00000000000E+00 0. -1.
         -5    1    3    3    0  503  0.12746149965E+03 -0.14552492585E+03 -0.58877927216E+01  0.19359931312E+03  0.47000000000E+01 0.  1.
         11    1    4    4    0    0  0.17132864710E+03 -0.64193149841E+02 -0.29663268302E+02  0.18534879360E+03  0.00000000000E+00 0. -1.
        -12    1    4    4    0    0  0.59836739274E+02 -0.13589025364E+02 -0.61971720643E+02  0.87210040344E+02  0.00000000000E+00 0.  1.
</event>
<event>
12    1  0.9966151E-001  0.2191472E+03  0.7818608E-02  0.1134693E+00
         21   -1    0    0  501  502  0.00000000000E+00  0.00000000000E+00  0.36495637690E+02  0.36495637690E+02  0.00000000000E+00 0. -1.
         21   -1    0    0  502  503 -0.00000000000E+00 -0.00000000000E+00 -0.23555370053E+04  0.23555370053E+04  0.00000000000E+00 0. -1.
         -6    2    1    2    0  503 -0.11474481554E+03  0.69601980830E+02 -0.36150365969E+03  0.42226631863E+03  0.17208468686E+03 0.  0.
        -24    2    3    3    0    0 -0.27526539170E+01 -0.10246185438E+02 -0.10480880372E+03  0.13100644669E+03  0.77879665620E+02 0.  0.
          6    2    1    2  501    0  0.11474481554E+03 -0.69601980830E+02 -0.19575377080E+04  0.19697663244E+04  0.17324747104E+03 0.  0.
         24    2    5    5    0    0  0.10525955568E+02 -0.18153203319E+00 -0.11206790366E+04  0.11235776366E+04  0.79964828242E+02 0.  0.
          5    1    5    5  501    0  0.10421885997E+03 -0.69420448797E+02 -0.83685867135E+03  0.84618868776E+03  0.47000000000E+01 0. -1.
        -11    1    6    6    0    0 -0.33521283741E+02 -0.76588408084E+01 -0.38007417275E+03  0.38162640252E+03  0.00000000000E+00 0.  1.
         12    1    6    6    0    0  0.44047239310E+02  0.74773087752E+01 -0.74060486387E+03  0.74195123412E+03  0.00000000000E+00 0. -1.
         -5    1    3    3    0  503 -0.11199216163E+03  0.79848166268E+02 -0.25669485597E+03  0.29125987194E+03  0.47000000000E+01 0.  1.
         13    1    4    4    0    0 -0.11823573957E+01  0.24630638124E+02 -0.89589547447E+02  0.92921221016E+02  0.00000000000E+00 0. -1.
        -14    1    4    4    0    0 -0.15702965213E+01 -0.34876823562E+02 -0.15219256271E+02  0.38085225671E+02  0.00000000000E+00 0.  1.
</event>
<event>
12    1  0.9966151E-001  0.2681442E+03  0.7818608E-02  0.1102490E+00
         21   -1    0    0  501  502  0.00000000000E+00  0.00000000000E+00  0.12246670879E+03  0.12246670879E+03  0.00000000000E+00 0. -1.
         21   -1    0    0  502  503 -0.00000000000E+00 -0.00000000000E+00 -0.58496866599E+03  0.58496866599E+03  0.00000000000E+00 0. -1.
         -6    2    1    2    0  503  0.12772434197E+03 -0.16042428793E+03 -0.22843480155E+03  0.35150172478E+03  0.17123534761E+03 0.  0.
        -24    2    3    3    0    0  0.14403745589E+03 -0.86514627985E+02 -0.18589453250E+03  0.26455047401E+03  0.84844602236E+02 0.  0.
          6    2    1    2  501    0 -0.12772434197E+03  0.16042428793E+03 -0.23406715565E+03  0.35593365000E+03  0.17277693757E+03 0.  0.
         24    2    5    5    0    0 -0.41550577752E+02  0.93611737320E+02 -0.20785300834E+03  0.24368791031E+03  0.75440815753E+02 0.  0.
          5    1    5    5  501    0 -0.86173764214E+02  0.66812550615E+02 -0.26214147315E+02  0.11224573969E+03  0.47000000000E+01 0. -1.
        -13    1    6    6    0    0 -0.49134386345E+02  0.72835167266E+02 -0.97944614261E+02  0.13157620216E+03  0.00000000000E+00 0.  1.
         14    1    6    6    0    0  0.75838085935E+01  0.20776570054E+02 -0.10990839408E+03  0.11211170815E+03  0.00000000000E+00 0. -1.
         -5    1    3    3    0  503 -0.16313113926E+02 -0.73909659950E+02 -0.42540269053E+02  0.86951250773E+02  0.47000000000E+01 0.  1.
         11    1    4    4    0    0  0.94628733133E+01 -0.14323960895E+02 -0.72060886427E+02  0.74077615915E+02  0.00000000000E+00 0. -1.
        -12    1    4    4    0    0  0.13457458258E+03 -0.72190667090E+02 -0.11383364607E+03  0.19047285809E+03  0.00000000000E+00 0.  1.
</event>
<event>
12    1  0.9966151E-001  0.3647052E+03  0.7818608E-02  0.1056750E+00
         21   -1    0    0  503  502  0.00000000000E+00  0.00000000000E+00  0.14926717635E+03  0.14926717635E+03  0.00000000000E+00 0. -1.
         21   -1    0    0  501  503 -0.00000000000E+00 -0.00000000000E+00 -0.92997352566E+03  0.92997352566E+03  0.00000000000E+00 0. -1.
          6    2    1    2  501    0  0.18970733286E+03 -0.25675952063E+03 -0.27945667399E+03  0.45935273628E+03  0.17605277650E+03 0.  0.
         24    2    3    3    0    0  0.41143546712E+02 -0.16231076441E+03 -0.11413139246E+03  0.21780293848E+03  0.79840901698E+02 0.  0.
         -6    2    1    2    0  502 -0.18970733286E+03  0.25675952063E+03 -0.50124967531E+03  0.61988796573E+03  0.17633924542E+03 0.  0.
        -24    2    5    5    0    0 -0.12109194449E+03  0.71175864661E+02 -0.27739049187E+03  0.32108303120E+03  0.80122189272E+02 0.  0.
          5    1    3    3  501    0  0.14856378615E+03 -0.94448756222E+02 -0.16532528153E+03  0.24154979781E+03  0.47000000000E+01 0. -1.
        -13    1    4    4    0    0  0.63266317899E+02 -0.12168680185E+03 -0.98945436595E+02  0.16911683579E+03  0.00000000000E+00 0.  1.
         14    1    4    4    0    0 -0.22122771187E+02 -0.40623962561E+02 -0.15185955869E+02  0.48686102687E+02  0.00000000000E+00 0. -1.
         -5    1    5    5    0  502 -0.68615388368E+02  0.18558365597E+03 -0.22385918344E+03  0.29880493452E+03  0.47000000000E+01 0.  1.
         13    1    6    6    0    0 -0.11545698572E+03  0.86445586421E+02 -0.25955174589E+03  0.29693478031E+03  0.00000000000E+00 0. -1.
        -14    1    6    6    0    0 -0.56349587748E+01 -0.15269721760E+02 -0.17838745988E+02  0.24148250898E+02  0.00000000000E+00 0.  1.
</event>
<event>
12    1  0.9966151E-001  0.1871812E+03  0.7818608E-02  0.1162301E+00
         21   -1    0    0  501  502  0.00000000000E+00  0.00000000000E+00  0.45857978507E+02  0.45857978507E+02  0.00000000000E+00 0. -1.
         21   -1    0    0  502  503 -0.00000000000E+00 -0.00000000000E+00 -0.75132617880E+03  0.75132617880E+03  0.00000000000E+00 0. -1.
         -6    2    1    2    0  503 -0.10264996581E+02  0.59588297046E+02 -0.30309029210E+03  0.35339953218E+03  0.17138077162E+03 0.  0.
        -24    2    3    3    0    0 -0.12144044522E+02  0.10698921396E+03 -0.23104735527E+03  0.26701288685E+03  0.79491079024E+02 0.  0.
          6    2    1    2  501    0  0.10264996581E+02 -0.59588297046E+02 -0.40237790819E+03  0.44378462513E+03  0.17714592063E+03 0.  0.
         24    2    5    5    0    0  0.57394725097E+02 -0.21215613737E+01 -0.14344839661E+03  0.17435890441E+03  0.80777036113E+02 0.  0.
          5    1    5    5  501    0 -0.47129728516E+02 -0.57466735673E+02 -0.25892951158E+03  0.26942572072E+03  0.47000000000E+01 0. -1.
        -13    1    6    6    0    0  0.95956235375E+01 -0.30870068975E+02 -0.95436462270E+02  0.10076286757E+03  0.00000000000E+00 0.  1.
         14    1    6    6    0    0  0.47799101559E+02  0.28748507601E+02 -0.48011934343E+02  0.73596036840E+02  0.00000000000E+00 0. -1.
         -5    1    3    3    0  503  0.18790479410E+01 -0.47400916910E+02 -0.72042936834E+02  0.86386645338E+02  0.47000000000E+01 0.  1.
         13    1    4    4    0    0  0.21102287647E+02  0.85012138414E+02 -0.19285024794E+03  0.21181026499E+03  0.00000000000E+00 0. -1.
        -14    1    4    4    0    0 -0.33246332169E+02  0.21977075542E+02 -0.38197107324E+02  0.55202621858E+02  0.00000000000E+00 0.  1.
</event>
<event>
12    1  0.9966151E-001  0.5054941E+03  0.7818608E-02  0.1012381E+00
         21   -1    0    0  503  502  0.00000000000E+00  0.00000000000E+00  0.15131224135E+03  0.15131224135E+03  0.00000000000E+00 0.  1.
         21   -1    0    0  501  503 -0.00000000000E+00 -0.00000000000E+00 -0.17277586980E+04  0.17277586980E+04  0.00000000000E+00 0.  1.
          6    2    1    2  501    0 -0.14683701612E+03 -0.45157131205E+03 -0.64424765326E+03  0.81863758840E+03  0.17214733002E+03 0.  0.
         24    2    3    3    0    0 -0.92669424992E+02 -0.28442752832E+03 -0.51512008945E+03  0.60053855102E+03  0.76231250264E+02 0.  0.
         -6    2    1    2    0  502  0.14683701612E+03  0.45157131205E+03 -0.93219880336E+03  0.10604333509E+04  0.17333933082E+03 0.  0.
        -24    2    5    5    0    0  0.41998755402E+02  0.29833159302E+03 -0.67206268074E+03  0.74079861456E+03  0.79678765357E+02 0.  0.
          5    1    3    3  501    0 -0.54167591129E+02 -0.16714378372E+03 -0.12912756382E+03  0.21809903737E+03  0.47000000000E+01 0. -1.
        -11    1    4    4    0    0 -0.68199203058E+02 -0.91028843335E+02 -0.18649940472E+03  0.21844772733E+03  0.00000000000E+00 0.  1.
         12    1    4    4    0    0 -0.24470221934E+02 -0.19339868499E+03 -0.32862068473E+03  0.38209082369E+03  0.00000000000E+00 0. -1.
         -5    1    5    5    0  502  0.10483826072E+03  0.15323971903E+03 -0.26013612262E+03  0.31963473636E+03  0.47000000000E+01 0.  1.
         13    1    6    6    0    0  0.16661008770E+02  0.11088554769E+03 -0.16400582392E+03  0.19867336052E+03  0.00000000000E+00 0. -1.
        -14    1    6    6    0    0  0.25337746632E+02  0.18744604533E+03 -0.50805685682E+03  0.54212525404E+03  0.00000000000E+00 0.  1.
</event>
<event>
12    1  0.9966151E-001  0.2167795E+03  0.7818608E-02  0.1136460E+00
         21   -1    0    0  501  502  0.00000000000E+00  0.00000000000E+00  0.61114094783E+02  0.61114094783E+02  0.00000000000E+00 0.  1.
         21   -1    0    0  502  503 -0.00000000000E+00 -0.00000000000E+00 -0.84234698383E+03  0.84234698383E+03  0.00000000000E+00 0.  1.
         -6    2    1    2    0  503 -0.32594326767E+02 -0.12746889661E+03 -0.25404840948E+03  0.33344631018E+03  0.17127503516E+03 0.  0.
        -24    2    3    3    0    0 -0.33101570788E+02 -0.26687055911E+02 -0.19808751560E+03  0.21807322685E+03  0.80680576911E+02 0.  0.
          6    2    1    2  501    0  0.32594326767E+02  0.12746889661E+03 -0.52718447956E+03  0.57001476844E+03  0.17228653749E+03 0.  0.
         24    2    5    5    0    0 -0.39708035803E+02  0.28455058462E+02 -0.23536803060E+03  0.25345466093E+03  0.80341377007E+02 0.  0.
          5    1    5    5  501    0  0.72302362569E+02  0.99013838151E+02 -0.29181644896E+03  0.31656010750E+03  0.47000000000E+01 0. -1.
        -11    1    6    6    0    0 -0.26545352192E+02  0.49929282861E+02 -0.21086324293E+03  0.21831375638E+03  0.00000000000E+00 0.  1.
         12    1    6    6    0    0 -0.13162683611E+02 -0.21474224399E+02 -0.24504787680E+02  0.35140904550E+02  0.00000000000E+00 0. -1.
         -5    1    3    3    0  503  0.50724402080E+00 -0.10078184070E+03 -0.55960893883E+02  0.11537308333E+03  0.47000000000E+01 0.  1.
         13    1    4    4    0    0 -0.39646354091E+02  0.19690553052E+02 -0.10123170628E+03  0.11048714689E+03  0.00000000000E+00 0. -1.
        -14    1    4    4    0    0  0.65447833037E+01 -0.46377608963E+02 -0.96855809321E+02  0.10758607996E+03  0.00000000000E+00 0.  1.
</event>
<event>
12    1  0.9966151E-001  0.1749061E+03  0.7818608E-02  0.1173058E+00
         21   -1    0    0  501  502  0.00000000000E+00  0.00000000000E+00  0.18515426577E+03  0.18515426577E+03  0.00000000000E+00 0.  1.
         21   -1    0    0  502  503 -0.00000000000E+00 -0.00000000000E+00 -0.16682476617E+03  0.16682476617E+03  0.00000000000E+00 0.  1.
         -6    2    1    2    0  503  0.23030094343E+02 -0.15604088835E+02  0.30552091062E+02  0.17664639843E+03  0.17174587907E+03 0.  0.
        -24    2    3    3    0    0 -0.49000105102E+02 -0.28783576537E+02  0.40962047436E+01  0.98646062221E+02  0.80528020714E+02 0.  0.
          6    2    1    2  501    0 -0.23030094343E+02  0.15604088835E+02 -0.12222591456E+02  0.17533263351E+03  0.17267966817E+03 0.  0.
         24    2    5    5    0    0 -0.80327206752E+02  0.10807272436E+02  0.66727449966E+01  0.11462767261E+03  0.80781931892E+02 0.  0.
          5    1    5    5  501    0  0.57297112410E+02  0.47968163988E+01 -0.18895336452E+02  0.60704960899E+02  0.47000000000E+01 0. -1.
        -13    1    6    6    0    0 -0.51006884034E+02 -0.20259113838E+02 -0.26113264931E+02  0.60778586013E+02  0.00000000000E+00 0.  1.
         14    1    6    6    0    0 -0.29320322719E+02  0.31066386274E+02  0.32786009928E+02  0.53849086598E+02  0.00000000000E+00 0. -1.
         -5    1    3    3    0  503  0.72030199444E+02  0.13179487702E+02  0.26455886319E+02  0.78000336211E+02  0.47000000000E+01 0.  1.
         11    1    4    4    0    0  0.12146083644E+02  0.13726168367E+02  0.14606742713E+02  0.23436978871E+02  0.00000000000E+00 0. -1.
        -12    1    4    4    0    0 -0.61146188746E+02 -0.42509744904E+02 -0.10510537969E+02  0.75209083350E+02  0.00000000000E+00 0.  1.
</event>
<event>
12    1  0.9966151E-001  0.1818561E+03  0.7818608E-02  0.1166319E+00
         21   -1    0    0  503  502  0.00000000000E+00  0.00000000000E+00  0.48230595178E+02  0.48230595178E+02  0.00000000000E+00 0. -1.
         21   -1    0    0  501  503 -0.00000000000E+00 -0.00000000000E+00 -0.69166288695E+03  0.69166288695E+03  0.00000000000E+00 0. -1.
          6    2    1    2  501    0 -0.26105470038E+02  0.38413376354E+02 -0.36658517298E+03  0.40865945977E+03  0.17453017492E+03 0.  0.
         24    2    3    3    0    0 -0.21826700099E+02 -0.46767145469E+02 -0.21332347206E+03  0.23320214832E+03  0.78821110862E+02 0.  0.
         -6    2    1    2    0  502  0.26105470038E+02 -0.38413376354E+02 -0.27684711879E+03  0.33123402236E+03  0.17582538878E+03 0.  0.
        -24    2    5    5    0    0 -0.42446557322E+02 -0.52129755430E+02 -0.20513800579E+03  0.23097532500E+03  0.82150944657E+02 0.  0.
          5    1    3    3  501    0 -0.42787699389E+01  0.85180521823E+02 -0.15326170092E+03  0.17545731145E+03  0.47000000000E+01 0. -1.
        -11    1    4    4    0    0  0.89690021743E+01 -0.29418555708E+02 -0.20028374298E+02  0.36701909990E+02  0.00000000000E+00 0.  1.
         12    1    4    4    0    0 -0.30795702274E+02 -0.17348589761E+02 -0.19329509777E+03  0.19650023833E+03  0.00000000000E+00 0. -1.
         -5    1    5    5    0  502  0.68552027360E+02  0.13716379076E+02 -0.71709113000E+02  0.10025869736E+03  0.47000000000E+01 0.  1.
         11    1    6    6    0    0 -0.18061815976E+02  0.16251200600E+02 -0.17968185785E+02  0.30218974465E+02  0.00000000000E+00 0. -1.
        -12    1    6    6    0    0 -0.24384741345E+02 -0.68380956030E+02 -0.18716982000E+03  0.20075635053E+03  0.00000000000E+00 0.  1.
</event>
<event>
12    1  0.9966151E-001  0.3024763E+03  0.7818608E-02  0.1084075E+00
         21   -1    0    0  501  502  0.00000000000E+00  0.00000000000E+00  0.12209486264E+03  0.12209486264E+03  0.00000000000E+00 0. -1.
         21   -1    0    0  502  503 -0.00000000000E+00 -0.00000000000E+00 -0.77614257178E+03  0.77614257178E+03  0.00000000000E+00 0. -1.
         -6    2    1    2    0  503  0.24755652234E+03 -0.19361986818E+02 -0.24126689705E+03  0.38649537930E+03  0.17178429590E+03 0.  0.
        -24    2    3    3    0    0  0.12137847828E+03 -0.20223035146E+01 -0.19919773305E+03  0.25228111783E+03  0.96068729878E+02 0.  0.
          6    2    1    2  501    0 -0.24755652234E+03  0.19361986818E+02 -0.41278081209E+03  0.51174205513E+03  0.17272178168E+03 0.  0.
         24    2    5    5    0    0 -0.19191820919E+03 -0.17387118229E+02 -0.20074238296E+03  0.28941683379E+03  0.79559339298E+02 0.  0.
          5    1    5    5  501    0 -0.55638313159E+02  0.36749105047E+02 -0.21203842913E+03  0.22232522133E+03  0.47000000000E+01 0. -1.
        -11    1    6    6    0    0 -0.19421242247E+03 -0.23078330681E+02 -0.20388334227E+03  0.28252343557E+03  0.00000000000E+00 0.  1.
         12    1    6    6    0    0  0.22942132855E+01  0.56912124522E+01  0.31409593075E+01  0.68933982292E+01  0.00000000000E+00 0. -1.
         -5    1    3    3    0  503  0.12617804407E+03 -0.17339683304E+02 -0.42069163995E+02  0.13421426146E+03  0.47000000000E+01 0.  1.
         11    1    4    4    0    0  0.13106397186E+03 -0.19482994627E+02 -0.15590880478E+03  0.20460915719E+03  0.00000000000E+00 0. -1.
        -12    1    4    4    0    0 -0.96854935821E+01  0.17460691113E+02 -0.43288928275E+02  0.47671960640E+02  0.00000000000E+00 0.  1.
</event>
<event>
12    1  0.9966151E-001  0.3400414E+03  0.7818608E-02  0.1066861E+00
         21   -1    0    0  503  502  0.00000000000E+00  0.00000000000E+00  0.30832821472E+03  0.30832821472E+03  0.00000000000E+00 0.  1.
         21   -1    0    0  501  503 -0.00000000000E+00 -0.00000000000E+00 -0.47245231465E+03  0.47245231465E+03  0.00000000000E+00 0. -1.
          6    2    1    2  501    0 -0.24877992603E+03  0.15362395750E+03 -0.26019621791E+03  0.42817081449E+03  0.17359839473E+03 0.  0.
         24    2    3    3    0    0 -0.23184209715E+03  0.11338385260E+03 -0.14773273489E+03  0.30743854414E+03  0.78018212149E+02 0.  0.
         -6    2    1    2    0  502  0.24877992603E+03 -0.15362395750E+03  0.96072117985E+02  0.35260971488E+03  0.17208133908E+03 0.  0.
        -24    2    5    5    0    0  0.23941013911E+03 -0.10718495571E+03  0.35893290963E+02  0.27587670362E+03  0.77548680358E+02 0.  0.
          5    1    3    3  501    0 -0.16937828878E+02  0.40240104907E+02 -0.11246348302E+03  0.12073227035E+03  0.47000000000E+01 0. -1.
        -11    1    4    4    0    0 -0.14580604694E+03  0.67754692779E+02 -0.13357626600E+03  0.20902803773E+03  0.00000000000E+00 0.  1.
         12    1    4    4    0    0 -0.86036050207E+02  0.45629159818E+02 -0.14156468885E+02  0.98410506412E+02  0.00000000000E+00 0. -1.
         -5    1    5    5    0  502  0.93697869136E+01 -0.46439001793E+02  0.60178827022E+02  0.76733011253E+02  0.47000000000E+01 0.  1.
         11    1    6    6    0    0 -0.29203744992E+01  0.21121786214E+01 -0.57603798431E+01  0.67949879824E+01  0.00000000000E+00 0. -1.
        -12    1    6    6    0    0  0.24233051361E+03 -0.10929713433E+03  0.41653670806E+02  0.26908171564E+03  0.00000000000E+00 0.  1.
</event>
<event>
12    1  0.9966151E-001  0.2005974E+03  0.7818608E-02  0.1149397E+00
         21   -1    0    0  503  502  0.00000000000E+00  0.00000000000E+00  0.35233603287E+03  0.35233603287E+03  0.00000000000E+00 0. -1.
         21   -1    0    0  501  503 -0.00000000000E+00 -0.00000000000E+00 -0.14669708392E+03  0.14669708392E+03  0.00000000000E+00 0. -1.
          6    2    1    2  501    0  0.51925467052E+01  0.10365539244E+03  0.22118207431E+03  0.29859809826E+03  0.17166220134E+03 0.  0.
         24    2    3    3    0    0  0.56002048076E+02  0.19459206115E+02  0.10974921886E+03  0.14990386672E+03  0.83134758832E+02 0.  0.
         -6    2    1    2    0  502 -0.51925467052E+01 -0.10365539244E+03 -0.15543125354E+02  0.20043501853E+03  0.17076652185E+03 0.  0.
        -24    2    5    5    0    0 -0.52332339533E+02 -0.10921387260E+02 -0.10064787860E+02  0.96157226234E+02  0.79290363485E+02 0.  0.
          5    1    3    3  501    0 -0.50809501370E+02  0.84196186326E+02  0.11143285545E+03  0.14869423154E+03  0.47000000000E+01 0. -1.
        -11    1    4    4    0    0  0.26304445537E+02  0.40617981285E+02  0.18796537921E+02  0.51913910433E+02  0.00000000000E+00 0.  1.
         12    1    4    4    0    0  0.29697602539E+02 -0.21158775169E+02  0.90952680938E+02  0.97989956287E+02  0.00000000000E+00 0. -1.
         -5    1    5    5    0  502  0.47139792828E+02 -0.92734005182E+02 -0.54783374941E+01  0.10427779230E+03  0.47000000000E+01 0.  1.
         11    1    6    6    0    0 -0.64996304496E+02 -0.30896411674E+02 -0.82277805876E+01  0.72434827437E+02  0.00000000000E+00 0. -1.
        -12    1    6    6    0    0  0.12663964963E+02  0.19975024414E+02 -0.18370072720E+01  0.23722398797E+02  0.00000000000E+00 0.  1.
</event>
<event>
12    1  0.9966151E-001  0.1800656E+03  0.7818608E-02  0.1169385E+00
         21   -1    0    0  501  502  0.00000000000E+00  0.00000000000E+00  0.17631707212E+03  0.17631707212E+03  0.00000000000E+00 0.  1.
         21   -1    0    0  502  503 -0.00000000000E+00 -0.00000000000E+00 -0.19549821383E+03  0.19549821383E+03  0.00000000000E+00 0.  1.
         -6    2    1    2    0  503  0.17345139351E+02 -0.10030371243E+02  0.47194578910E+02  0.18614767263E+03  0.17894738205E+03 0.  0.
        -24    2    3    3    0    0  0.71398809305E+02 -0.19594626793E+02 -0.32421201335E+01  0.11145346382E+03  0.83244362484E+02 0.  0.
          6    2    1    2  501    0 -0.17345139351E+02  0.10030371243E+02 -0.66375720615E+02  0.18566761331E+03  0.17223607096E+03 0.  0.
         24    2    5    5    0    0 -0.40420171955E+02 -0.43690202403E+02 -0.78017502547E+02  0.12586812963E+03  0.78825321217E+02 0.  0.
          5    1    5    5  501    0  0.23075032604E+02  0.53720573647E+02  0.11641781932E+02  0.59799483686E+02  0.47000000000E+01 0. -1.
        -11    1    6    6    0    0  0.10587679854E+02  0.20378196723E+01 -0.51165238839E+02  0.52288940887E+02  0.00000000000E+00 0.  1.
         12    1    6    6    0    0 -0.51007851809E+02 -0.45728022076E+02 -0.26852263708E+02  0.73579188738E+02  0.00000000000E+00 0. -1.
         -5    1    3    3    0  503 -0.54053669954E+02  0.95642555496E+01  0.50436699044E+02  0.74694208813E+02  0.47000000000E+01 0.  1.
         13    1    4    4    0    0 -0.42200666567E+00  0.13838744482E+02 -0.25629123731E+02  0.29129725740E+02  0.00000000000E+00 0. -1.
        -14    1    4    4    0    0  0.71820815971E+02 -0.33433371275E+02  0.22387003598E+02  0.82323738081E+02  0.00000000000E+00 0.  1.
</event>
<event>
12    1  0.9966151E-001  0.1745686E+03  0.7818608E-02  0.1173985E+00
         21   -1    0    0  501  502  0.00000000000E+00  0.00000000000E+00  0.13898221101E+03  0.13898221101E+03  0.00000000000E+00 0.  1.
         21   -1    0    0  502  503 -0.00000000000E+00 -0.00000000000E+00 -0.21644121622E+03  0.21644121622E+03  0.00000000000E+00 0.  1.
         -6    2    1    2    0  503 -0.10256360982E+02  0.24325778984E+02 -0.51604445782E+02  0.17895058396E+03  0.16930255820E+03 0.  0.
        -24    2    3    3    0    0  0.58068014127E+02  0.15154161427E+02 -0.17882539248E+02  0.10206368142E+03  0.80595700759E+02 0.  0.
          6    2    1    2  501    0  0.10256360982E+02 -0.24325778984E+02 -0.25854559427E+02  0.17647284327E+03  0.17256091593E+03 0.  0.
         24    2    5    5    0    0  0.59931088258E+02 -0.41018361074E+02  0.12859455231E+02  0.11114990888E+03  0.83154647314E+02 0.  0.
          5    1    5    5  501    0 -0.49674727277E+02  0.16692582090E+02 -0.38714014659E+02  0.65322934394E+02  0.47000000000E+01 0. -1.
        -11    1    6    6    0    0  0.55278577815E+01 -0.48282345795E+02  0.25420717754E+02  0.54844826723E+02  0.00000000000E+00 0.  1.
         12    1    6    6    0    0  0.54403230477E+02  0.72639847216E+01 -0.12561262523E+02  0.56305082155E+02  0.00000000000E+00 0. -1.
         -5    1    3    3    0  503 -0.68324375109E+02  0.91716175567E+01 -0.33721906534E+02  0.76886902545E+02  0.47000000000E+01 0.  1.
         11    1    4    4    0    0  0.14764359335E+02  0.15740833752E+02  0.30350335887E+02  0.37241147165E+02  0.00000000000E+00 0. -1.
        -12    1    4    4    0    0  0.43303654793E+02 -0.58667232495E+00 -0.48232875134E+02  0.64822534250E+02  0.00000000000E+00 0.  1.
</event>
<event>
12    1  0.9966151E-001  0.2105061E+03  0.7818608E-02  0.1141517E+00
         21   -1    0    0  501  502  0.00000000000E+00  0.00000000000E+00  0.86616385007E+03  0.86616385007E+03  0.00000000000E+00 0.  1.
         21   -1    0    0  502  503 -0.00000000000E+00 -0.00000000000E+00 -0.51647953746E+02  0.51647953746E+02  0.00000000000E+00 0.  1.
         -6    2    1    2    0  503  0.98841397776E+02  0.63365731152E+02  0.34778209798E+03  0.40652822359E+03  0.17472255465E+03 0.  0.
        -24    2    3    3    0    0  0.12474363458E+03  0.83675281171E+02  0.31035955671E+03  0.35646885595E+03  0.90468026245E+02 0.  0.
          6    2    1    2  501    0 -0.98841397776E+02 -0.63365731152E+02  0.46673379834E+03  0.51128358022E+03  0.17258511840E+03 0.  0.
         24    2    5    5    0    0 -0.23393720416E+02 -0.41512849028E+02  0.39129331146E+03  0.40227322504E+03  0.80266488656E+02 0.  0.
          5    1    5    5  501    0 -0.75447677360E+02 -0.21852882123E+02  0.75440486881E+02  0.10901035518E+03  0.47000000000E+01 0. -1.
        -13    1    6    6    0    0 -0.38647950583E+02 -0.55910988939E+02  0.34222781149E+03  0.34891199137E+03  0.00000000000E+00 0.  1.
         14    1    6    6    0    0  0.15254230167E+02  0.14398139910E+02  0.49065499972E+02  0.53361233666E+02  0.00000000000E+00 0. -1.
         -5    1    3    3    0  503 -0.25902236807E+02 -0.20309550019E+02  0.37422541268E+02  0.50059367641E+02  0.47000000000E+01 0.  1.
         11    1    4    4    0    0  0.11507430882E+03  0.31107823938E+02  0.24132981865E+03  0.26916514378E+03  0.00000000000E+00 0. -1.
        -12    1    4    4    0    0  0.96693257614E+01  0.52567457233E+02  0.69029738067E+02  0.87303712168E+02  0.00000000000E+00 0.  1.
</event>
<event>
12    1  0.9966151E-001  0.1746614E+03  0.7818608E-02  0.1173106E+00
         21   -1    0    0  501  502  0.00000000000E+00  0.00000000000E+00  0.42472277223E+02  0.42472277223E+02  0.00000000000E+00 0.  1.
         21   -1    0    0  502  503 -0.00000000000E+00 -0.00000000000E+00 -0.73237494645E+03  0.73237494645E+03  0.00000000000E+00 0.  1.
         -6    2    1    2    0  503  0.25807538743E+02  0.17416713844E+01 -0.29000714859E+03  0.33847236418E+03  0.17259876189E+03 0.  0.
        -24    2    3    3    0    0  0.47035677883E+02  0.11704018853E+02 -0.10322982593E+03  0.15017010578E+03  0.97700177370E+02 0.  0.
          6    2    1    2  501    0 -0.25807538743E+02 -0.17416713844E+01 -0.39989552064E+03  0.43637485949E+03  0.17273542802E+03 0.  0.
         24    2    5    5    0    0  0.40582137929E+02 -0.44512798970E+01 -0.32082520164E+03  0.33298657924E+03  0.79275015831E+02 0.  0.
          5    1    5    5  501    0 -0.66389676672E+02  0.27096085126E+01 -0.79070319001E+02  0.10338828025E+03  0.47000000000E+01 0. -1.
        -11    1    6    6    0    0  0.86911231332E+01  0.26943296075E+02 -0.42366621768E+02  0.50954955252E+02  0.00000000000E+00 0.  1.
         12    1    6    6    0    0  0.31891014796E+02 -0.31394575971E+02 -0.27845857987E+03  0.28203162399E+03  0.00000000000E+00 0. -1.
         -5    1    3    3    0  503 -0.21228139140E+02 -0.99623474681E+01 -0.18677732266E+03  0.18830225840E+03  0.47000000000E+01 0.  1.
         11    1    4    4    0    0 -0.93210531817E+00 -0.31723165898E+02 -0.43972087789E+01  0.32040029962E+02  0.00000000000E+00 0. -1.
        -12    1    4    4    0    0  0.47967783201E+02  0.43427184750E+02 -0.98832617151E+02  0.11813007582E+03  0.00000000000E+00 0.  1.
</event>
<event>
12    1  0.9966151E-001  0.2194842E+03  0.7818608E-02  0.1136070E+00
         21   -1    0    0  501  502  0.00000000000E+00  0.00000000000E+00  0.11027431995E+03  0.11027431995E+03  0.00000000000E+00 0. -1.
         21   -1    0    0  502  503 -0.00000000000E+00 -0.00000000000E+00 -0.44208578575E+03  0.44208578575E+03  0.00000000000E+00 0. -1.
         -6    2    1    2    0  503  0.11075962917E+03  0.46707951231E+02 -0.98434324014E+02  0.23198810056E+03  0.17227836339E+03 0.  0.
        -24    2    3    3    0    0  0.42245439846E+02  0.57259741555E+02 -0.11890228473E+03  0.15955494631E+03  0.79099130141E+02 0.  0.
          6    2    1    2  501    0 -0.11075962917E+03 -0.46707951231E+02 -0.23337714179E+03  0.32037200515E+03  0.18364096278E+03 0.  0.
         24    2    5    5    0    0 -0.75763262804E+02 -0.10681972396E+02 -0.24499920168E+03  0.26860542243E+03  0.79183884792E+02 0.  0.
          5    1    5    5  501    0 -0.34996366366E+02 -0.36025978834E+02  0.11622059893E+02  0.51766582715E+02  0.47000000000E+01 0. -1.
        -13    1    6    6    0    0 -0.80605478327E+02  0.39759226225E+01 -0.13316752746E+03  0.15571333105E+03  0.00000000000E+00 0.  1.
         14    1    6    6    0    0  0.48422155231E+01 -0.14657895019E+02 -0.11183167422E+03  0.11289209138E+03  0.00000000000E+00 0. -1.
         -5    1    3    3    0  503  0.68514189325E+02 -0.10551790324E+02  0.20467960712E+02  0.72433154243E+02  0.47000000000E+01 0.  1.
         13    1    4    4    0    0 -0.12606551632E+02 -0.10467354051E+02 -0.34681149796E+02  0.38357173985E+02  0.00000000000E+00 0. -1.
        -14    1    4    4    0    0  0.54851991478E+02  0.67727095606E+02 -0.84221134930E+02  0.12119777233E+03  0.00000000000E+00 0.  1.
</event>
<event>
12    1  0.9966151E-001  0.4070627E+03  0.7818608E-02  0.1041369E+00
         21   -1    0    0  501  502  0.00000000000E+00  0.00000000000E+00  0.36201832464E+03  0.36201832464E+03  0.00000000000E+00 0.  1.
         21   -1    0    0  502  503 -0.00000000000E+00 -0.00000000000E+00 -0.50081912290E+03  0.50081912290E+03  0.00000000000E+00 0.  1.
         -6    2    1    2    0  503 -0.16704303941E+03 -0.32911467627E+03  0.57330915689E+02  0.41098828089E+03  0.17147794607E+03 0.  0.
        -24    2    3    3    0    0 -0.64833718571E+02 -0.26124897078E+03  0.15057790554E+02  0.28113603272E+03  0.79726382324E+02 0.  0.
          6    2    1    2  501    0  0.16704303941E+03  0.32911467627E+03 -0.19613171395E+03  0.45184916665E+03  0.17169791216E+03 0.  0.
         24    2    5    5    0    0  0.13605257296E+03  0.21431903058E+03 -0.19928063354E+03  0.33280944651E+03  0.81279808672E+02 0.  0.
          5    1    5    5  501    0  0.30990466448E+02  0.11479564568E+03  0.31489195949E+01  0.11903972015E+03  0.47000000000E+01 0. -1.
        -13    1    6    6    0    0  0.26011744138E+02  0.12117593186E+02 -0.52384051717E+02  0.59728852090E+02  0.00000000000E+00 0.  1.
         14    1    6    6    0    0  0.11004082882E+03  0.20220143740E+03 -0.14689658183E+03  0.27308059441E+03  0.00000000000E+00 0. -1.
         -5    1    3    3    0  503 -0.10220932084E+03 -0.67865705489E+02  0.42273125135E+02  0.12985224818E+03  0.47000000000E+01 0.  1.
         11    1    4    4    0    0 -0.51969702221E+02 -0.10614994324E+03  0.37272482124E+02  0.12392698787E+03  0.00000000000E+00 0. -1.
        -12    1    4    4    0    0 -0.12864016350E+02 -0.15509902754E+03 -0.22214691570E+02  0.15720904485E+03  0.00000000000E+00 0.  1.
</event>
<event>
12    1  0.9966151E-001  0.2644436E+03  0.7818608E-02  0.1104636E+00
         21   -1    0    0  503  502  0.00000000000E+00  0.00000000000E+00  0.44646950356E+03  0.44646950356E+03  0.00000000000E+00 0.  1.
         21   -1    0    0  501  503 -0.00000000000E+00 -0.00000000000E+00 -0.34190133450E+03  0.34190133450E+03  0.00000000000E+00 0.  1.
          6    2    1    2  501    0  0.17808967165E+03 -0.90762966946E+02  0.34283466938E+03  0.43241953950E+03  0.17174748992E+03 0.  0.
         24    2    3    3    0    0  0.16512192616E+03 -0.50722287968E+02  0.34059371108E+03  0.39001045686E+03  0.79158571469E+02 0.  0.
         -6    2    1    2    0  502 -0.17808967165E+03  0.90762966946E+02 -0.23826650032E+03  0.35595129856E+03  0.17313738608E+03 0.  0.
        -24    2    5    5    0    0 -0.23821611795E+02  0.43929160572E+02 -0.13679696881E+03  0.16539895527E+03  0.78397470569E+02 0.  0.
          5    1    3    3  501    0  0.12967745485E+02 -0.40040678978E+02  0.22409583018E+01  0.42409082637E+02  0.47000000000E+01 0. -1.
        -13    1    4    4    0    0  0.12415142717E+03 -0.62534019174E+02  0.30217344064E+03  0.33261519606E+03  0.00000000000E+00 0.  1.
         14    1    4    4    0    0  0.40970498990E+02  0.11811731206E+02  0.38420270445E+02  0.57395260803E+02  0.00000000000E+00 0. -1.
         -5    1    5    5    0  502 -0.15426805985E+03  0.46833806374E+02 -0.10146953151E+03  0.19055234329E+03  0.47000000000E+01 0.  1.
         11    1    6    6    0    0 -0.42431790859E+02  0.10579989540E+02 -0.32957848572E+02  0.54759591276E+02  0.00000000000E+00 0. -1.
        -12    1    6    6    0    0  0.18610179064E+02  0.33349171032E+02 -0.10383912024E+03  0.11063936399E+03  0.00000000000E+00 0.  1.
</event>
<event>
12    1  0.9966151E-001  0.1856755E+03  0.7818608E-02  0.1162561E+00
         21   -1    0    0  503  502  0.00000000000E+00  0.00000000000E+00  0.49242838137E+03  0.49242838137E+03  0.00000000000E+00 0. -1.
         21   -1    0    0  501  503 -0.00000000000E+00 -0.00000000000E+00 -0.70067073840E+02  0.70067073840E+02  0.00000000000E+00 0. -1.
          6    2    1    2  501    0 -0.55552153015E+02 -0.41205555215E+02  0.22942446088E+03  0.29514567773E+03  0.17231206675E+03 0.  0.
         24    2    3    3    0    0  0.56622903248E+01 -0.54963275157E+02  0.58528113256E+02  0.11303545132E+03  0.79362775069E+02 0.  0.
         -6    2    1    2    0  502  0.55552153015E+02  0.41205555215E+02  0.19293684664E+03  0.26734977747E+03  0.17166052906E+03 0.  0.
        -24    2    5    5    0    0  0.54958483061E+02  0.67052581458E+02  0.61954188107E+02  0.13375723259E+03  0.80846721064E+02 0.  0.
          5    1    3    3  501    0 -0.61214443340E+02  0.13757719942E+02  0.17089634763E+03  0.18211022641E+03  0.47000000000E+01 0. -1.
        -13    1    4    4    0    0 -0.84810488571E+01 -0.60360190067E+01  0.61157574993E+02  0.62037171875E+02  0.00000000000E+00 0.  1.
         14    1    4    4    0    0  0.14143339182E+02 -0.48927256151E+02 -0.26294617367E+01  0.50998279448E+02  0.00000000000E+00 0. -1.
         -5    1    5    5    0  502  0.59366995400E+00 -0.25847026243E+02  0.13098265854E+03  0.13359254488E+03  0.47000000000E+01 0.  1.
         13    1    6    6    0    0  0.85696355519E+01  0.66394740365E+02  0.55414772695E+02  0.86905104766E+02  0.00000000000E+00 0. -1.
        -14    1    6    6    0    0  0.46388847509E+02  0.65784109311E+00  0.65394154124E+01  0.46852127828E+02  0.00000000000E+00 0.  1.
</event>
<event>
12    1  0.9966151E-001  0.2190405E+03  0.7818608E-02  0.1134896E+00
         21   -1    0    0  503  502  0.00000000000E+00  0.00000000000E+00  0.21843155727E+03  0.21843155727E+03  0.00000000000E+00 0. -1.
         21   -1    0    0  501  503 -0.00000000000E+00 -0.00000000000E+00 -0.32908922382E+03  0.32908922382E+03  0.00000000000E+00 0. -1.
          6    2    1    2  501    0 -0.13533885182E+03  0.32173415529E+01  0.10353756567E+03  0.24227832647E+03  0.17219699148E+03 0.  0.
         24    2    3    3    0    0 -0.26018970212E+02  0.47406703499E+02  0.73898715117E+02  0.12060627674E+03  0.78488671443E+02 0.  0.
         -6    2    1    2    0  502  0.13533885182E+03 -0.32173415529E+01 -0.21419523221E+03  0.30524245462E+03  0.17019518942E+03 0.  0.
        -24    2    5    5    0    0  0.23024928572E+01  0.15902425780E+02 -0.10468267221E+03  0.13180852165E+03  0.78465507699E+02 0.  0.
          5    1    3    3  501    0 -0.10931988161E+03 -0.44189361946E+02  0.29638850553E+02  0.12167204973E+03  0.47000000000E+01 0. -1.
        -11    1    4    4    0    0  0.49132979634E-01 -0.19774497271E+02  0.30916394492E+02  0.36699545022E+02  0.00000000000E+00 0.  1.
         12    1    4    4    0    0 -0.26068103192E+02  0.67181200770E+02  0.42982320624E+02  0.83906731716E+02  0.00000000000E+00 0. -1.
         -5    1    5    5    0  502  0.13303635896E+03 -0.19119767333E+02 -0.10951256000E+03  0.17343393297E+03  0.47000000000E+01 0.  1.
         13    1    6    6    0    0  0.13140272207E+02  0.39701078575E+02 -0.95220658003E+02  0.10399911588E+03  0.00000000000E+00 0. -1.
        -14    1    6    6    0    0 -0.10837779350E+02 -0.23798652795E+02 -0.94620142076E+01  0.27809405764E+02  0.00000000000E+00 0.  1.
</event>
<event>
12    1  0.9966151E-001  0.2099458E+03  0.7818608E-02  0.1142516E+00
         21   -1    0    0  501  502  0.00000000000E+00  0.00000000000E+00  0.33294042723E+03  0.33294042723E+03  0.00000000000E+00 0. -1.
         21   -1    0    0  502  503 -0.00000000000E+00 -0.00000000000E+00 -0.12962996205E+03  0.12962996205E+03  0.00000000000E+00 0. -1.
         -6    2    1    2    0  503 -0.70792656931E+02 -0.98366277897E+02  0.94755932571E+02  0.22622037006E+03  0.16585971231E+03 0.  0.
        -24    2    3    3    0    0 -0.92730493954E+02 -0.20697057693E+02  0.50158369771E+02  0.13389047745E+03  0.79896715754E+02 0.  0.
          6    2    1    2  501    0  0.70792656931E+02  0.98366277897E+02  0.10855453260E+03  0.23635001922E+03  0.17143430268E+03 0.  0.
         24    2    5    5    0    0  0.72587619512E+02  0.35382237261E+02  0.12744038194E+03  0.17040324849E+03  0.79217112584E+02 0.  0.
          5    1    5    5  501    0 -0.17949625809E+01  0.62984040636E+02 -0.18885849336E+02  0.65946770737E+02  0.47000000000E+01 0. -1.
        -13    1    6    6    0    0  0.61791492549E+02  0.95505520335E+01  0.30627770664E+02  0.69623716731E+02  0.00000000000E+00 0.  1.
         14    1    6    6    0    0  0.10796126963E+02  0.25831685227E+02  0.96812611276E+02  0.10077953176E+03  0.00000000000E+00 0. -1.
         -5    1    3    3    0  503  0.21937837023E+02 -0.77669220204E+02  0.44597562801E+02  0.92329892603E+02  0.47000000000E+01 0.  1.
         11    1    4    4    0    0 -0.42917095971E+02 -0.15037875029E+02 -0.18315698862E+02  0.49025295887E+02  0.00000000000E+00 0. -1.
        -12    1    4    4    0    0 -0.49813397983E+02 -0.56591826641E+01  0.68474068633E+02  0.84865181566E+02  0.00000000000E+00 0.  1.
</event>
<event>
12    1  0.9966151E-001  0.1815450E+03  0.7818608E-02  0.1166650E+00
         21   -1    0    0  501  502  0.00000000000E+00  0.00000000000E+00  0.35924856733E+02  0.35924856733E+02  0.00000000000E+00 0. -1.
         21   -1    0    0  502  503 -0.00000000000E+00 -0.00000000000E+00 -0.14371750923E+04  0.14371750923E+04  0.00000000000E+00 0. -1.
         -6    2    1    2    0  503 -0.18430109242E+02  0.56133680531E+02 -0.25642030892E+03  0.31418143442E+03  0.17166228442E+03 0.  0.
        -24    2    3    3    0    0  0.52442707422E+02  0.11467088730E+02 -0.12017941785E+03  0.15417602525E+03  0.80283389322E+02 0.  0.
          6    2    1    2  501    0  0.18430109242E+02 -0.56133680531E+02 -0.11448299267E+04  0.11589185147E+04  0.17019372358E+03 0.  0.
         24    2    5    5    0    0  0.48071268946E+02 -0.86203317723E+02 -0.10036576978E+04  0.10114923649E+04  0.77757128029E+02 0.  0.
          5    1    5    5  501    0 -0.29641159704E+02  0.30069637192E+02 -0.14117222889E+03  0.14742614978E+03  0.47000000000E+01 0. -1.
        -11    1    6    6    0    0 -0.99614333713E+01  0.94496527097E+01 -0.10206005870E+03  0.10297952065E+03  0.00000000000E+00 0.  1.
         12    1    6    6    0    0  0.58032702317E+02 -0.95652970433E+02 -0.90159763911E+03  0.90851284423E+03  0.00000000000E+00 0. -1.
         -5    1    3    3    0  503 -0.70872816665E+02  0.44666591801E+02 -0.13624089107E+03  0.16000540917E+03  0.47000000000E+01 0.  1.
         11    1    4    4    0    0  0.35442305801E+02 -0.30282690178E+02 -0.85193550401E+02  0.97114053539E+02  0.00000000000E+00 0. -1.
        -12    1    4    4    0    0  0.17000401621E+02  0.41749778909E+02 -0.34985867449E+02  0.57061971710E+02  0.00000000000E+00 0.  1.
</event>
<event>
12    1  0.9966151E-001  0.3210064E+03  0.7818608E-02  0.1075332E+00
         21   -1    0    0  503  502  0.00000000000E+00  0.00000000000E+00  0.13375609717E+03  0.13375609717E+03  0.00000000000E+00 0.  1.
         21   -1    0    0  501  503 -0.00000000000E+00 -0.00000000000E+00 -0.78462825936E+03  0.78462825936E+03  0.00000000000E+00 0.  1.
          6    2    1    2  501    0 -0.28643173888E+02  0.26907190590E+03 -0.25671728775E+03  0.41005061021E+03  0.17034557566E+03 0.  0.
         24    2    3    3    0    0 -0.79705456408E+02  0.22580658741E+03 -0.19505036328E+03  0.31892353380E+03  0.79536164728E+02 0.  0.
         -6    2    1    2    0  502  0.28643173888E+02 -0.26907190590E+03 -0.39415487445E+03  0.50833374632E+03  0.17269919122E+03 0.  0.
        -24    2    5    5    0    0  0.30000059315E+02 -0.25838634228E+03 -0.40792828001E+03  0.49022797076E+03  0.79085246695E+02 0.  0.
          5    1    3    3  501    0  0.51062282520E+02  0.43265318487E+02 -0.61666924471E+02  0.91127076403E+02  0.47000000000E+01 0. -1.
        -13    1    4    4    0    0  0.51970078359E+01 -0.42613886025E+01 -0.82885624225E+01  0.10670922655E+02  0.00000000000E+00 0.  1.
         14    1    4    4    0    0 -0.84902464244E+02  0.23006797601E+03 -0.18676180085E+03  0.30825261115E+03  0.00000000000E+00 0. -1.
         -5    1    5    5    0  502 -0.13568854275E+01 -0.10685563621E+02  0.13773405566E+02  0.18105775566E+02  0.47000000000E+01 0.  1.
         11    1    6    6    0    0 -0.19415170103E+02 -0.15599682523E+03 -0.21587883364E+03  0.26704986262E+03  0.00000000000E+00 0. -1.
        -12    1    6    6    0    0  0.49415229418E+02 -0.10238951705E+03 -0.19204944637E+03  0.22317810814E+03  0.00000000000E+00 0.  1.
</event>
<event>
12    1  0.9966151E-001  0.2345771E+03  0.7818608E-02  0.1123592E+00
         21   -1    0    0  501  502  0.00000000000E+00  0.00000000000E+00  0.12683396721E+04  0.12683396721E+04  0.00000000000E+00 0.  1.
         21   -1    0    0  502  503 -0.00000000000E+00 -0.00000000000E+00 -0.80835367423E+02  0.80835367423E+02  0.00000000000E+00 0.  1.
         -6    2    1    2    0  503  0.14254342353E+03  0.68849257484E+02  0.10543187119E+04  0.10800992438E+04  0.17311147398E+03 0.  0.
        -24    2    3    3    0    0  0.41789819128E+02  0.34205724154E+02  0.24350906659E+03  0.26230597281E+03  0.81187051399E+02 0.  0.
          6    2    1    2  501    0 -0.14254342353E+03 -0.68849257484E+02  0.13318559280E+03  0.26907579571E+03  0.17205968110E+03 0.  0.
         24    2    5    5    0    0 -0.47389160119E+02 -0.19268777631E+01 -0.19739331632E+01  0.90685419815E+02  0.77269033902E+02 0.  0.
          5    1    5    5  501    0 -0.95154263412E+02 -0.66922379721E+02  0.13515952596E+03  0.17839037589E+03  0.47000000000E+01 0. -1.
        -13    1    6    6    0    0 -0.13550783109E+02  0.20410576984E+02  0.30226523754E+02  0.38908329622E+02  0.00000000000E+00 0.  1.
         14    1    6    6    0    0 -0.33838377009E+02 -0.22337454747E+02 -0.32200456917E+02  0.51777090193E+02  0.00000000000E+00 0. -1.
         -5    1    3    3    0  503  0.10075360440E+03  0.34643533330E+02  0.81080964527E+03  0.81779327099E+03  0.47000000000E+01 0.  1.
         13    1    4    4    0    0  0.43604228818E+02  0.55612696430E+02  0.21681011264E+03  0.22803667626E+03  0.00000000000E+00 0. -1.
        -14    1    4    4    0    0 -0.18144096900E+01 -0.21406972276E+02  0.26698953947E+02  0.34269296556E+02  0.00000000000E+00 0.  1.
</event>
<event>
12    1  0.9966151E-001  0.1781479E+03  0.7818608E-02  0.1169636E+00
         21   -1    0    0  503  502  0.00000000000E+00  0.00000000000E+00  0.47805659476E+03  0.47805659476E+03  0.00000000000E+00 0.  1.
         21   -1    0    0  501  503 -0.00000000000E+00 -0.00000000000E+00 -0.70898744609E+02  0.70898744609E+02  0.00000000000E+00 0.  1.
          6    2    1    2  501    0 -0.33891062730E+02  0.33251720168E+02  0.27308587257E+03  0.32599351574E+03  0.17158553984E+03 0.  0.
         24    2    3    3    0    0 -0.75041462993E+02  0.41253061907E+02  0.12038277910E+03  0.16757097421E+03  0.79088441692E+02 0.  0.
         -6    2    1    2    0  502  0.33891062730E+02 -0.33251720168E+02  0.13407197759E+03  0.22296182363E+03  0.17170439306E+03 0.  0.
        -24    2    5    5    0    0  0.22099339094E+02 -0.68287836400E+02  0.14882716045E+03  0.18288215786E+03  0.78388459535E+02 0.  0.
          5    1    3    3  501    0  0.41150400262E+02 -0.80013417389E+01  0.15270309346E+03  0.15842254153E+03  0.47000000000E+01 0. -1.
        -11    1    4    4    0    0 -0.29535066591E+02 -0.23197542718E+02  0.35388019713E+02  0.51601919401E+02  0.00000000000E+00 0.  1.
         12    1    4    4    0    0 -0.45506396402E+02  0.64450604626E+02  0.84994759392E+02  0.11596905481E+03  0.00000000000E+00 0. -1.
         -5    1    5    5    0  502  0.11791723636E+02  0.35036116232E+02 -0.14755182860E+02  0.40079665769E+02  0.47000000000E+01 0.  1.
         11    1    6    6    0    0  0.46303738509E+02 -0.24649583768E+02  0.51517091187E+02  0.73523117889E+02  0.00000000000E+00 0. -1.
        -12    1    6    6    0    0 -0.24204399415E+02 -0.43638252632E+02  0.97310069259E+02  0.10935903997E+03  0.00000000000E+00 0.  1.
</event>
<event>
12    1  0.9966151E-001  0.2251668E+03  0.7818608E-02  0.1130384E+00
         21   -1    0    0  501  502  0.00000000000E+00  0.00000000000E+00  0.72610012228E+03  0.72610012228E+03  0.00000000000E+00 0.  1.
         21   -1    0    0  502  503 -0.00000000000E+00 -0.00000000000E+00 -0.69454002049E+02  0.69454002049E+02  0.00000000000E+00 0. -1.
         -6    2    1    2    0  503 -0.88239265380E+02 -0.11476320760E+03  0.34450317699E+03  0.41067322166E+03  0.17033289249E+03 0.  0.
        -24    2    3    3    0    0 -0.92620383275E+02 -0.17370844880E+02  0.22494044230E+03  0.25633008434E+03  0.78908984976E+02 0.  0.
          6    2    1    2  501    0  0.88239265380E+02  0.11476320760E+03  0.31214294324E+03  0.38488090266E+03  0.17246254795E+03 0.  0.
         24    2    5    5    0    0 -0.21476375372E+01  0.18720604086E+00  0.11910138919E+03  0.14283837759E+03  0.78822673218E+02 0.  0.
          5    1    5    5  501    0  0.90386902917E+02  0.11457600156E+03  0.19304155405E+03  0.24204252507E+03  0.47000000000E+01 0. -1.
        -13    1    6    6    0    0 -0.21331763726E+02  0.27875322913E+02  0.95395161038E+02  0.10164799320E+03  0.00000000000E+00 0.  1.
         14    1    6    6    0    0  0.19184126189E+02 -0.27688116872E+02  0.23706228149E+02  0.41190384395E+02  0.00000000000E+00 0. -1.
         -5    1    3    3    0  503  0.43811178957E+01 -0.97392362720E+02  0.11956273469E+03  0.15434313732E+03  0.47000000000E+01 0.  1.
         13    1    4    4    0    0 -0.73703202436E+02 -0.30200310708E+02  0.21852661795E+03  0.23258999026E+03  0.00000000000E+00 0. -1.
        -14    1    4    4    0    0 -0.18917180839E+02  0.12829465828E+02  0.64138243429E+01  0.23740094083E+02  0.00000000000E+00 0.  1.
</event>
<event>
12    1  0.9966151E-001  0.2204545E+03  0.7818608E-02  0.1134732E+00
         21   -1    0    0  501  502  0.00000000000E+00  0.00000000000E+00  0.94706976421E+03  0.94706976421E+03  0.00000000000E+00 0. -1.
         21   -1    0    0  502  503 -0.00000000000E+00 -0.00000000000E+00 -0.52908886701E+02  0.52908886701E+02  0.00000000000E+00 0. -1.
         -6    2    1    2    0  503 -0.46710294148E+02  0.11987910057E+03  0.56094755971E+03  0.60043979414E+03  0.17121019629E+03 0.  0.
        -24    2    3    3    0    0  0.33197779378E+02  0.27778491604E+02  0.26376293609E+03  0.27917882094E+03  0.80598948230E+02 0.  0.
          6    2    1    2  501    0  0.46710294148E+02 -0.11987910057E+03  0.33321331780E+03  0.39953885676E+03  0.17901768788E+03 0.  0.
         24    2    5    5    0    0  0.57140433693E+01 -0.55433987354E+02  0.30170842630E+03  0.31678311145E+03  0.78854219604E+02 0.  0.
          5    1    5    5  501    0  0.40996250779E+02 -0.64445113214E+02  0.31504891491E+02  0.82755745317E+02  0.47000000000E+01 0. -1.
        -13    1    6    6    0    0  0.36763482587E+02 -0.54134779539E+02  0.20898242306E+03  0.21898808451E+03  0.00000000000E+00 0.  1.
         14    1    6    6    0    0 -0.31049439218E+02 -0.12992078157E+01  0.92726003242E+02  0.97795026938E+02  0.00000000000E+00 0. -1.
         -5    1    3    3    0  503 -0.79908073527E+02  0.92100608965E+02  0.29718462362E+03  0.32126097320E+03  0.47000000000E+01 0.  1.
         11    1    4    4    0    0  0.28932212440E+02 -0.35754359224E+01  0.25223293728E+02  0.38549594099E+02  0.00000000000E+00 0. -1.
        -12    1    4    4    0    0  0.42655669388E+01  0.31353927526E+02  0.23853964236E+03  0.24062922684E+03  0.00000000000E+00 0.  1.
</event>
<event>
12    1  0.9966151E-001  0.2345618E+03  0.7818608E-02  0.1123487E+00
         21   -1    0    0  503  502  0.00000000000E+00  0.00000000000E+00  0.44100395921E+03  0.44100395921E+03  0.00000000000E+00 0. -1.
         21   -1    0    0  501  503 -0.00000000000E+00 -0.00000000000E+00 -0.12858976701E+03  0.12858976701E+03  0.00000000000E+00 0. -1.
          6    2    1    2  501    0  0.53341748236E+02  0.15086840547E+03  0.20573387120E+03  0.31200265423E+03  0.17150105717E+03 0.  0.
         24    2    3    3    0    0 -0.16791258795E+02  0.10160885440E+03  0.54972639729E+02  0.13852014513E+03  0.74562281514E+02 0.  0.
         -6    2    1    2    0  502 -0.53341748236E+02 -0.15086840547E+03  0.10668032099E+03  0.25759107199E+03  0.17136467433E+03 0.  0.
        -24    2    5    5    0    0 -0.13575140352E+02 -0.14009302006E+03  0.13200046640E+03  0.20900412110E+03  0.80301063503E+02 0.  0.
          5    1    3    3  501    0  0.70133007031E+02  0.49259551076E+02  0.15076123148E+03  0.17348250910E+03  0.47000000000E+01 0. -1.
        -11    1    4    4    0    0 -0.37510934802E+02  0.62790309948E+02  0.59498988814E+02  0.94285857491E+02  0.00000000000E+00 0.  1.
         12    1    4    4    0    0  0.20719676006E+02  0.38818544448E+02 -0.45263490846E+01  0.44234287638E+02  0.00000000000E+00 0. -1.
         -5    1    5    5    0  502 -0.39766607884E+02 -0.10775385407E+02 -0.25320145415E+02  0.48586950893E+02  0.47000000000E+01 0.  1.
         11    1    6    6    0    0  0.19948342223E+02 -0.10640789153E+03  0.11645064778E+03  0.15900103492E+03  0.00000000000E+00 0. -1.
        -12    1    6    6    0    0 -0.33523482575E+02 -0.33685128536E+02  0.15549818624E+02  0.50003086182E+02  0.00000000000E+00 0.  1.
</event>
<event>
12    1  0.9966151E-001  0.4032252E+03  0.7818608E-02  0.1042718E+00
         21   -1    0    0  501  502  0.00000000000E+00  0.00000000000E+00  0.45824842537E+03  0.45824842537E+03  0.00000000000E+00 0.  1.
         21   -1    0    0  502  503 -0.00000000000E+00 -0.00000000000E+00 -0.53285122183E+03  0.53285122183E+03  0.00000000000E+00 0.  1.
         -6    2    1    2    0  503  0.24212394349E+03  0.27159375972E+03 -0.32417434251E+03  0.51737754951E+03  0.17379111043E+03 0.  0.
        -24    2    3    3    0    0  0.14785194454E+03  0.18396747076E+03 -0.29146982314E+03  0.38449695691E+03  0.84729122906E+02 0.  0.
          6    2    1    2  501    0 -0.24212394349E+03 -0.27159375972E+03  0.24957154605E+03  0.47372209768E+03  0.17245142767E+03 0.  0.
         24    2    5    5    0    0 -0.77716702770E+02 -0.10763068905E+03  0.16644963040E+03  0.22705436123E+03  0.78892029882E+02 0.  0.
          5    1    5    5  501    0 -0.16440724072E+03 -0.16396307067E+03  0.83121915650E+02  0.24666773645E+03  0.47000000000E+01 0. -1.
        -13    1    6    6    0    0  0.10546340876E+02 -0.43683766672E+02  0.40539661261E+02  0.60522400082E+02  0.00000000000E+00 0.  1.
         14    1    6    6    0    0 -0.88263043647E+02 -0.63946922373E+02  0.12590996914E+03  0.16653196115E+03  0.00000000000E+00 0. -1.
         -5    1    3    3    0  503  0.94271998949E+02  0.87626288951E+02 -0.32704519370E+02  0.13288059260E+03  0.47000000000E+01 0.  1.
         11    1    4    4    0    0  0.22325521095E+02  0.53358633566E+02 -0.26745365331E+02  0.63725091093E+02  0.00000000000E+00 0. -1.
        -12    1    4    4    0    0  0.12552642345E+03  0.13060883720E+03 -0.26472445781E+03  0.32077186582E+03  0.00000000000E+00 0.  1.
</event>
<event>
12    1  0.9966151E-001  0.1799862E+03  0.7818608E-02  0.1168123E+00
         21   -1    0    0  501  502  0.00000000000E+00  0.00000000000E+00  0.95466289894E+02  0.95466289894E+02  0.00000000000E+00 0.  1.
         21   -1    0    0  502  503 -0.00000000000E+00 -0.00000000000E+00 -0.56770191156E+03  0.56770191156E+03  0.00000000000E+00 0.  1.
         -6    2    1    2    0  503 -0.41758605648E+02  0.22566260311E+02 -0.25214984875E+02  0.18174389785E+03  0.17361460680E+03 0.  0.
        -24    2    3    3    0    0 -0.42791638017E+02  0.72035705356E+02 -0.49812903572E+02  0.12628724133E+03  0.80292433200E+02 0.  0.
          6    2    1    2  501    0  0.41758605648E+02 -0.22566260311E+02 -0.44702063679E+03  0.48142430360E+03  0.17230465209E+03 0.  0.
         24    2    5    5    0    0  0.47384161360E+02  0.44786520542E+01 -0.43758694227E+03  0.45185812775E+03  0.10211815951E+03 0.  0.
          5    1    5    5  501    0 -0.56255557122E+01 -0.27044912365E+02 -0.94336945227E+01  0.29566175848E+02  0.47000000000E+01 0. -1.
        -11    1    6    6    0    0  0.51962718143E+02  0.35528945039E+02 -0.15153199614E+03  0.16408648899E+03  0.00000000000E+00 0.  1.
         12    1    6    6    0    0 -0.45785567833E+01 -0.31050292985E+02 -0.28605494612E+03  0.28777163877E+03  0.00000000000E+00 0. -1.
         -5    1    3    3    0  503  0.10330323686E+01 -0.49469445045E+02  0.24597918697E+02  0.55456656527E+02  0.47000000000E+01 0.  1.
         11    1    4    4    0    0  0.42224716122E+01  0.13294796683E+02 -0.49102527579E+02  0.51045461111E+02  0.00000000000E+00 0. -1.
        -12    1    4    4    0    0 -0.47014109629E+02  0.58740908673E+02 -0.71037599285E+00  0.75241780215E+02  0.00000000000E+00 0.  1.
</event>
<event>
12    1  0.9966151E-001  0.1785258E+03  0.7818608E-02  0.1169341E+00
         21   -1    0    0  501  502  0.00000000000E+00  0.00000000000E+00  0.65966420883E+03  0.65966420883E+03  0.00000000000E+00 0. -1.
         21   -1    0    0  502  503 -0.00000000000E+00 -0.00000000000E+00 -0.48225757406E+02  0.48225757406E+02  0.00000000000E+00 0. -1.
         -6    2    1    2    0  503  0.12078905539E+02  0.45748916842E+02  0.31427274501E+03  0.36143990534E+03  0.17214117335E+03 0.  0.
        -24    2    3    3    0    0 -0.47233006937E+02 -0.14352837259E+02  0.15896721843E+03  0.18460093793E+03  0.79812084723E+02 0.  0.
          6    2    1    2  501    0 -0.12078905539E+02 -0.45748916842E+02  0.29716570641E+03  0.34645006089E+03  0.17170126463E+03 0.  0.
         24    2    5    5    0    0 -0.12289263255E+02 -0.72080517482E+02  0.30031752928E+03  0.31951641224E+03  0.80953642916E+02 0.  0.
          5    1    5    5  501    0  0.21035771604E+00  0.26331600640E+02 -0.31518228720E+01  0.26933648658E+02  0.47000000000E+01 0. -1.
        -13    1    6    6    0    0 -0.39571016636E+01  0.17900197675E+02  0.41228227097E+02  0.45120310725E+02  0.00000000000E+00 0.  1.
         14    1    6    6    0    0 -0.83321615914E+01 -0.89980715157E+02  0.25908930219E+03  0.27439610151E+03  0.00000000000E+00 0. -1.
         -5    1    3    3    0  503  0.59311912476E+02  0.60101754100E+02  0.15530552658E+03  0.17683896741E+03  0.47000000000E+01 0.  1.
         11    1    4    4    0    0  0.91023779260E+01 -0.31494023211E+02  0.76873171728E+02  0.83571593938E+02  0.00000000000E+00 0. -1.
        -12    1    4    4    0    0 -0.56335384863E+02  0.17141185953E+02  0.82094046700E+02  0.10102934399E+03  0.00000000000E+00 0.  1.
</event>
<event>
12    1  0.9966151E-001  0.2522307E+03  0.7818608E-02  0.1112014E+00
         21   -1    0    0  501  502  0.00000000000E+00  0.00000000000E+00  0.62748397768E+02  0.62748397768E+02  0.00000000000E+00 0.  1.
         21   -1    0    0  502  503 -0.00000000000E+00 -0.00000000000E+00 -0.11833045323E+04  0.11833045323E+04  0.00000000000E+00 0.  1.
         -6    2    1    2    0  503 -0.65506737324E+02  0.17202461130E+03 -0.32324633470E+03  0.41001036727E+03  0.17244334965E+03 0.  0.
        -24    2    3    3    0    0 -0.93685203694E+02  0.17673937284E+03 -0.24341121886E+03  0.32508692724E+03  0.80117198492E+02 0.  0.
          6    2    1    2  501    0  0.65506737324E+02 -0.17202461130E+03 -0.79730979982E+03  0.83604256279E+03  0.17140784808E+03 0.  0.
         24    2    5    5    0    0  0.86582667718E+02 -0.15338652570E+03 -0.77493927285E+03  0.79979199653E+03  0.90068732129E+02 0.  0.
          5    1    5    5  501    0 -0.21075930394E+02 -0.18638085601E+02 -0.22370526975E+02  0.36250566257E+02  0.47000000000E+01 0. -1.
        -13    1    6    6    0    0  0.32614273871E+02  0.60743453735E+00 -0.17734028307E+03  0.18031537881E+03  0.00000000000E+00 0.  1.
         14    1    6    6    0    0  0.53968393846E+02 -0.15399396024E+03 -0.59759898977E+03  0.61947661772E+03  0.00000000000E+00 0. -1.
         -5    1    3    3    0  503  0.28178466370E+02 -0.47147615385E+01 -0.79835115847E+02  0.84923440025E+02  0.47000000000E+01 0.  1.
         11    1    4    4    0    0 -0.70279901076E+02  0.15166676843E+03 -0.23727371152E+03  0.29024280752E+03  0.00000000000E+00 0. -1.
        -12    1    4    4    0    0 -0.23405302618E+02  0.25072604413E+02 -0.61375073397E+01  0.34844119720E+02  0.00000000000E+00 0.  1.
</event>
<event>
12    1  0.9966151E-001  0.1903678E+03  0.7818608E-02  0.1158227E+00
         21   -1    0    0  501  502  0.00000000000E+00  0.00000000000E+00  0.96253304240E+02  0.96253304240E+02  0.00000000000E+00 0.  1.
         21   -1    0    0  502  503 -0.00000000000E+00 -0.00000000000E+00 -0.41165266281E+03  0.41165266281E+03  0.00000000000E+00 0.  1.
         -6    2    1    2    0  503 -0.80445456744E+02  0.94854240980E+01 -0.82435263527E+02  0.20705356674E+03  0.17179686273E+03 0.  0.
        -24    2    3    3    0    0 -0.24857731652E+02  0.61279088300E+02 -0.12888623623E+02  0.10394486703E+03  0.79154186737E+02 0.  0.
          6    2    1    2  501    0  0.80445456744E+02 -0.94854240980E+01 -0.23296409505E+03  0.30085240032E+03  0.17227435217E+03 0.  0.
         24    2    5    5    0    0  0.17168171929E+02 -0.62967187688E+02 -0.15523539079E+03  0.18715035427E+03  0.81655469485E+02 0.  0.
          5    1    5    5  501    0  0.63277284815E+02  0.53481763590E+02 -0.77728704262E+02  0.11370204605E+03  0.47000000000E+01 0. -1.
        -11    1    6    6    0    0  0.55909395946E+01 -0.40394327120E+02 -0.13193111176E+02  0.42860453236E+02  0.00000000000E+00 0.  1.
         12    1    6    6    0    0  0.11577232334E+02 -0.22572860567E+02 -0.14204227961E+03  0.14428990103E+03  0.00000000000E+00 0. -1.
         -5    1    3    3    0  503 -0.55587725092E+02 -0.51793664202E+02 -0.69546639903E+02  0.10310869970E+03  0.47000000000E+01 0.  1.
         11    1    4    4    0    0 -0.35807650052E+02 -0.23881633228E+01  0.65535267617E+01  0.36480677616E+02  0.00000000000E+00 0. -1.
        -12    1    4    4    0    0  0.10949918400E+02  0.63667251622E+02 -0.19442150385E+02  0.67464189417E+02  0.00000000000E+00 0.  1.
</event>
<event>
12    1  0.9966151E-001  0.2236684E+03  0.7818608E-02  0.1131631E+00
         21   -1    0    0  503  502  0.00000000000E+00  0.00000000000E+00  0.78866814109E+03  0.78866814109E+03  0.00000000000E+00 0.  1.
         21   -1    0    0  501  503 -0.00000000000E+00 -0.00000000000E+00 -0.63117047312E+02  0.63117047312E+02  0.00000000000E+00 0.  1.
          6    2    1    2  501    0  0.73125096446E+02 -0.11816867114E+03  0.33157057069E+03  0.39995823153E+03  0.17526103117E+03 0.  0.
         24    2    3    3    0    0 -0.57555607082E+01 -0.39480323259E+02  0.63852720373E+02  0.10994279824E+03  0.80115083362E+02 0.  0.
         -6    2    1    2    0  502 -0.73125096446E+02  0.11816867114E+03  0.39398052308E+03  0.45182695687E+03  0.17209250947E+03 0.  0.
        -24    2    5    5    0    0 -0.14748350617E+02 -0.78218467019E+01  0.17093134353E+03  0.18904476277E+03  0.79004449217E+02 0.  0.
          5    1    3    3  501    0  0.78880657154E+02 -0.78688347883E+02  0.26771785032E+03  0.29001543329E+03  0.47000000000E+01 0. -1.
        -11    1    4    4    0    0 -0.23290447061E+02  0.17607073040E+02  0.15218181133E+02  0.32924868752E+02  0.00000000000E+00 0.  1.
         12    1    4    4    0    0  0.17534886353E+02 -0.57087396299E+02  0.48634539240E+02  0.77017929488E+02  0.00000000000E+00 0. -1.
         -5    1    5    5    0  502 -0.58376745829E+02  0.12599051784E+03  0.22304917955E+03  0.26278219411E+03  0.47000000000E+01 0.  1.
         11    1    6    6    0    0  0.14425357556E+02  0.29112740919E+02  0.54352657838E+02  0.63323408298E+02  0.00000000000E+00 0. -1.
        -12    1    6    6    0    0 -0.29173708173E+02 -0.36934587621E+02  0.11657868569E+03  0.12572135447E+03  0.00000000000E+00 0.  1.
</event>
<event>
12    1  0.9966151E-001  0.1962589E+03  0.7818608E-02  0.1153468E+00
         21   -1    0    0  501  502  0.00000000000E+00  0.00000000000E+00  0.48984726716E+03  0.48984726716E+03  0.00000000000E+00 0.  1.
         21   -1    0    0  502  503 -0.00000000000E+00 -0.00000000000E+00 -0.77996803450E+02  0.77996803450E+02  0.00000000000E+00 0.  1.
         -6    2    1    2    0  503  0.29861717208E+02  0.89777153467E+02  0.18833772928E+03  0.27200852923E+03  0.17194731828E+03 0.  0.
        -24    2    3    3    0    0  0.24924454580E+02  0.85049480136E+02  0.43513963053E+02  0.12694736723E+03  0.79796782880E+02 0.  0.
          6    2    1    2  501    0 -0.29861717208E+02 -0.89777153467E+02  0.22351273443E+03  0.29583554138E+03  0.16914214629E+03 0.  0.
         24    2    5    5    0    0  0.32063863079E+02 -0.23452577111E+02  0.54136942293E+02  0.10362738368E+03  0.78928521078E+02 0.  0.
          5    1    5    5  501    0 -0.61925580287E+02 -0.66324576356E+02  0.16937579213E+03  0.19220815769E+03  0.47000000000E+01 0. -1.
        -11    1    6    6    0    0 -0.11104380314E+02 -0.35636066797E+00 -0.15150920664E+02  0.18787885779E+02  0.00000000000E+00 0.  1.
         12    1    6    6    0    0  0.43168243393E+02 -0.23096216443E+02  0.69287862957E+02  0.84839497905E+02  0.00000000000E+00 0. -1.
         -5    1    3    3    0  503  0.49372626280E+01  0.47276733316E+01  0.14482376623E+03  0.14506116200E+03  0.47000000000E+01 0.  1.
         11    1    4    4    0    0 -0.12935685454E+02  0.34868302663E+02  0.51559943590E+02  0.63573251228E+02  0.00000000000E+00 0. -1.
        -12    1    4    4    0    0  0.37860140033E+02  0.50181177473E+02 -0.80459805369E+01  0.63374116000E+02  0.00000000000E+00 0.  1.
</event>
<event>
12    1  0.9966151E-001  0.1983199E+03  0.7818608E-02  0.1151437E+00
         21   -1    0    0  503  502  0.00000000000E+00  0.00000000000E+00  0.30632391652E+02  0.30632391652E+02  0.00000000000E+00 0. -1.
         21   -1    0    0  501  503 -0.00000000000E+00 -0.00000000000E+00 -0.12853581607E+04  0.12853581607E+04  0.00000000000E+00 0. -1.
          6    2    1    2  501    0 -0.96662785226E+02 -0.22403966414E+02 -0.57241764771E+03  0.60579926855E+03  0.17171242995E+03 0.  0.
         24    2    3    3    0    0 -0.71996807675E+02 -0.38106269302E+02 -0.18576047527E+03  0.21800959389E+03  0.79909954216E+02 0.  0.
         -6    2    1    2    0  502  0.96662785226E+02  0.22403966414E+02 -0.68230812131E+03  0.71019128378E+03  0.17023999352E+03 0.  0.
        -24    2    5    5    0    0  0.38730682756E+02 -0.51955283121E+02 -0.35311327823E+03  0.36773433583E+03  0.79624978843E+02 0.  0.
          5    1    3    3  501    0 -0.24665977550E+02  0.15702302888E+02 -0.38665717244E+03  0.38778967465E+03  0.47000000000E+01 0. -1.
        -11    1    4    4    0    0 -0.35778397929E+02 -0.59347543502E+02 -0.13796275084E+03  0.15438894163E+03  0.00000000000E+00 0.  1.
         12    1    4    4    0    0 -0.36218409747E+02  0.21241274200E+02 -0.47797724431E+02  0.63620652268E+02  0.00000000000E+00 0. -1.
         -5    1    5    5    0  502  0.57932102470E+02  0.74359249535E+02 -0.32919484308E+03  0.34245694795E+03  0.47000000000E+01 0.  1.
         13    1    6    6    0    0  0.42741096166E+02 -0.70997426004E+02 -0.29688296548E+03  0.30823194350E+03  0.00000000000E+00 0. -1.
        -14    1    6    6    0    0 -0.40104134094E+01  0.19042142883E+02 -0.56230312747E+02  0.59502392329E+02  0.00000000000E+00 0.  1.
</event>
<event>
12    1  0.9966151E-001  0.1729829E+03  0.7818608E-02  0.1174788E+00
         21   -1    0    0  503  502  0.00000000000E+00  0.00000000000E+00  0.86458325333E+02  0.86458325333E+02  0.00000000000E+00 0.  1.
         21   -1    0    0  501  503 -0.00000000000E+00 -0.00000000000E+00 -0.34933285355E+03  0.34933285355E+03  0.00000000000E+00 0.  1.
          6    2    1    2  501    0  0.27325002610E+02  0.36219201999E+01 -0.15281534479E+03  0.23081507519E+03  0.17077264201E+03 0.  0.
         24    2    3    3    0    0 -0.31834648524E+02  0.40574566766E+02 -0.95022252360E+02  0.14010954094E+03  0.89116298761E+02 0.  0.
         -6    2    1    2    0  502 -0.27325002610E+02 -0.36219201999E+01 -0.11005918342E+03  0.20497610369E+03  0.17071146755E+03 0.  0.
        -24    2    5    5    0    0  0.41604145536E+02  0.73797538843E+01 -0.15762713604E+02  0.87561545318E+02  0.75054616015E+02 0.  0.
          5    1    3    3  501    0  0.59159651135E+02 -0.36952646566E+02 -0.57793092434E+02  0.90705534251E+02  0.47000000000E+01 0. -1.
        -13    1    4    4    0    0  0.13729659214E+02  0.29069879056E+02 -0.86588961640E+02  0.92364547789E+02  0.00000000000E+00 0.  1.
         14    1    4    4    0    0 -0.45564307738E+02  0.11504687710E+02 -0.84332907205E+01  0.47744993154E+02  0.00000000000E+00 0. -1.
         -5    1    5    5    0  502 -0.68929148146E+02 -0.11001674084E+02 -0.94296469816E+02  0.11741455837E+03  0.47000000000E+01 0.  1.
         11    1    6    6    0    0  0.18693329686E+02  0.22304351085E+02 -0.41049034034E+02  0.50318464277E+02  0.00000000000E+00 0. -1.
        -12    1    6    6    0    0  0.22910815850E+02 -0.14924597200E+02  0.25286320431E+02  0.37243081041E+02  0.00000000000E+00 0.  1.
</event>
<event>
12    1  0.9966151E-001  0.1765399E+03  0.7818608E-02  0.1171527E+00
         21   -1    0    0  501  502  0.00000000000E+00  0.00000000000E+00  0.90224224960E+02  0.90224224960E+02  0.00000000000E+00 0.  1.
         21   -1    0    0  502  503 -0.00000000000E+00 -0.00000000000E+00 -0.35271869528E+03  0.35271869528E+03  0.00000000000E+00 0.  1.
         -6    2    1    2    0  503  0.30854682685E+02 -0.67592712689E+01 -0.16785127764E+03  0.24263398853E+03  0.17233543394E+03 0.  0.
        -24    2    3    3    0    0 -0.79348165876E+01  0.58791683416E+02 -0.91594244852E+02  0.13475082041E+03  0.79049696760E+02 0.  0.
          6    2    1    2  501    0 -0.30854682685E+02  0.67592712689E+01 -0.94643192688E+02  0.20030893172E+03  0.17369120591E+03 0.  0.
         24    2    5    5    0    0  0.32586054568E+02  0.28959870565E+02 -0.10968949989E+02  0.92879593808E+02  0.81275925259E+02 0.  0.
          5    1    5    5  501    0 -0.63440737253E+02 -0.22200599296E+02 -0.83674242699E+02  0.10742933791E+03  0.47000000000E+01 0. -1.
        -13    1    6    6    0    0  0.14217214878E+01  0.26513163729E+02  0.30828027864E+02  0.40685826093E+02  0.00000000000E+00 0.  1.
         14    1    6    6    0    0  0.31164333080E+02  0.24467068359E+01 -0.41796977853E+02  0.52193767715E+02  0.00000000000E+00 0. -1.
         -5    1    3    3    0  503  0.38789499272E+02 -0.65550954685E+02 -0.76257032784E+02  0.10788316812E+03  0.47000000000E+01 0.  1.
         13    1    4    4    0    0 -0.25373926967E+02  0.10175348328E+02 -0.76047688191E+02  0.80812281013E+02  0.00000000000E+00 0. -1.
        -14    1    4    4    0    0  0.17439110380E+02  0.48616335088E+02 -0.15546556661E+02  0.53938539397E+02  0.00000000000E+00 0.  1.
</event>
<event>
12    1  0.9966151E-001  0.1998155E+03  0.7818608E-02  0.1150077E+00
         21   -1    0    0  503  502  0.00000000000E+00  0.00000000000E+00  0.13144908082E+03  0.13144908082E+03  0.00000000000E+00 0. -1.
         21   -1    0    0  501  503 -0.00000000000E+00 -0.00000000000E+00 -0.47787892859E+03  0.47787892859E+03  0.00000000000E+00 0. -1.
          6    2    1    2  501    0 -0.95244303843E+02 -0.35388689861E+02  0.11620664212E+02  0.19929581812E+03  0.17105539015E+03 0.  0.
         24    2    3    3    0    0 -0.44876386778E+02  0.17210938182E+02 -0.45852725551E+02  0.10640379225E+03  0.83121525980E+02 0.  0.
         -6    2    1    2    0  502  0.95244303843E+02  0.35388689861E+02 -0.35805051199E+03  0.41003219128E+03  0.17205345672E+03 0.  0.
        -24    2    5    5    0    0  0.11462286486E+03  0.17244681200E+02 -0.17537704388E+03  0.22538003282E+03  0.81260516194E+02 0.  0.
          5    1    3    3  501    0 -0.50367917065E+02 -0.52599628043E+02  0.57473389763E+02  0.92892025872E+02  0.47000000000E+01 0. -1.
        -13    1    4    4    0    0 -0.15886759673E+02 -0.33798055403E+02 -0.17953561332E+02  0.41437037134E+02  0.00000000000E+00 0.  1.
         14    1    4    4    0    0 -0.28989627105E+02  0.51008993584E+02 -0.27899164219E+02  0.64966755116E+02  0.00000000000E+00 0. -1.
         -5    1    5    5    0  502 -0.19378561021E+02  0.18144008661E+02 -0.18267346810E+03  0.18465215846E+03  0.47000000000E+01 0.  1.
         11    1    6    6    0    0  0.68848011500E+01 -0.20692552715E+02 -0.90540078642E+01  0.23612650913E+02  0.00000000000E+00 0. -1.
        -12    1    6    6    0    0  0.10773806371E+03  0.37937233915E+02 -0.16632303602E+03  0.20176738190E+03  0.00000000000E+00 0.  1.
</event>
<event>
12    1  0.9966151E-001  0.3743560E+03  0.7818608E-02  0.1053129E+00
         21   -1    0    0  501  502  0.00000000000E+00  0.00000000000E+00  0.14435304435E+04  0.14435304435E+04  0.00000000000E+00 0.  1.
         21   -1    0    0  502  503 -0.00000000000E+00 -0.00000000000E+00 -0.10469481803E+03  0.10469481803E+03  0.00000000000E+00 0.  1.
         -6    2    1    2    0  503  0.13279363173E+03  0.30499824143E+03  0.88227072859E+03  0.95840702972E+03  0.17170998860E+03 0.  0.
        -24    2    3    3    0    0  0.19637502676E+02  0.15602454254E+03  0.55615226095E+03  0.58241126187E+03  0.71890550194E+02 0.  0.
          6    2    1    2  501    0 -0.13279363173E+03 -0.30499824143E+03  0.45656489692E+03  0.58981823184E+03  0.16963480070E+03 0.  0.
         24    2    5    5    0    0 -0.41023507842E+02 -0.24754796819E+03  0.33798168294E+03  0.42917465690E+03  0.83644147233E+02 0.  0.
          5    1    5    5  501    0 -0.91770123892E+02 -0.57450273242E+02  0.11858321398E+03  0.16064357495E+03  0.47000000000E+01 0. -1.
        -11    1    6    6    0    0  0.24160402816E+02 -0.48129909901E+02  0.83502171812E+02  0.99362095331E+02  0.00000000000E+00 0.  1.
         12    1    6    6    0    0 -0.65183910658E+02 -0.19941805829E+03  0.25447951113E+03  0.32981256156E+03  0.00000000000E+00 0. -1.
         -5    1    3    3    0  503  0.11315612906E+03  0.14897369889E+03  0.32611846763E+03  0.37599576784E+03  0.47000000000E+01 0.  1.
         13    1    4    4    0    0  0.27951020314E+02  0.70905065603E+02  0.36688711120E+03  0.37471981563E+03  0.00000000000E+00 0. -1.
        -14    1    4    4    0    0 -0.83135176375E+01  0.85119476937E+02  0.18926514976E+03  0.20769144624E+03  0.00000000000E+00 0.  1.
</event>
<event>
12    1  0.9966151E-001  0.3050100E+03  0.7818608E-02  0.1082765E+00
         21   -1    0    0  503  502  0.00000000000E+00  0.00000000000E+00  0.59124258146E+03  0.59124258146E+03  0.00000000000E+00 0. -1.
         21   -1    0    0  501  503 -0.00000000000E+00 -0.00000000000E+00 -0.18220868870E+03  0.18220868870E+03  0.00000000000E+00 0. -1.
          6    2    1    2  501    0 -0.99603435083E+02 -0.23089393092E+03  0.34739043553E+03  0.46227443580E+03  0.17258240838E+03 0.  0.
         24    2    3    3    0    0 -0.77458366365E+02 -0.69927578041E+02  0.21012995283E+03  0.24952317038E+03  0.84956169812E+02 0.  0.
         -6    2    1    2    0  502  0.99603435083E+02  0.23089393092E+03  0.61643457239E+02  0.31117683437E+03  0.17262171013E+03 0.  0.
        -24    2    5    5    0    0  0.72277098673E+02  0.63727443948E+02 -0.13118279090E+02  0.12596676378E+03  0.80064787674E+02 0.  0.
          5    1    3    3  501    0 -0.22145068718E+02 -0.16096635288E+03  0.13726048270E+03  0.21275126542E+03  0.47000000000E+01 0. -1.
        -11    1    4    4    0    0 -0.76839572721E+02 -0.86864923143E+02  0.16828688720E+03  0.20437786380E+03  0.00000000000E+00 0.  1.
         12    1    4    4    0    0 -0.61879364420E+00  0.16937345102E+02  0.41843065631E+02  0.45145306579E+02  0.00000000000E+00 0. -1.
         -5    1    5    5    0  502  0.27326336410E+02  0.16716648697E+03  0.74761736329E+02  0.18521007059E+03  0.47000000000E+01 0.  1.
         11    1    6    6    0    0 -0.16613432250E+02  0.19176458979E+02 -0.71383772162E+01  0.26357145888E+02  0.00000000000E+00 0. -1.
        -12    1    6    6    0    0  0.88890530923E+02  0.44550984968E+02 -0.59799018737E+01  0.99609617888E+02  0.00000000000E+00 0.  1.
</event>
<event>
12    1  0.9966151E-001  0.3224599E+03  0.7818608E-02  0.1074574E+00
         21   -1    0    0  503  502  0.00000000000E+00  0.00000000000E+00  0.12338712766E+04  0.12338712766E+04  0.00000000000E+00 0. -1.
         21   -1    0    0  501  503 -0.00000000000E+00 -0.00000000000E+00 -0.18607609519E+03  0.18607609519E+03  0.00000000000E+00 0. -1.
          6    2    1    2  501    0  0.18750167530E+03 -0.19903194791E+03  0.10495156728E+04  0.10979360224E+04  0.17090865222E+03 0.  0.
         24    2    3    3    0    0  0.17414187177E+03 -0.15489262248E+03  0.10005699911E+04  0.10305228624E+04  0.80746186777E+02 0.  0.
         -6    2    1    2    0  502 -0.18750167530E+03  0.19903194791E+03 -0.17204914053E+01  0.32201134933E+03  0.17005221105E+03 0.  0.
        -24    2    5    5    0    0 -0.43533364963E+02  0.10473809435E+03  0.41868266308E+02  0.14441553013E+03  0.78978929764E+02 0.  0.
          5    1    3    3  501    0  0.13359803527E+02 -0.44139325429E+02  0.48945681668E+02  0.67413160091E+02  0.47000000000E+01 0. -1.
        -13    1    4    4    0    0  0.43176210309E+02 -0.71414712808E+01  0.11121918453E+03  0.11951942418E+03  0.00000000000E+00 0.  1.
         14    1    4    4    0    0  0.13096566146E+03 -0.14775115120E+03  0.88935080661E+03  0.91100343818E+03  0.00000000000E+00 0. -1.
         -5    1    5    5    0  502 -0.14396831033E+03  0.94293853561E+02 -0.43588757714E+02  0.17759581920E+03  0.47000000000E+01 0.  1.
         11    1    6    6    0    0 -0.22705761563E+02  0.68894576115E+02  0.64601721211E+02  0.97135969700E+02  0.00000000000E+00 0. -1.
        -12    1    6    6    0    0 -0.20827603400E+02  0.35843518230E+02 -0.22733454902E+02  0.47279560429E+02  0.00000000000E+00 0.  1.
</event>
<event>
12    1  0.9966151E-001  0.1801306E+03  0.7818608E-02  0.1167699E+00
         21   -1    0    0  503  502  0.00000000000E+00  0.00000000000E+00  0.33238996447E+03  0.33238996447E+03  0.00000000000E+00 0.  1.
         21   -1    0    0  501  503 -0.00000000000E+00 -0.00000000000E+00 -0.98058351534E+02  0.98058351534E+02  0.00000000000E+00 0.  1.
          6    2    1    2  501    0  0.52869725647E+02 -0.68588638517E+00  0.10190552245E+03  0.20687792438E+03  0.17209898826E+03 0.  0.
         24    2    3    3    0    0  0.43332167924E+02 -0.35150052602E+02 -0.40295557415E+00  0.98398163891E+02  0.81048339335E+02 0.  0.
         -6    2    1    2    0  502 -0.52869725647E+02  0.68588638517E+00  0.13242609049E+03  0.22357039162E+03  0.17219573816E+03 0.  0.
        -24    2    5    5    0    0  0.80276800754E+01  0.47343220449E+02  0.31688655918E+02  0.96860007010E+02  0.77922178320E+02 0.  0.
          5    1    3    3  501    0  0.95375577229E+01  0.34464166217E+02  0.10230847802E+03  0.10847976049E+03  0.47000000000E+01 0. -1.
        -11    1    4    4    0    0 -0.17653130469E+02 -0.20871128595E+02  0.18459817932E+02  0.32984873840E+02  0.00000000000E+00 0.  1.
         12    1    4    4    0    0  0.60985298393E+02 -0.14278924007E+02 -0.18862773506E+02  0.65413290051E+02  0.00000000000E+00 0. -1.
         -5    1    5    5    0  502 -0.60897405722E+02 -0.46657334064E+02  0.10073743457E+03  0.12671038461E+03  0.47000000000E+01 0.  1.
         13    1    6    6    0    0 -0.21964236780E+02  0.35446255743E+02 -0.11211541143E+02  0.43180590528E+02  0.00000000000E+00 0. -1.
        -14    1    6    6    0    0  0.29991916856E+02  0.11896964707E+02  0.42900197061E+02  0.53679416482E+02  0.00000000000E+00 0.  1.
</event>
<event>
12    1  0.9966151E-001  0.1886236E+03  0.7818608E-02  0.1160660E+00
         21   -1    0    0  501  502  0.00000000000E+00  0.00000000000E+00  0.47323677573E+03  0.47323677573E+03  0.00000000000E+00 0. -1.
         21   -1    0    0  502  503 -0.00000000000E+00 -0.00000000000E+00 -0.81542705244E+02  0.81542705244E+02  0.00000000000E+00 0. -1.
         -6    2    1    2    0  503  0.65889450598E+02  0.38242827087E+02  0.28075813525E+03  0.33595162752E+03  0.16803104476E+03 0.  0.
        -24    2    3    3    0    0  0.28378857368E+02  0.93145272982E+01  0.27369502259E+03  0.28782815411E+03  0.83928308342E+02 0.  0.
          6    2    1    2  501    0 -0.65889450598E+02 -0.38242827087E+02  0.11093593524E+03  0.21882785345E+03  0.17255409063E+03 0.  0.
         24    2    5    5    0    0 -0.92926180666E+01 -0.66365251731E+02  0.11825566956E+03  0.15503333385E+03  0.74566962075E+02 0.  0.
          5    1    5    5  501    0 -0.56596832532E+02  0.28122424644E+02 -0.73197343226E+01  0.63794519601E+02  0.47000000000E+01 0. -1.
        -11    1    6    6    0    0  0.26397941810E+02 -0.36701059101E+02  0.27007475365E+02  0.52661397593E+02  0.00000000000E+00 0.  1.
         12    1    6    6    0    0 -0.35690559876E+02 -0.29664192631E+02  0.91248194195E+02  0.10237193626E+03  0.00000000000E+00 0. -1.
         -5    1    3    3    0  503  0.37510593230E+02  0.28928299789E+02  0.70631126550E+01  0.48123473415E+02  0.47000000000E+01 0.  1.
         11    1    4    4    0    0  0.30740626385E+02  0.30752720791E+02  0.66124777587E+02  0.79140395232E+02  0.00000000000E+00 0. -1.
        -12    1    4    4    0    0 -0.23617690169E+01 -0.21438193492E+02  0.20757024500E+03  0.20868775887E+03  0.00000000000E+00 0.  1.
</event>
<event>
12    1  0.9966151E-001  0.2559944E+03  0.7818608E-02  0.1109584E+00
         21   -1    0    0  503  502  0.00000000000E+00  0.00000000000E+00  0.45323651314E+03  0.45323651314E+03  0.00000000000E+00 0. -1.
         21   -1    0    0  501  503 -0.00000000000E+00 -0.00000000000E+00 -0.21326290184E+03  0.21326290184E+03  0.00000000000E+00 0. -1.
          6    2    1    2  501    0 -0.18959390054E+03 -0.76577389005E+01  0.30913376126E+03  0.40132725653E+03  0.17174223825E+03 0.  0.
         24    2    3    3    0    0 -0.16768399924E+03 -0.63157659696E+02  0.23606602756E+03  0.30687478864E+03  0.79612517570E+02 0.  0.
         -6    2    1    2    0  502  0.18959390054E+03  0.76577389005E+01 -0.69160149952E+02  0.26517215844E+03  0.17183905023E+03 0.  0.
        -24    2    5    5    0    0  0.13620834859E+03 -0.39856749582E+02  0.11343571161E+01  0.16481752977E+03  0.83798905955E+02 0.  0.
          5    1    3    3  501    0 -0.21909901300E+02  0.55499920796E+02  0.73067733691E+02  0.94452467887E+02  0.47000000000E+01 0. -1.
        -13    1    4    4    0    0 -0.93902815961E+02 -0.20004545958E+02  0.18189927079E+03  0.20568243828E+03  0.00000000000E+00 0.  1.
         14    1    4    4    0    0 -0.73781183283E+02 -0.43153113738E+02  0.54166756777E+02  0.10119235036E+03  0.00000000000E+00 0. -1.
         -5    1    5    5    0  502  0.53385551956E+02  0.47514488482E+02 -0.70294507069E+02  0.10035462868E+03  0.47000000000E+01 0.  1.
         13    1    6    6    0    0  0.32107318094E+02  0.60687205698E+00  0.35588693615E+02  0.47935407395E+02  0.00000000000E+00 0. -1.
        -14    1    6    6    0    0  0.10410103050E+03 -0.40463621639E+02 -0.34454336499E+02  0.11688212237E+03  0.00000000000E+00 0.  1.
</event>
<event>
12    1  0.9966151E-001  0.1755642E+03  0.7818608E-02  0.1172985E+00
         21   -1    0    0  503  502  0.00000000000E+00  0.00000000000E+00  0.69415179409E+02  0.69415179409E+02  0.00000000000E+00 0.  1.
         21   -1    0    0  501  503 -0.00000000000E+00 -0.00000000000E+00 -0.45715961022E+03  0.45715961022E+03  0.00000000000E+00 0.  1.
          6    2    1    2  501    0  0.25321110447E+01 -0.16709495996E+02 -0.13878308010E+03  0.22379348985E+03  0.17474885961E+03 0.  0.
         24    2    3    3    0    0  0.49014700564E+02  0.74797036515E+01 -0.22844522016E+02  0.96476610536E+02  0.79545442083E+02 0.  0.
         -6    2    1    2    0  502 -0.25321110447E+01  0.16709495996E+02 -0.24896135071E+03  0.30278129978E+03  0.17149094001E+03 0.  0.
        -24    2    5    5    0    0  0.85593412035E+01  0.68791647841E+02 -0.10107143957E+03  0.14552645352E+03  0.78466296226E+02 0.  0.
          5    1    3    3  501    0 -0.46482589519E+02 -0.24189199647E+02 -0.11593855808E+03  0.12731687931E+03  0.47000000000E+01 0. -1.
        -11    1    4    4    0    0 -0.22072368068E+02  0.39912291064E+01 -0.76601392441E+01  0.23702258862E+02  0.00000000000E+00 0.  1.
         12    1    4    4    0    0  0.71087068632E+02  0.34884745451E+01 -0.15184382772E+02  0.72774351674E+02  0.00000000000E+00 0. -1.
         -5    1    5    5    0  502 -0.11091452248E+02 -0.52082151845E+02 -0.14788991114E+03  0.15725484625E+03  0.47000000000E+01 0.  1.
         11    1    6    6    0    0  0.22881731191E+02  0.27568678786E+02 -0.94918013211E+02  0.10145459528E+03  0.00000000000E+00 0. -1.
        -12    1    6    6    0    0 -0.14322389988E+02  0.41222969055E+02 -0.61534263603E+01  0.44071858239E+02  0.00000000000E+00 0.  1.
</event>
<event>
12    1  0.9966151E-001  0.2523839E+03  0.7818608E-02  0.1111949E+00
         21   -1    0    0  501  502  0.00000000000E+00  0.00000000000E+00  0.22822033009E+03  0.22822033009E+03  0.00000000000E+00 0.  1.
         21   -1    0    0  502  503 -0.00000000000E+00 -0.00000000000E+00 -0.10162912220E+04  0.10162912220E+04  0.00000000000E+00 0.  1.
         -6    2    1    2    0  503  0.13904064902E+03 -0.12047681504E+03  0.13609676938E+03  0.28674021692E+03  0.17277342482E+03 0.  0.
        -24    2    3    3    0    0  0.37728698079E+02 -0.10079588993E+03  0.24812295930E+02  0.13489235145E+03  0.77440495644E+02 0.  0.
          6    2    1    2  501    0 -0.13904064902E+03  0.12047681504E+03 -0.92416766127E+03  0.95777133516E+03  0.17144415789E+03 0.  0.
         24    2    5    5    0    0 -0.16594095686E+02  0.17881896771E+02 -0.43216778674E+03  0.44046596866E+03  0.81523906941E+02 0.  0.
          5    1    5    5  501    0 -0.12244655333E+03  0.10259491827E+03 -0.49199987452E+03  0.51730536650E+03  0.47000000000E+01 0. -1.
        -11    1    6    6    0    0 -0.13154518814E+02 -0.27706203750E+02 -0.27730320262E+03  0.27899415993E+03  0.00000000000E+00 0.  1.
         12    1    6    6    0    0 -0.34395768723E+01  0.45588100521E+02 -0.15486458412E+03  0.16147180873E+03  0.00000000000E+00 0. -1.
         -5    1    3    3    0  503  0.10131195094E+03 -0.19680925106E+02  0.11128447345E+03  0.15184786546E+03  0.47000000000E+01 0.  1.
         13    1    4    4    0    0  0.50031214715E+02 -0.10482449165E+03  0.31463852885E+02  0.12033815078E+03  0.00000000000E+00 0. -1.
        -14    1    4    4    0    0 -0.12302516636E+02  0.40286017146E+01 -0.66515569544E+01  0.14554200674E+02  0.00000000000E+00 0.  1.
</event>
<event>
12    1  0.9966151E-001  0.2102789E+03  0.7818608E-02  0.1141354E+00
         21   -1    0    0  501  502  0.00000000000E+00  0.00000000000E+00  0.42305057640E+02  0.42305057640E+02  0.00000000000E+00 0.  1.
         21   -1    0    0  502  503 -0.00000000000E+00 -0.00000000000E+00 -0.10700911328E+04  0.10700911328E+04  0.00000000000E+00 0.  1.
         -6    2    1    2    0  503 -0.33523149278E+02  0.11626695786E+03 -0.42861701981E+03  0.47739951323E+03  0.17191840662E+03 0.  0.
        -24    2    3    3    0    0  0.21586357662E+02  0.12353401979E+03 -0.25983378626E+03  0.29963636218E+03  0.80880950626E+02 0.  0.
          6    2    1    2  501    0  0.33523149278E+02 -0.11626695786E+03 -0.59916905536E+03  0.63499667722E+03  0.17197504514E+03 0.  0.
         24    2    5    5    0    0 -0.20008822929E+02 -0.65659090535E+02 -0.46909617326E+03  0.48543774923E+03  0.10434136018E+03 0.  0.
          5    1    5    5  501    0  0.53531972207E+02 -0.50607867324E+02 -0.13007288210E+03  0.14955892799E+03  0.47000000000E+01 0. -1.
        -13    1    6    6    0    0 -0.63959876733E+01  0.64121623745E+01  0.14826655151E+01  0.91772970783E+01  0.00000000000E+00 0.  1.
         14    1    6    6    0    0 -0.13612835256E+02 -0.72071252909E+02 -0.47057883878E+03  0.47626045215E+03  0.00000000000E+00 0. -1.
         -5    1    3    3    0  503 -0.55109506940E+02 -0.72670619348E+01 -0.16878323355E+03  0.17776315105E+03  0.47000000000E+01 0.  1.
         13    1    4    4    0    0 -0.21042650993E+02  0.70111244395E+02 -0.86511843629E+02  0.11332554363E+03  0.00000000000E+00 0. -1.
        -14    1    4    4    0    0  0.42629008655E+02  0.53422775399E+02 -0.17332194263E+03  0.18631081855E+03  0.00000000000E+00 0.  1.
</event>
<event>
12    1  0.9966151E-001  0.2557036E+03  0.7818608E-02  0.1110457E+00
         21   -1    0    0  503  502  0.00000000000E+00  0.00000000000E+00  0.46165177183E+02  0.46165177183E+02  0.00000000000E+00 0.  1.
         21   -1    0    0  501  503 -0.00000000000E+00 -0.00000000000E+00 -0.14471288545E+04  0.14471288545E+04  0.00000000000E+00 0.  1.
          6    2    1    2  501    0  0.16336468228E+03  0.62692893288E+02 -0.54772592260E+03  0.60256455431E+03  0.18017196659E+03 0.  0.
         24    2    3    3    0    0  0.43753467548E+02  0.75273217894E+02 -0.36265693652E+03  0.38179832759E+03  0.81666921600E+02 0.  0.
         -6    2    1    2    0  502 -0.16336468228E+03 -0.62692893288E+02 -0.85323775474E+03  0.89072947739E+03  0.18645620797E+03 0.  0.
        -24    2    5    5    0    0 -0.12544663392E+03 -0.71873400091E+02 -0.82745104082E+03  0.84372836345E+03  0.79370540683E+02 0.  0.
          5    1    3    3  501    0  0.11961121473E+03 -0.12580324607E+02 -0.18506898608E+03  0.22076622673E+03  0.47000000000E+01 0. -1.
        -13    1    4    4    0    0  0.42067735196E+02  0.53945326713E+02 -0.11944911281E+03  0.13765131009E+03  0.00000000000E+00 0.  1.
         14    1    4    4    0    0  0.16857323523E+01  0.21327891181E+02 -0.24320782371E+03  0.24414701750E+03  0.00000000000E+00 0. -1.
         -5    1    5    5    0  502 -0.37918048364E+02  0.91805068031E+01 -0.25786713914E+02  0.47001113937E+02  0.47000000000E+01 0.  1.
         13    1    6    6    0    0 -0.39196386534E+02 -0.13901936210E+02 -0.91900590824E+02  0.10087288606E+03  0.00000000000E+00 0. -1.
        -14    1    6    6    0    0 -0.86250247385E+02 -0.57971463880E+02 -0.73555045000E+03  0.74285547739E+03  0.00000000000E+00 0.  1.
</event>
<event>
12    1  0.9966151E-001  0.3110112E+03  0.7818608E-02  0.1079869E+00
         21   -1    0    0  503  502  0.00000000000E+00  0.00000000000E+00  0.58015144699E+02  0.58015144699E+02  0.00000000000E+00 0.  1.
         21   -1    0    0  501  503 -0.00000000000E+00 -0.00000000000E+00 -0.17295068754E+04  0.17295068754E+04  0.00000000000E+00 0.  1.
          6    2    1    2  501    0 -0.24930727882E+02  0.25698610601E+03 -0.10056045348E+04  0.10525841129E+04  0.17329002970E+03 0.  0.
         24    2    3    3    0    0  0.32381385926E+01  0.21171422272E+03 -0.56447253430E+03  0.60821651694E+03  0.80403307480E+02 0.  0.
         -6    2    1    2    0  502  0.24930727882E+02 -0.25698610601E+03 -0.66588719596E+03  0.73493790729E+03  0.17339137794E+03 0.  0.
        -24    2    5    5    0    0 -0.66084174393E+01 -0.26431670794E+03 -0.56589216170E+03  0.62972596742E+03  0.80086591238E+02 0.  0.
          5    1    3    3  501    0 -0.28168866474E+02  0.45271883291E+02 -0.44113200048E+03  0.44436759592E+03  0.47000000000E+01 0. -1.
        -13    1    4    4    0    0  0.25848835958E+02  0.18265626412E+02 -0.73643068011E+02  0.80156702120E+02  0.00000000000E+00 0.  1.
         14    1    4    4    0    0 -0.22610697365E+02  0.19344859630E+03 -0.49082946629E+03  0.52805981482E+03  0.00000000000E+00 0. -1.
         -5    1    5    5    0  502  0.31539145321E+02  0.73306019334E+01 -0.99995034262E+02  0.10521193986E+03  0.47000000000E+01 0.  1.
         11    1    6    6    0    0 -0.13684929352E+02 -0.24148680554E+03 -0.44492584101E+03  0.50642093019E+03  0.00000000000E+00 0. -1.
        -12    1    6    6    0    0  0.70765119124E+01 -0.22829902401E+02 -0.12096632069E+03  0.12330503723E+03  0.00000000000E+00 0.  1.
</event>
<event>
12    1  0.9966151E-001  0.1978272E+03  0.7818608E-02  0.1151890E+00
         21   -1    0    0  501  502  0.00000000000E+00  0.00000000000E+00  0.10244912140E+03  0.10244912140E+03  0.00000000000E+00 0. -1.
         21   -1    0    0  502  503 -0.00000000000E+00 -0.00000000000E+00 -0.37926428278E+03  0.37926428278E+03  0.00000000000E+00 0.  1.
         -6    2    1    2    0  503  0.85188854161E+02 -0.43008196722E+02 -0.13835363804E+03  0.24140694799E+03  0.17328802475E+03 0.  0.
        -24    2    3    3    0    0  0.43942167584E+02 -0.92895619930E+02 -0.10482002323E+03  0.16835465528E+03  0.82435079864E+02 0.  0.
          6    2    1    2  501    0 -0.85188854161E+02  0.43008196722E+02 -0.13846152334E+03  0.24030645619E+03  0.17166465444E+03 0.  0.
         24    2    5    5    0    0 -0.70937717957E+01 -0.46832589285E+01 -0.12204686819E+03  0.14722129231E+03  0.81892712509E+02 0.  0.
          5    1    5    5  501    0 -0.78095082365E+02  0.47691455651E+02 -0.16414655155E+02  0.93085163885E+02  0.47000000000E+01 0. -1.
        -13    1    6    6    0    0  0.10369100137E+02 -0.40610426764E+02 -0.70349739884E+02  0.81889015755E+02  0.00000000000E+00 0.  1.
         14    1    6    6    0    0 -0.17462871933E+02  0.35927167835E+02 -0.51697128302E+02  0.65332276552E+02  0.00000000000E+00 0. -1.
         -5    1    3    3    0  503  0.41246686577E+02  0.49887423208E+02 -0.33533614811E+02  0.73052292710E+02  0.47000000000E+01 0.  1.
         13    1    4    4    0    0  0.42946826180E+02 -0.33673476441E+02 -0.84309189410E+01  0.55221492997E+02  0.00000000000E+00 0. -1.
        -14    1    4    4    0    0  0.99534140320E+00 -0.59222143489E+02 -0.96389104286E+02  0.11313316229E+03  0.00000000000E+00 0.  1.
</event>
<event>
12    1  0.9966151E-001  0.5448578E+03  0.7818608E-02  0.1002721E+00
         21   -1    0    0  501  502  0.00000000000E+00  0.00000000000E+00  0.10374127075E+04  0.10374127075E+04  0.00000000000E+00 0. -1.
         21   -1    0    0  502  503 -0.00000000000E+00 -0.00000000000E+00 -0.29524135676E+03  0.29524135676E+03  0.00000000000E+00 0. -1.
         -6    2    1    2    0  503  0.48854673396E+03 -0.16928480515E+03  0.48946711331E+03  0.73204647604E+03  0.17023140589E+03 0.  0.
        -24    2    3    3    0    0  0.45014542274E+03 -0.19541523603E+03  0.45575983567E+03  0.67446409431E+03  0.79792046003E+02 0.  0.
          6    2    1    2  501    0 -0.48854673396E+03  0.16928480515E+03  0.25270423740E+03  0.60060758819E+03  0.17185687903E+03 0.  0.
         24    2    5    5    0    0 -0.11787354762E+03  0.79776782832E+02  0.90139735777E+02  0.18604805770E+03  0.78931612806E+02 0.  0.
          5    1    5    5  501    0 -0.37067318634E+03  0.89508022323E+02  0.16256450162E+03  0.41455953049E+03  0.47000000000E+01 0. -1.
        -13    1    6    6    0    0 -0.72923651384E+02  0.32059592942E+02  0.67060981682E+01  0.79941529779E+02  0.00000000000E+00 0.  1.
         14    1    6    6    0    0 -0.44949896235E+02  0.47717189890E+02  0.83433637609E+02  0.10610652792E+03  0.00000000000E+00 0. -1.
         -5    1    3    3    0  503  0.38401311217E+02  0.26130430871E+02  0.33707277640E+02  0.57582381737E+02  0.47000000000E+01 0.  1.
         11    1    4    4    0    0  0.10263404027E+03 -0.72573280468E+02  0.85510205851E+02  0.15202836105E+03  0.00000000000E+00 0. -1.
        -12    1    4    4    0    0  0.34751138247E+03 -0.12284195556E+03  0.37024962982E+03  0.52243573325E+03  0.00000000000E+00 0.  1.
</event>
<event>
12    1  0.9966151E-001  0.3210316E+03  0.7818608E-02  0.1075527E+00
         21   -1    0    0  503  502  0.00000000000E+00  0.00000000000E+00  0.13093770838E+03  0.13093770838E+03  0.00000000000E+00 0.  1.
         21   -1    0    0  501  503 -0.00000000000E+00 -0.00000000000E+00 -0.80499786994E+03  0.80499786994E+03  0.00000000000E+00 0. -1.
          6    2    1    2  501    0  0.27447603554E+02 -0.26618797987E+03 -0.25240422271E+03  0.40597801578E+03  0.17175810343E+03 0.  0.
         24    2    3    3    0    0 -0.67593133437E+01 -0.63608700355E+02 -0.33543336270E+02  0.10576033599E+03  0.77255020434E+02 0.  0.
         -6    2    1    2    0  502 -0.27447603554E+02  0.26618797987E+03 -0.42165593885E+03  0.52995756254E+03  0.17734676699E+03 0.  0.
        -24    2    5    5    0    0 -0.58768465174E+02  0.14588128906E+03 -0.33449650167E+03  0.37805774781E+03  0.79401939879E+02 0.  0.
          5    1    3    3  501    0  0.34206916898E+02 -0.20257927951E+03 -0.21886088644E+03  0.30021767980E+03  0.47000000000E+01 0. -1.
        -13    1    4    4    0    0  0.23292541209E+02  0.63577401649E+01 -0.86494917833E+01  0.25647164445E+02  0.00000000000E+00 0.  1.
         14    1    4    4    0    0 -0.30051854553E+02 -0.69966440520E+02 -0.24893844487E+02  0.80113171542E+02  0.00000000000E+00 0. -1.
         -5    1    5    5    0  502  0.31320861619E+02  0.12030669080E+03 -0.87159437186E+02  0.15189981473E+03  0.47000000000E+01 0.  1.
         11    1    6    6    0    0 -0.43948530778E+02  0.60706865887E+02 -0.81610300135E+02  0.11080179607E+03  0.00000000000E+00 0. -1.
        -12    1    6    6    0    0 -0.14819934395E+02  0.85174423174E+02 -0.25288620153E+03  0.26725595174E+03  0.00000000000E+00 0.  1.
</event>
<event>
12    1  0.9966151E-001  0.3758404E+03  0.7818608E-02  0.1052500E+00
         21   -1    0    0  503  502  0.00000000000E+00  0.00000000000E+00  0.16381117166E+04  0.16381117166E+04  0.00000000000E+00 0. -1.
         21   -1    0    0  501  503 -0.00000000000E+00 -0.00000000000E+00 -0.86657339321E+02  0.86657339321E+02  0.00000000000E+00 0. -1.
          6    2    1    2  501    0  0.28876575970E+03  0.16844455259E+03  0.71230489949E+03  0.80537833510E+03  0.17174621259E+03 0.  0.
         24    2    3    3    0    0  0.23443272173E+03  0.19429261962E+03  0.60031869849E+03  0.67816512510E+03  0.82565574463E+02 0.  0.
         -6    2    1    2    0  502 -0.28876575970E+03 -0.16844455259E+03  0.83914947776E+03  0.91939072079E+03  0.17131322241E+03 0.  0.
        -24    2    5    5    0    0 -0.26800290340E+03 -0.19549254413E+03  0.76919390463E+03  0.84142558589E+03  0.79340170349E+02 0.  0.
          5    1    3    3  501    0  0.54333037973E+02 -0.25848067029E+02  0.11198620100E+03  0.12721321000E+03  0.47000000000E+01 0. -1.
        -11    1    4    4    0    0  0.18379126058E+03  0.14273699664E+03  0.52243022168E+03  0.57191469136E+03  0.00000000000E+00 0.  1.
         12    1    4    4    0    0  0.50641461152E+02  0.51555622985E+02  0.77888476809E+02  0.10625043373E+03  0.00000000000E+00 0. -1.
         -5    1    5    5    0  502 -0.20762856304E+02  0.27047991533E+02  0.69955573130E+02  0.77965134899E+02  0.47000000000E+01 0.  1.
         11    1    6    6    0    0 -0.38705453557E+02 -0.93935708879E+01  0.15333110388E+03  0.15841962860E+03  0.00000000000E+00 0. -1.
        -12    1    6    6    0    0 -0.22929744984E+03 -0.18609897324E+03  0.61586280075E+03  0.68300595729E+03  0.00000000000E+00 0.  1.
</event>
<event>
12    1  0.9966151E-001  0.3625262E+03  0.7818608E-02  0.1057612E+00
         21   -1    0    0  501  502  0.00000000000E+00  0.00000000000E+00  0.18827683988E+04  0.18827683988E+04  0.00000000000E+00 0. -1.
         21   -1    0    0  502  503 -0.00000000000E+00 -0.00000000000E+00 -0.21870115789E+03  0.21870115789E+03  0.00000000000E+00 0. -1.
         -6    2    1    2    0  503 -0.27515273162E+03  0.16156640385E+03  0.16990636324E+04  0.17372581031E+04  0.17156853266E+03 0.  0.
        -24    2    3    3    0    0 -0.13624770449E+03  0.77003579665E+02  0.56838109690E+03  0.59493128305E+03  0.79957313510E+02 0.  0.
          6    2    1    2  501    0  0.27515273162E+03 -0.16156640385E+03 -0.34996391450E+02  0.36421145360E+03  0.17208284908E+03 0.  0.
         24    2    5    5    0    0  0.42001807721E+02 -0.43419186275E+02 -0.18450308796E+00  0.10048417798E+03  0.80297312493E+02 0.  0.
          5    1    5    5  501    0  0.23315092390E+03 -0.11814721758E+03 -0.34811888362E+02  0.26372727562E+03  0.47000000000E+01 0. -1.
        -13    1    6    6    0    0  0.57513580706E+02 -0.41353195175E+02 -0.21511964837E+02  0.74031502402E+02  0.00000000000E+00 0.  1.
         14    1    6    6    0    0 -0.15511772985E+02 -0.20659910999E+01  0.21327461749E+02  0.26452675574E+02  0.00000000000E+00 0. -1.
         -5    1    3    3    0  503 -0.13890502713E+03  0.84562824186E+02  0.11306825355E+04  0.11423268200E+04  0.47000000000E+01 0.  1.
         13    1    4    4    0    0 -0.84769441456E+02  0.13157392563E+02  0.20159879031E+03  0.21909141343E+03  0.00000000000E+00 0. -1.
        -14    1    4    4    0    0 -0.51478263030E+02  0.63846187102E+02  0.36678230659E+03  0.37583986963E+03  0.00000000000E+00 0.  1.
</event>
<event>
12    1  0.9966151E-001  0.2196936E+03  0.7818608E-02  0.1134976E+00
         21   -1    0    0  501  502  0.00000000000E+00  0.00000000000E+00  0.10681287482E+03  0.10681287482E+03  0.00000000000E+00 0.  1.
         21   -1    0    0  502  503 -0.00000000000E+00 -0.00000000000E+00 -0.45588157729E+03  0.45588157729E+03  0.00000000000E+00 0.  1.
         -6    2    1    2    0  503 -0.86765340113E+02 -0.10357384520E+03 -0.22451783809E+03  0.31412344707E+03  0.17323254522E+03 0.  0.
        -24    2    3    3    0    0 -0.14529493956E+02  0.15438336606E+02 -0.12354111958E+03  0.14207605659E+03  0.66886091214E+02 0.  0.
          6    2    1    2  501    0  0.86765340113E+02  0.10357384520E+03 -0.12455086438E+03  0.24857100503E+03  0.16738835405E+03 0.  0.
         24    2    5    5    0    0 -0.74886001366E-01  0.33718805573E+02 -0.10377119323E+03  0.13510366979E+03  0.79671686247E+02 0.  0.
          5    1    5    5  501    0  0.86840226115E+02  0.69855039631E+02 -0.20779671148E+02  0.11346733524E+03  0.47000000000E+01 0. -1.
        -13    1    6    6    0    0 -0.39454555591E+02  0.12204614443E+02 -0.43765510528E+02  0.60175032051E+02  0.00000000000E+00 0.  1.
         14    1    6    6    0    0  0.39379669590E+02  0.21514191131E+02 -0.60005682706E+02  0.74928637743E+02  0.00000000000E+00 0. -1.
         -5    1    3    3    0  503 -0.72235846158E+02 -0.11901218181E+03 -0.10097671851E+03  0.17204739048E+03  0.47000000000E+01 0.  1.
         11    1    4    4    0    0 -0.36397498708E+02  0.46800512209E+01 -0.36776907416E+02  0.51954034595E+02  0.00000000000E+00 0. -1.
        -12    1    4    4    0    0  0.21868004753E+02  0.10758285385E+02 -0.86764212165E+02  0.90122021997E+02  0.00000000000E+00 0.  1.
</event>
<event>
12    1  0.9966151E-001  0.2355590E+03  0.7818608E-02  0.1123180E+00
         21   -1    0    0  501  502  0.00000000000E+00  0.00000000000E+00  0.50722885957E+02  0.50722885957E+02  0.00000000000E+00 0.  1.
         21   -1    0    0  502  503 -0.00000000000E+00 -0.00000000000E+00 -0.17133430478E+04  0.17133430478E+04  0.00000000000E+00 0.  1.
         -6    2    1    2    0  503 -0.13870952998E+03 -0.77004481923E+02 -0.13687244500E+04  0.13888465198E+04  0.17412068133E+03 0.  0.
        -24    2    3    3    0    0 -0.11249150767E+03 -0.58193691888E+02 -0.13291810743E+04  0.13375922607E+04  0.79936740945E+02 0.  0.
          6    2    1    2  501    0  0.13870952998E+03  0.77004481923E+02 -0.29389571189E+03  0.37521941397E+03  0.17101138913E+03 0.  0.
         24    2    5    5    0    0  0.93387635689E+02  0.10024740110E+03 -0.28035460177E+03  0.32230666449E+03  0.80697529810E+02 0.  0.
          5    1    5    5  501    0  0.45321894291E+02 -0.23242919181E+02 -0.13541110121E+02  0.52912749479E+02  0.47000000000E+01 0. -1.
        -13    1    6    6    0    0  0.23962022369E+02  0.77739824167E+02 -0.10860344302E+03  0.13569217594E+03  0.00000000000E+00 0.  1.
         14    1    6    6    0    0  0.69425613320E+02  0.22507576938E+02 -0.17175115875E+03  0.18661448855E+03  0.00000000000E+00 0. -1.
         -5    1    3    3    0  503 -0.26218022311E+02 -0.18810790035E+02 -0.39543375670E+02  0.51254259092E+02  0.47000000000E+01 0.  1.
         11    1    4    4    0    0 -0.28984200649E+02 -0.30822191866E+01 -0.69110172279E+03  0.69171610882E+03  0.00000000000E+00 0. -1.
        -12    1    4    4    0    0 -0.83507307019E+02 -0.55111472701E+02 -0.63807935155E+03  0.64587615192E+03  0.00000000000E+00 0.  1.
</event>
<event>
12    1  0.9966151E-001  0.2566357E+03  0.7818608E-02  0.1109603E+00
         21   -1    0    0  503  502  0.00000000000E+00  0.00000000000E+00  0.29267586477E+03  0.29267586477E+03  0.00000000000E+00 0. -1.
         21   -1    0    0  501  503 -0.00000000000E+00 -0.00000000000E+00 -0.23213515233E+03  0.23213515233E+03  0.00000000000E+00 0. -1.
          6    2    1    2  501    0  0.10278356359E+03  0.16016657649E+03 -0.22664280656E+02  0.25763455305E+03  0.17217462106E+03 0.  0.
         24    2    3    3    0    0  0.61113789647E+01  0.13020968102E+03 -0.34877416182E+00  0.15388967994E+03  0.81792432196E+02 0.  0.
         -6    2    1    2    0  502 -0.10278356359E+03 -0.16016657649E+03  0.83204993097E+02  0.26717646406E+03  0.16805474972E+03 0.  0.
        -24    2    5    5    0    0 -0.88831343009E+01 -0.69624029734E+02 -0.86362206797E+01  0.10757652063E+03  0.81066071156E+02 0.  0.
          5    1    3    3  501    0  0.96672184621E+02  0.29956895466E+02 -0.22315506494E+02  0.10374487310E+03  0.47000000000E+01 0. -1.
        -11    1    4    4    0    0  0.18081304091E+02  0.23699423475E+01  0.16245795579E+02  0.24422859340E+02  0.00000000000E+00 0.  1.
         12    1    4    4    0    0 -0.11969925126E+02  0.12783973868E+03 -0.16594569740E+02  0.12946682060E+03  0.00000000000E+00 0. -1.
         -5    1    5    5    0  502 -0.93900429285E+02 -0.90542546755E+02  0.91841213776E+02  0.15959994342E+03  0.47000000000E+01 0.  1.
         11    1    6    6    0    0  0.18015538026E+02  0.98492644921E+01 -0.11675346273E+02  0.23619511680E+02  0.00000000000E+00 0. -1.
        -12    1    6    6    0    0 -0.26898672327E+02 -0.79473294227E+02  0.30391255933E+01  0.83957008954E+02  0.00000000000E+00 0.  1.
</event>
<event>
12    1  0.9966151E-001  0.2838906E+03  0.7818608E-02  0.1093597E+00
         21   -1    0    0  503  502  0.00000000000E+00  0.00000000000E+00  0.35146360467E+03  0.35146360467E+03  0.00000000000E+00 0. -1.
         21   -1    0    0  501  503 -0.00000000000E+00 -0.00000000000E+00 -0.24317166714E+03  0.24317166714E+03  0.00000000000E+00 0. -1.
          6    2    1    2  501    0 -0.22384834862E+03 -0.27818088466E+02  0.12534016217E+03  0.31023323467E+03  0.17219922885E+03 0.  0.
         24    2    3    3    0    0 -0.23005498564E+03 -0.37979990651E+02  0.14572159656E+03  0.28616500941E+03  0.79295982264E+02 0.  0.
         -6    2    1    2    0  502  0.22384834862E+03  0.27818088466E+02 -0.17048224633E+02  0.28440203714E+03  0.17237153925E+03 0.  0.
        -24    2    5    5    0    0  0.20198601098E+03  0.26894557660E+02 -0.67840373261E+02  0.22889755914E+03  0.79184029157E+02 0.  0.
          5    1    3    3  501    0  0.62066370173E+01  0.10161902185E+02 -0.20381434392E+02  0.24068225256E+02  0.47000000000E+01 0. -1.
        -13    1    4    4    0    0 -0.31810304731E+02 -0.82766067716E+00 -0.77119373494E+01  0.32742243157E+02  0.00000000000E+00 0.  1.
         14    1    4    4    0    0 -0.19824468090E+03 -0.37152329974E+02  0.15343353391E+03  0.25342276626E+03  0.00000000000E+00 0. -1.
         -5    1    5    5    0  502  0.21862337641E+02  0.92353080569E+00  0.50792148628E+02  0.55504478004E+02  0.47000000000E+01 0.  1.
         13    1    6    6    0    0  0.59264970144E+02  0.64007879289E+01 -0.59881421780E+02  0.84493144377E+02  0.00000000000E+00 0. -1.
        -14    1    6    6    0    0  0.14272104083E+03  0.20493769731E+02 -0.79589514816E+01  0.14440441476E+03  0.00000000000E+00 0.  1.
</event>
<event>
12    1  0.9966151E-001  0.1882193E+03  0.7818608E-02  0.1160225E+00
         21   -1    0    0  501  502  0.00000000000E+00  0.00000000000E+00  0.28509457098E+03  0.28509457098E+03  0.00000000000E+00 0. -1.
         21   -1    0    0  502  503 -0.00000000000E+00 -0.00000000000E+00 -0.13960571140E+03  0.13960571140E+03  0.00000000000E+00 0. -1.
         -6    2    1    2    0  503 -0.71130327483E+02 -0.29279747178E+02  0.14863311275E+01  0.18822517518E+03  0.17178381853E+03 0.  0.
        -24    2    3    3    0    0 -0.23164959315E+02  0.42325263237E+02  0.27144661706E+02  0.98178553988E+02  0.81081147968E+02 0.  0.
          6    2    1    2  501    0  0.71130327483E+02  0.29279747178E+02  0.14400252845E+03  0.23647510720E+03  0.17107577573E+03 0.  0.
         24    2    5    5    0    0  0.72528896600E+02 -0.22060370077E+02  0.14905018059E+03  0.18465491396E+03  0.78322283835E+02 0.  0.
          5    1    5    5  501    0 -0.13985691167E+01  0.51340117255E+02 -0.50476521379E+01  0.51820193240E+02  0.47000000000E+01 0. -1.
        -11    1    6    6    0    0  0.21346973310E+02 -0.45862848641E+02  0.88035141668E+02  0.10153462623E+03  0.00000000000E+00 0.  1.
         12    1    6    6    0    0  0.51181923291E+02  0.23802478564E+02  0.61015038919E+02  0.83120287727E+02  0.00000000000E+00 0. -1.
         -5    1    3    3    0  503 -0.47965368169E+02 -0.71605010415E+02 -0.25658330579E+02  0.90046621193E+02  0.47000000000E+01 0.  1.
         13    1    4    4    0    0  0.21584629030E+02 -0.38690304880E+01  0.25785504334E+02  0.33849044906E+02  0.00000000000E+00 0. -1.
        -14    1    4    4    0    0 -0.44749588345E+02  0.46194293726E+02  0.13591573717E+01  0.64329509081E+02  0.00000000000E+00 0.  1.
</event>
<event>
12    1  0.9966151E-001  0.2168095E+03  0.7818608E-02  0.1137623E+00
         21   -1    0    0  501  502  0.00000000000E+00  0.00000000000E+00  0.68235089622E+02  0.68235089622E+02  0.00000000000E+00 0. -1.
         21   -1    0    0  502  503 -0.00000000000E+00 -0.00000000000E+00 -0.80810393014E+03  0.80810393014E+03  0.00000000000E+00 0. -1.
         -6    2    1    2    0  503  0.34268861197E+02 -0.11585793892E+03 -0.55793417318E+03  0.59857906761E+03  0.18002483638E+03 0.  0.
        -24    2    3    3    0    0  0.68661387395E+02 -0.53753561741E+02 -0.18935905316E+03  0.22319991446E+03  0.79734053452E+02 0.  0.
          6    2    1    2  501    0 -0.34268861197E+02  0.11585793892E+03 -0.18193466734E+03  0.27775995216E+03  0.17161862074E+03 0.  0.
         24    2    5    5    0    0 -0.13386085220E+02  0.27003089396E+02 -0.12741961941E+02  0.85459312072E+02  0.78946705513E+02 0.  0.
          5    1    5    5  501    0 -0.20882775977E+02  0.88854849527E+02 -0.16919270540E+03  0.19230064008E+03  0.47000000000E+01 0. -1.
        -13    1    6    6    0    0  0.14928465842E+02 -0.21381566473E+02  0.52135599617E+01  0.26593451914E+02  0.00000000000E+00 0.  1.
         14    1    6    6    0    0 -0.28314551062E+02  0.48384655869E+02 -0.17955521903E+02  0.58865860158E+02  0.00000000000E+00 0. -1.
         -5    1    3    3    0  503 -0.34392526198E+02 -0.62104377182E+02 -0.36857512002E+03  0.37537915315E+03  0.47000000000E+01 0.  1.
         13    1    4    4    0    0  0.39555651374E+02 -0.69562656321E+02 -0.16018721900E+03  0.17906299965E+03  0.00000000000E+00 0. -1.
        -14    1    4    4    0    0  0.29105736021E+02  0.15809094581E+02 -0.29171834159E+02  0.44136914811E+02  0.00000000000E+00 0.  1.
</event>
<event>
12    1  0.9966151E-001  0.2037255E+03  0.7818608E-02  0.1146975E+00
         21   -1    0    0  501  502  0.00000000000E+00  0.00000000000E+00  0.51073523069E+02  0.51073523069E+02  0.00000000000E+00 0.  1.
         21   -1    0    0  502  503 -0.00000000000E+00 -0.00000000000E+00 -0.10765659424E+04  0.10765659424E+04  0.00000000000E+00 0. -1.
         -6    2    1    2    0  503 -0.24166717497E+02  0.10464973512E+03 -0.23168598857E+03  0.30851660175E+03  0.17311412120E+03 0.  0.
        -24    2    3    3    0    0  0.22966599615E+02  0.12710020489E+03 -0.16813591271E+03  0.22613774938E+03  0.78655386168E+02 0.  0.
          6    2    1    2  501    0  0.24166717497E+02 -0.10464973512E+03 -0.79380643072E+03  0.81912286367E+03  0.17116664118E+03 0.  0.
         24    2    5    5    0    0 -0.18203665443E+02 -0.77796693896E+02 -0.26611739790E+03  0.28903405929E+03  0.79614816152E+02 0.  0.
          5    1    5    5  501    0  0.42370382940E+02 -0.26853041225E+02 -0.52768903282E+03  0.53008880438E+03  0.47000000000E+01 0. -1.
        -13    1    6    6    0    0 -0.14083803809E+02 -0.69335709449E+02 -0.26980437868E+03  0.27892686656E+03  0.00000000000E+00 0.  1.
         14    1    6    6    0    0 -0.41198616346E+01 -0.84609844474E+01  0.36869807799E+01  0.10107192735E+02  0.00000000000E+00 0. -1.
         -5    1    3    3    0  503 -0.47133317112E+02 -0.22450469771E+02 -0.63550075858E+02  0.82378852362E+02  0.47000000000E+01 0.  1.
         11    1    4    4    0    0  0.37525140675E+02  0.19191479034E+02 -0.41937634285E+02  0.59457667459E+02  0.00000000000E+00 0. -1.
        -12    1    4    4    0    0 -0.14558541060E+02  0.10790872586E+03 -0.12619827842E+03  0.16668008193E+03  0.00000000000E+00 0.  1.
</event>
<event>
12    1  0.9966151E-001  0.2278480E+03  0.7818608E-02  0.1128254E+00
         21   -1    0    0  501  502  0.00000000000E+00  0.00000000000E+00  0.15419914927E+03  0.15419914927E+03  0.00000000000E+00 0. -1.
         21   -1    0    0  502  503 -0.00000000000E+00 -0.00000000000E+00 -0.52495347497E+03  0.52495347497E+03  0.00000000000E+00 0.  1.
         -6    2    1    2    0  503 -0.14261215693E+03  0.43223939990E+02 -0.38901653790E+03  0.45057391771E+03  0.17168707659E+03 0.  0.
        -24    2    3    3    0    0 -0.12688248260E+03  0.33006168098E+02 -0.17566630666E+03  0.23634918364E+03  0.88395213605E+02 0.  0.
          6    2    1    2  501    0  0.14261215693E+03 -0.43223939990E+02  0.18262212201E+02  0.22857870652E+03  0.17236061147E+03 0.  0.
         24    2    5    5    0    0  0.46841526876E+02 -0.61965554438E+02  0.55364417042E+02  0.12407069105E+03  0.79337627428E+02 0.  0.
          5    1    5    5  501    0  0.95770630057E+02  0.18741614449E+02 -0.37102204841E+02  0.10450801547E+03  0.47000000000E+01 0. -1.
        -13    1    6    6    0    0  0.34558828051E+02 -0.35237447175E+02 -0.11800524908E+02  0.50746848846E+02  0.00000000000E+00 0.  1.
         14    1    6    6    0    0  0.12282698825E+02 -0.26728107263E+02  0.67164941950E+02  0.73323842203E+02  0.00000000000E+00 0. -1.
         -5    1    3    3    0  503 -0.15729674332E+02  0.10217771891E+02 -0.21335023124E+03  0.21422473407E+03  0.47000000000E+01 0.  1.
         11    1    4    4    0    0  0.76926166996E+01  0.60333698340E+01  0.37361334761E+01  0.10465973275E+02  0.00000000000E+00 0. -1.
        -12    1    4    4    0    0 -0.13457509930E+03  0.26972798264E+02 -0.17940244014E+03  0.22588321037E+03  0.00000000000E+00 0.  1.
</event>
<event>
12    1  0.9966151E-001  0.2365789E+03  0.7818608E-02  0.1122168E+00
         21   -1    0    0  503  502  0.00000000000E+00  0.00000000000E+00  0.24629427635E+03  0.24629427635E+03  0.00000000000E+00 0. -1.
         21   -1    0    0  501  503 -0.00000000000E+00 -0.00000000000E+00 -0.26726660751E+03  0.26726660751E+03  0.00000000000E+00 0. -1.
          6    2    1    2  501    0 -0.15715078333E+03  0.43368177343E+02  0.89393306270E+02  0.25290457621E+03  0.17144210088E+03 0.  0.
         24    2    3    3    0    0 -0.10147083179E+02  0.18639466746E+02  0.52784931226E+01  0.81676690699E+02  0.78694512491E+02 0.  0.
         -6    2    1    2    0  502  0.15715078333E+03 -0.43368177343E+02 -0.11036563742E+03  0.26065630765E+03  0.17083316214E+03 0.  0.
        -24    2    5    5    0    0  0.12331774238E+03  0.32226202353E+02 -0.49990487573E+02  0.15805789820E+03  0.78977570441E+02 0.  0.
          5    1    3    3  501    0 -0.14700370015E+03  0.24728710597E+02  0.84114813148E+02  0.17122788551E+03  0.47000000000E+01 0. -1.
        -11    1    4    4    0    0 -0.23116546365E+02  0.45539498809E+02 -0.13417093340E+01  0.51088363172E+02  0.00000000000E+00 0.  1.
         12    1    4    4    0    0  0.12969463186E+02 -0.26900032063E+02  0.66202024566E+01  0.30588327527E+02  0.00000000000E+00 0. -1.
         -5    1    5    5    0  502  0.33833040952E+02 -0.75594379696E+02 -0.60375149852E+02  0.10259840945E+03  0.47000000000E+01 0.  1.
         11    1    6    6    0    0  0.15397093330E+02  0.29962306704E+02 -0.35845708549E+02  0.49190701636E+02  0.00000000000E+00 0. -1.
        -12    1    6    6    0    0  0.10792064905E+03  0.22638956493E+01 -0.14144779024E+02  0.10886719657E+03  0.00000000000E+00 0.  1.
</event>
<event>
12    1  0.9966151E-001  0.1836265E+03  0.7818608E-02  0.1164702E+00
         21   -1    0    0  501  502  0.00000000000E+00  0.00000000000E+00  0.48902229458E+02  0.48902229458E+02  0.00000000000E+00 0. -1.
         21   -1    0    0  502  503 -0.00000000000E+00 -0.00000000000E+00 -0.68393448894E+03  0.68393448894E+03  0.00000000000E+00 0. -1.
         -6    2    1    2    0  503 -0.51405186456E+02  0.33002188971E+02 -0.32196468680E+03  0.36989045236E+03  0.17154022715E+03 0.  0.
        -24    2    3    3    0    0 -0.81495063976E+01  0.84171079913E+02 -0.23089827514E+03  0.25673352332E+03  0.73803139400E+02 0.  0.
          6    2    1    2  501    0  0.51405186456E+02 -0.33002188971E+02 -0.31306757268E+03  0.36294626604E+03  0.17316769125E+03 0.  0.
         24    2    5    5    0    0  0.28177182557E+02 -0.43607275491E+02 -0.32162439752E+03  0.33560916165E+03  0.80595956531E+02 0.  0.
          5    1    5    5  501    0  0.23228003899E+02  0.10605086520E+02  0.85568248349E+01  0.27337104391E+02  0.47000000000E+01 0. -1.
        -11    1    6    6    0    0  0.54104009687E+02 -0.14721277072E+02 -0.16585852992E+03  0.17508001545E+03  0.00000000000E+00 0.  1.
         12    1    6    6    0    0 -0.25926827130E+02 -0.28885998419E+02 -0.15576586760E+03  0.16052914620E+03  0.00000000000E+00 0. -1.
         -5    1    3    3    0  503 -0.43255680058E+02 -0.51168890942E+02 -0.91066411661E+02  0.11315692904E+03  0.47000000000E+01 0.  1.
         13    1    4    4    0    0 -0.33080278907E+02  0.73244930061E+02 -0.20006597264E+03  0.21560500467E+03  0.00000000000E+00 0. -1.
        -14    1    4    4    0    0  0.24930772509E+02  0.10926149852E+02 -0.30832302497E+02  0.41128518643E+02  0.00000000000E+00 0.  1.
</event>
<event>
12    1  0.9966151E-001  0.1731858E+03  0.7818608E-02  0.1174737E+00
         21   -1    0    0  501  502  0.00000000000E+00  0.00000000000E+00  0.12834763184E+04  0.12834763184E+04  0.00000000000E+00 0. -1.
         21   -1    0    0  502  503 -0.00000000000E+00 -0.00000000000E+00 -0.26600561061E+02  0.26600561061E+02  0.00000000000E+00 0. -1.
         -6    2    1    2    0  503  0.97324050532E+01 -0.12689531372E+02  0.86100900924E+03  0.87825385544E+03  0.17244586592E+03 0.  0.
        -24    2    3    3    0    0 -0.54324382218E+02 -0.20270095155E+02  0.64695703763E+03  0.65464465729E+03  0.81511983899E+02 0.  0.
          6    2    1    2  501    0 -0.97324050532E+01  0.12689531372E+02  0.39586674814E+03  0.43182302407E+03  0.17176989818E+03 0.  0.
         24    2    5    5    0    0  0.30057735402E+02  0.43504717922E+02  0.35239522269E+03  0.36515448183E+03  0.79745060585E+02 0.  0.
          5    1    5    5  501    0 -0.39790140455E+02 -0.30815186550E+02  0.43471525450E+02  0.66668542241E+02  0.47000000000E+01 0. -1.
        -11    1    6    6    0    0 -0.16154292085E+02  0.17454395420E+02  0.23652777328E+03  0.23772043371E+03  0.00000000000E+00 0.  1.
         12    1    6    6    0    0  0.46212027487E+02  0.26050322502E+02  0.11586744941E+03  0.12743404812E+03  0.00000000000E+00 0. -1.
         -5    1    3    3    0  503  0.64056787271E+02  0.75805637830E+01  0.21405197162E+03  0.22360919815E+03  0.47000000000E+01 0.  1.
         11    1    4    4    0    0 -0.44084369355E+02  0.18055972285E+02  0.50520818448E+03  0.50744926783E+03  0.00000000000E+00 0. -1.
        -12    1    4    4    0    0 -0.10240012863E+02 -0.38326067440E+02  0.14174885315E+03  0.14719538946E+03  0.00000000000E+00 0.  1.
</event>
<event>
12    1  0.9966151E-001  0.1820107E+03  0.7818608E-02  0.1165954E+00
         21   -1    0    0  503  502  0.00000000000E+00  0.00000000000E+00  0.80137927254E+02  0.80137927254E+02  0.00000000000E+00 0.  1.
         21   -1    0    0  501  503 -0.00000000000E+00 -0.00000000000E+00 -0.42551174215E+03  0.42551174215E+03  0.00000000000E+00 0.  1.
          6    2    1    2  501    0 -0.16038650339E+02  0.56838513400E+02 -0.21688763298E+03  0.28313978521E+03  0.17216282328E+03 0.  0.
         24    2    3    3    0    0 -0.68388797899E+01  0.11108986544E+02 -0.22270164792E+02  0.82955184581E+02  0.78837951205E+02 0.  0.
         -6    2    1    2    0  502  0.16038650339E+02 -0.56838513400E+02 -0.12848618192E+03  0.22250988420E+03  0.17179666676E+03 0.  0.
        -24    2    5    5    0    0  0.69662362356E+02 -0.20042420594E+02 -0.11154070224E+03  0.15514005254E+03  0.79828342668E+02 0.  0.
          5    1    3    3  501    0 -0.91997705492E+01  0.45729526857E+02 -0.19461746819E+03  0.20018460063E+03  0.47000000000E+01 0. -1.
        -13    1    4    4    0    0  0.26842015853E+02  0.26025630869E+02  0.41595999677E+01  0.37618207680E+02  0.00000000000E+00 0.  1.
         14    1    4    4    0    0 -0.33680895643E+02 -0.14916644325E+02 -0.26429764760E+02  0.45336976901E+02  0.00000000000E+00 0. -1.
         -5    1    5    5    0  502 -0.53623712017E+02 -0.36796092806E+02 -0.16945479681E+02  0.67369831660E+02  0.47000000000E+01 0.  1.
         11    1    6    6    0    0 -0.86994495103E+01  0.18069148362E+02 -0.27867964462E+02  0.34333627649E+02  0.00000000000E+00 0. -1.
        -12    1    6    6    0    0  0.78361811867E+02 -0.38111568956E+02 -0.83672737777E+02  0.12080642489E+03  0.00000000000E+00 0.  1.
</event>
<event>
12    1  0.9966151E-001  0.1778247E+03  0.7818608E-02  0.1170026E+00
         21   -1    0    0  501  502  0.00000000000E+00  0.00000000000E+00  0.12916713302E+03  0.12916713302E+03  0.00000000000E+00 0. -1.
         21   -1    0    0  502  503 -0.00000000000E+00 -0.00000000000E+00 -0.33128470055E+03  0.33128470055E+03  0.00000000000E+00 0. -1.
         -6    2    1    2    0  503  0.41972736742E+02 -0.12691610929E+01 -0.21897801044E+03  0.28182961390E+03  0.17237529062E+03 0.  0.
        -24    2    3    3    0    0  0.21269838721E+02  0.44618307543E+02 -0.53059467399E+02  0.10837840263E+03  0.80544221827E+02 0.  0.
          6    2    1    2  501    0 -0.41972736742E+02  0.12691610929E+01  0.16860442904E+02  0.17862221967E+03  0.17279554805E+03 0.  0.
         24    2    5    5    0    0 -0.20922679261E+02  0.54327336434E+02 -0.31333615064E+02  0.10376881551E+03  0.79980958037E+02 0.  0.
          5    1    5    5  501    0 -0.21050057481E+02 -0.53058175341E+02  0.48194057969E+02  0.74853404158E+02  0.47000000000E+01 0. -1.
        -11    1    6    6    0    0 -0.12502695089E+02  0.71853584748E+01  0.25594608857E+02  0.29377385239E+02  0.00000000000E+00 0.  1.
         12    1    6    6    0    0 -0.84199841720E+01  0.47141977960E+02 -0.56928223922E+02  0.74391430274E+02  0.00000000000E+00 0. -1.
         -5    1    3    3    0  503  0.20702898020E+02 -0.45887468636E+02 -0.16591854304E+03  0.17345121127E+03  0.47000000000E+01 0.  1.
         11    1    4    4    0    0  0.82038403151E+01  0.49030325925E+02 -0.70425010233E+02  0.86203004138E+02  0.00000000000E+00 0. -1.
        -12    1    4    4    0    0  0.13065998406E+02 -0.44120183820E+01  0.17365542834E+02  0.22175398496E+02  0.00000000000E+00 0.  1.
</event>
<event>
12    1  0.9966151E-001  0.1808732E+03  0.7818608E-02  0.1167511E+00
         21   -1    0    0  501  502  0.00000000000E+00  0.00000000000E+00  0.40922652709E+02  0.40922652709E+02  0.00000000000E+00 0. -1.
         21   -1    0    0  502  503 -0.00000000000E+00 -0.00000000000E+00 -0.86785459234E+03  0.86785459234E+03  0.00000000000E+00 0. -1.
         -6    2    1    2    0  503 -0.26782171998E+02 -0.40977198522E+02 -0.54768352959E+03  0.57606896885E+03  0.17176085922E+03 0.  0.
        -24    2    3    3    0    0  0.34555568994E+02  0.16254802264E+02 -0.20524432083E+03  0.22347214233E+03  0.79726163949E+02 0.  0.
          6    2    1    2  501    0  0.26782171998E+02  0.40977198522E+02 -0.27924841005E+03  0.33270827620E+03  0.17412267802E+03 0.  0.
         24    2    5    5    0    0  0.20364361094E+02 -0.44430388163E+02 -0.12408791531E+03  0.15541610692E+03  0.79797173940E+02 0.  0.
          5    1    5    5  501    0  0.64178109042E+01  0.85407586685E+02 -0.15516049473E+03  0.17729216927E+03  0.47000000000E+01 0. -1.
        -13    1    6    6    0    0  0.46893084889E+02 -0.65778906271E+01 -0.62773041288E+02  0.78630050032E+02  0.00000000000E+00 0.  1.
         14    1    6    6    0    0 -0.26528723795E+02 -0.37852497536E+02 -0.61314874025E+02  0.76786056889E+02  0.00000000000E+00 0. -1.
         -5    1    3    3    0  503 -0.61337740992E+02 -0.57232000786E+02 -0.34243920875E+03  0.35259682652E+03  0.47000000000E+01 0.  1.
         11    1    4    4    0    0 -0.88236549025E+01  0.17084215409E+02 -0.68858663916E+01  0.20424065657E+02  0.00000000000E+00 0. -1.
        -12    1    4    4    0    0  0.43379223897E+02 -0.82941314567E+00 -0.19835845444E+03  0.20304807667E+03  0.00000000000E+00 0.  1.
</event>
<event>
12    1  0.9966151E-001  0.2022382E+03  0.7818608E-02  0.1148427E+00
         21   -1    0    0  501  502  0.00000000000E+00  0.00000000000E+00  0.38025027855E+03  0.38025027855E+03  0.00000000000E+00 0.  1.
         21   -1    0    0  502  503 -0.00000000000E+00 -0.00000000000E+00 -0.17588004752E+03  0.17588004752E+03  0.00000000000E+00 0.  1.
         -6    2    1    2    0  503  0.19275739263E+02 -0.97845572775E+02  0.27769802865E+03  0.34353527274E+03  0.17594026903E+03 0.  0.
        -24    2    3    3    0    0  0.16041068102E+02 -0.13750699729E+03  0.19717570627E+03  0.25359403585E+03  0.79159242715E+02 0.  0.
          6    2    1    2  501    0 -0.19275739263E+02  0.97845572775E+02 -0.73327797623E+02  0.21259505333E+03  0.17284206826E+03 0.  0.
         24    2    5    5    0    0 -0.19902000715E+02  0.13384800470E+03 -0.78302632002E+02  0.17594254611E+03  0.80703775366E+02 0.  0.
          5    1    5    5  501    0  0.62626145178E+00 -0.36002431927E+02  0.49748343792E+01  0.36652507215E+02  0.47000000000E+01 0. -1.
        -11    1    6    6    0    0  0.13821978036E+02 -0.26057955626E+00  0.47704432362E+01  0.14624366899E+02  0.00000000000E+00 0.  1.
         12    1    6    6    0    0 -0.33723978751E+02  0.13410858426E+03 -0.83073075238E+02  0.16131817921E+03  0.00000000000E+00 0. -1.
         -5    1    3    3    0  503  0.32346711611E+01  0.39661424513E+02  0.80522322382E+02  0.89941236893E+02  0.47000000000E+01 0.  1.
         11    1    4    4    0    0  0.45112350923E+02 -0.77242698063E+02  0.13692758845E+03  0.16355648287E+03  0.00000000000E+00 0. -1.
        -12    1    4    4    0    0 -0.29071282821E+02 -0.60264299224E+02  0.60248117812E+02  0.90037552975E+02  0.00000000000E+00 0.  1.
</event>
<event>
12    1  0.9966151E-001  0.2133063E+03  0.7818608E-02  0.1139090E+00
         21   -1    0    0  501  502  0.00000000000E+00  0.00000000000E+00  0.80206098526E+02  0.80206098526E+02  0.00000000000E+00 0.  1.
         21   -1    0    0  502  503 -0.00000000000E+00 -0.00000000000E+00 -0.56651240963E+03  0.56651240963E+03  0.00000000000E+00 0.  1.
         -6    2    1    2    0  503 -0.11428572946E+03  0.51185188661E+02 -0.23056136694E+03  0.31369439228E+03  0.17194323578E+03 0.  0.
        -24    2    3    3    0    0 -0.13398465177E+03  0.28660092106E+02 -0.11737048490E+03  0.19652061837E+03  0.77918129672E+02 0.  0.
          6    2    1    2  501    0  0.11428572946E+03 -0.51185188661E+02 -0.25574494416E+03  0.33302411587E+03  0.17268014879E+03 0.  0.
         24    2    5    5    0    0  0.22688775913E+02 -0.64266294614E+02 -0.19769996085E+03  0.22369695858E+03  0.79436248540E+02 0.  0.
          5    1    5    5  501    0  0.91596953552E+02  0.13081105953E+02 -0.58044983316E+02  0.10932715729E+03  0.47000000000E+01 0. -1.
        -11    1    6    6    0    0  0.77281747620E+01 -0.17364574168E+02 -0.16143926134E+03  0.16255426240E+03  0.00000000000E+00 0.  1.
         12    1    6    6    0    0  0.14960601151E+02 -0.46901720446E+02 -0.36260699507E+02  0.61142696181E+02  0.00000000000E+00 0. -1.
         -5    1    3    3    0  503  0.19698922307E+02  0.22525096555E+02 -0.11319088204E+03  0.11717377391E+03  0.47000000000E+01 0.  1.
         11    1    4    4    0    0 -0.58664234783E+02  0.18431969399E+02 -0.61383579305E+01  0.61797324996E+02  0.00000000000E+00 0. -1.
        -12    1    4    4    0    0 -0.75320416989E+02  0.10228122708E+02 -0.11123212696E+03  0.13472329338E+03  0.00000000000E+00 0.  1.
</event>
<event>
12    1  0.9966151E-001  0.1851355E+03  0.7818608E-02  0.1163253E+00
         21   -1    0    0  501  502  0.00000000000E+00  0.00000000000E+00  0.34215126541E+03  0.34215126541E+03  0.00000000000E+00 0. -1.
         21   -1    0    0  502  503 -0.00000000000E+00 -0.00000000000E+00 -0.10540363090E+03  0.10540363090E+03  0.00000000000E+00 0. -1.
         -6    2    1    2    0  503 -0.49829526727E+02 -0.46022448902E+02  0.64612947858E+02  0.19475953322E+03  0.17074951013E+03 0.  0.
        -24    2    3    3    0    0  0.25310256920E+02  0.12767492202E+02  0.74205316691E+01  0.83425321353E+02  0.78109551209E+02 0.  0.
          6    2    1    2  501    0  0.49829526727E+02  0.46022448902E+02  0.17213468665E+03  0.25279536309E+03  0.17226171286E+03 0.  0.
         24    2    5    5    0    0  0.66521263629E+02  0.11544140483E+02  0.35439872675E+02  0.11075688239E+03  0.80329052826E+02 0.  0.
          5    1    5    5  501    0 -0.16691736902E+02  0.34478308420E+02  0.13669481397E+03  0.14203848070E+03  0.47000000000E+01 0. -1.
        -11    1    6    6    0    0  0.32473956045E+02 -0.13789236148E+02  0.53946727787E+02  0.64458903913E+02  0.00000000000E+00 0.  1.
         12    1    6    6    0    0  0.34047307584E+02  0.25333376630E+02 -0.18506855112E+02  0.46297978480E+02  0.00000000000E+00 0. -1.
         -5    1    3    3    0  503 -0.75139783648E+02 -0.58789941104E+02  0.57192416189E+02  0.11133421186E+03  0.47000000000E+01 0.  1.
         11    1    4    4    0    0  0.34443098097E+02 -0.24347406210E+02 -0.66400591371E+01  0.42699105154E+02  0.00000000000E+00 0. -1.
        -12    1    4    4    0    0 -0.91328411761E+01  0.37114898412E+02  0.14060590806E+02  0.40726216199E+02  0.00000000000E+00 0.  1.
</event>
<event>
12    1  0.9966151E-001  0.1771089E+03  0.7818608E-02  0.1171103E+00
         21   -1    0    0  503  502  0.00000000000E+00  0.00000000000E+00  0.11841862440E+03  0.11841862440E+03  0.00000000000E+00 0. -1.
         21   -1    0    0  501  503 -0.00000000000E+00 -0.00000000000E+00 -0.26444394719E+03  0.26444394719E+03  0.00000000000E+00 0. -1.
          6    2    1    2  501    0  0.31533373365E+02 -0.87095764350E+01 -0.55190972061E+02  0.18550901424E+03  0.17406131279E+03 0.  0.
         24    2    3    3    0    0  0.24359035481E+02 -0.59241895433E+02  0.95084642008E+01  0.10296754927E+03  0.80055858788E+02 0.  0.
         -6    2    1    2    0  502 -0.31533373365E+02  0.87095764350E+01 -0.90834350733E+02  0.19735355735E+03  0.17212593346E+03 0.  0.
        -24    2    5    5    0    0 -0.68438308712E+01  0.23827740547E+01 -0.12633379467E+03  0.15340014500E+03  0.86711367059E+02 0.  0.
          5    1    3    3  501    0  0.71743378840E+01  0.50532318998E+02 -0.64699436262E+02  0.82541464973E+02  0.47000000000E+01 0. -1.
        -11    1    4    4    0    0 -0.17292839190E+02 -0.11307176971E+02  0.29835037760E+02  0.36290825513E+02  0.00000000000E+00 0.  1.
         12    1    4    4    0    0  0.41651874671E+02 -0.47934718462E+02 -0.20326573560E+02  0.66676723752E+02  0.00000000000E+00 0. -1.
         -5    1    5    5    0  502 -0.24689542494E+02  0.63268023803E+01  0.35499443941E+02  0.43953412348E+02  0.47000000000E+01 0.  1.
         13    1    6    6    0    0 -0.36852724012E+02 -0.64551901705E+01 -0.19722524240E+02  0.42293861371E+02  0.00000000000E+00 0. -1.
        -14    1    6    6    0    0  0.30008893141E+02  0.88379642252E+01 -0.10661127043E+03  0.11110628363E+03  0.00000000000E+00 0.  1.
</event>
<event>
12    1  0.9966151E-001  0.1812534E+03  0.7818608E-02  0.1166690E+00
         21   -1    0    0  503  502  0.00000000000E+00  0.00000000000E+00  0.58409543899E+03  0.58409543899E+03  0.00000000000E+00 0.  1.
         21   -1    0    0  501  503 -0.00000000000E+00 -0.00000000000E+00 -0.61975787540E+02  0.61975787540E+02  0.00000000000E+00 0.  1.
          6    2    1    2  501    0 -0.30860115295E+02  0.47433552691E+02  0.16204952201E+03  0.24313135725E+03  0.17219326543E+03 0.  0.
         24    2    3    3    0    0  0.50297751485E+02  0.22604248558E+02  0.89148915387E+02  0.13115063512E+03  0.78817156254E+02 0.  0.
         -6    2    1    2    0  502  0.30860115295E+02 -0.47433552691E+02  0.36007012945E+03  0.40293986928E+03  0.17177820438E+03 0.  0.
        -24    2    5    5    0    0  0.43803053321E+02 -0.71784755765E+02  0.35617014149E+03  0.37469450432E+03  0.80417928595E+02 0.  0.
          5    1    3    3  501    0 -0.81157866780E+02  0.24829304133E+02  0.72900606619E+02  0.11198072213E+03  0.47000000000E+01 0. -1.
        -11    1    4    4    0    0  0.27358430052E+02  0.15991419521E+02  0.10001892638E+03  0.10491899174E+03  0.00000000000E+00 0.  1.
         12    1    4    4    0    0  0.22939321433E+02  0.66128290368E+01 -0.10870010989E+02  0.26231643383E+02  0.00000000000E+00 0. -1.
         -5    1    5    5    0  502 -0.12942938026E+02  0.24351203074E+02  0.38999879612E+01  0.28245364964E+02  0.47000000000E+01 0.  1.
         13    1    6    6    0    0 -0.12984262085E+02  0.10049714768E+02  0.60976912854E+02  0.63148806244E+02  0.00000000000E+00 0. -1.
        -14    1    6    6    0    0  0.56787315406E+02 -0.81834470533E+02  0.29519322863E+03  0.31154569807E+03  0.00000000000E+00 0.  1.
</event>
<event>
12    1  0.9966151E-001  0.1908399E+03  0.7818608E-02  0.1157770E+00
         21   -1    0    0  501  502  0.00000000000E+00  0.00000000000E+00  0.96992905910E+02  0.96992905910E+02  0.00000000000E+00 0.  1.
         21   -1    0    0  502  503 -0.00000000000E+00 -0.00000000000E+00 -0.43078819519E+03  0.43078819519E+03  0.00000000000E+00 0.  1.
         -6    2    1    2    0  503  0.80810941486E+02 -0.21055853051E+02 -0.71982886407E+02  0.20396426312E+03  0.17159873975E+03 0.  0.
        -24    2    3    3    0    0  0.19753278006E+02 -0.27910941410E+02  0.24771395792E+02  0.89253707242E+02  0.78634531629E+02 0.  0.
          6    2    1    2  501    0 -0.80810941486E+02  0.21055853051E+02 -0.26181240287E+03  0.32381683798E+03  0.17128296194E+03 0.  0.
         24    2    5    5    0    0 -0.29436058400E+02 -0.41144889499E+02 -0.19379760845E+03  0.21819291433E+03  0.86552015337E+02 0.  0.
          5    1    5    5  501    0 -0.51374883086E+02  0.62200742550E+02 -0.68014794423E+02  0.10562392365E+03  0.47000000000E+01 0. -1.
        -11    1    6    6    0    0 -0.14730393322E+02  0.20534995317E+02 -0.11135079734E+03  0.11418261947E+03  0.00000000000E+00 0.  1.
         12    1    6    6    0    0 -0.14705665078E+02 -0.61679884816E+02 -0.82446811110E+02  0.10401029487E+03  0.00000000000E+00 0. -1.
         -5    1    3    3    0  503  0.61057663480E+02  0.68550883585E+01 -0.96754282199E+02  0.11471055588E+03  0.47000000000E+01 0.  1.
         11    1    4    4    0    0  0.42623069171E+02 -0.30138630260E+02 -0.40903058063E+01  0.52362139577E+02  0.00000000000E+00 0. -1.
        -12    1    4    4    0    0 -0.22869791165E+02  0.22276888507E+01  0.28861701599E+02  0.36891567664E+02  0.00000000000E+00 0.  1.
</event>
<event>
12    1  0.9966151E-001  0.1724152E+03  0.7818608E-02  0.1175469E+00
         21   -1    0    0  501  502  0.00000000000E+00  0.00000000000E+00  0.58489086816E+03  0.58489086816E+03  0.00000000000E+00 0.  1.
         21   -1    0    0  502  503 -0.00000000000E+00 -0.00000000000E+00 -0.17438864886E+03  0.17438864886E+03  0.00000000000E+00 0.  1.
         -6    2    1    2    0  503 -0.78113226053E+01  0.11168593189E+02 -0.11440713547E+03  0.20692025710E+03  0.17187566994E+03 0.  0.
        -24    2    3    3    0    0  0.48565818651E+02  0.21359964887E+02 -0.19758091679E+02  0.96182830704E+02  0.77755179212E+02 0.  0.
          6    2    1    2  501    0  0.78113226053E+01 -0.11168593189E+02  0.52490935478E+03  0.55235925992E+03  0.17142102279E+03 0.  0.
         24    2    5    5    0    0 -0.87609847697E+01 -0.40511870213E+02  0.14477413454E+03  0.17070425217E+03  0.80389210686E+02 0.  0.
          5    1    5    5  501    0  0.16572307375E+02  0.29343277024E+02  0.38013522023E+03  0.38165500775E+03  0.47000000000E+01 0. -1.
        -13    1    6    6    0    0  0.33819587862E+02 -0.22589827183E+02  0.91858482371E+02  0.10045917379E+03  0.00000000000E+00 0.  1.
         14    1    6    6    0    0 -0.42580572631E+02 -0.17922043031E+02  0.52915652172E+02  0.70245078381E+02  0.00000000000E+00 0. -1.
         -5    1    3    3    0  503 -0.56377141256E+02 -0.10191371698E+02 -0.94649043795E+02  0.11073742639E+03  0.47000000000E+01 0.  1.
         13    1    4    4    0    0  0.50904427101E+02  0.46049877665E+02 -0.19583376177E+02  0.71381794275E+02  0.00000000000E+00 0. -1.
        -14    1    4    4    0    0 -0.23386084505E+01 -0.24689912777E+02 -0.17471550170E+00  0.24801036429E+02  0.00000000000E+00 0.  1.
</event>
<event>
12    1  0.9966151E-001  0.1810195E+03  0.7818608E-02  0.1167077E+00
         21   -1    0    0  501  502  0.00000000000E+00  0.00000000000E+00  0.21868456120E+03  0.21868456120E+03  0.00000000000E+00 0. -1.
         21   -1    0    0  502  503 -0.00000000000E+00 -0.00000000000E+00 -0.30031044442E+03  0.30031044442E+03  0.00000000000E+00 0. -1.
         -6    2    1    2    0  503 -0.43328269287E+02 -0.35341243454E+02  0.14334835789E+03  0.23090430448E+03  0.17216766162E+03 0.  0.
        -24    2    3    3    0    0 -0.65308175403E+02 -0.47713801255E+02  0.16242310647E+03  0.19893349760E+03  0.81556767635E+02 0.  0.
          6    2    1    2  501    0  0.43328269287E+02  0.35341243454E+02 -0.22497424111E+03  0.28809070115E+03  0.17104531715E+03 0.  0.
         24    2    5    5    0    0  0.61960896133E+02 -0.25251664204E+02 -0.18566355374E+03  0.21335051528E+03  0.81059780347E+02 0.  0.
          5    1    5    5  501    0 -0.18632626846E+02  0.60592907658E+02 -0.39310687367E+02  0.74740185864E+02  0.47000000000E+01 0. -1.
        -13    1    6    6    0    0  0.66918197686E+01  0.27696987992E+02 -0.53987877512E+02  0.61045839447E+02  0.00000000000E+00 0.  1.
         14    1    6    6    0    0  0.55269076364E+02 -0.52948652195E+02 -0.13167567623E+03  0.15230467583E+03  0.00000000000E+00 0. -1.
         -5    1    3    3    0  503  0.21979906115E+02  0.12372557801E+02 -0.19074748575E+02  0.31970806880E+02  0.47000000000E+01 0.  1.
         13    1    4    4    0    0 -0.28480237862E+02 -0.51477849751E+01  0.21010886897E+01  0.29017894695E+02  0.00000000000E+00 0. -1.
        -14    1    4    4    0    0 -0.36827937540E+02 -0.42566016280E+02  0.16032201778E+03  0.16991560290E+03  0.00000000000E+00 0.  1.
</event>
<event>
12    1  0.9966151E-001  0.2024245E+03  0.7818608E-02  0.1148371E+00
         21   -1    0    0  501  502  0.00000000000E+00  0.00000000000E+00  0.24771540873E+03  0.24771540873E+03  0.00000000000E+00 0.  1.
         21   -1    0    0  502  503 -0.00000000000E+00 -0.00000000000E+00 -0.16333455312E+03  0.16333455312E+03  0.00000000000E+00 0.  1.
         -6    2    1    2    0  503  0.10531379675E+03  0.16382131372E+02  0.53150470092E+02  0.20623049319E+03  0.16836470484E+03 0.  0.
        -24    2    3    3    0    0  0.47386730855E+02 -0.44932901364E+02  0.63630860293E+02  0.12110113996E+03  0.79700262427E+02 0.  0.
          6    2    1    2  501    0 -0.10531379675E+03 -0.16382131372E+02  0.31230385519E+02  0.20481946866E+03  0.17209389225E+03 0.  0.
         24    2    5    5    0    0 -0.36069041158E+02  0.26959908374E+02  0.69955862959E+02  0.11429256002E+03  0.78365516162E+02 0.  0.
          5    1    5    5  501    0 -0.69244755591E+02 -0.43342039746E+02 -0.38725477440E+02  0.90526908647E+02  0.47000000000E+01 0. -1.
        -13    1    6    6    0    0 -0.24576175838E+02  0.51566362119E+02  0.26319438617E+02  0.62895079061E+02  0.00000000000E+00 0.  1.
         14    1    6    6    0    0 -0.11492865320E+02 -0.24606453746E+02  0.43636424342E+02  0.51397480955E+02  0.00000000000E+00 0. -1.
         -5    1    3    3    0  503  0.57927065894E+02  0.61315032735E+02 -0.10480390202E+02  0.85129353229E+02  0.47000000000E+01 0.  1.
         13    1    4    4    0    0  0.56265941577E+02 -0.48388649657E+02  0.75510039201E+02  0.10587295980E+03  0.00000000000E+00 0. -1.
        -14    1    4    4    0    0 -0.88792107216E+01  0.34557482937E+01 -0.11879178907E+02  0.15228180154E+02  0.00000000000E+00 0.  1.
</event>
<event>
12    1  0.9966151E-001  0.2868187E+03  0.7818608E-02  0.1092189E+00
         21   -1    0    0  501  502  0.00000000000E+00  0.00000000000E+00  0.25979022028E+03  0.25979022028E+03  0.00000000000E+00 0. -1.
         21   -1    0    0  502  503 -0.00000000000E+00 -0.00000000000E+00 -0.31692146546E+03  0.31692146546E+03  0.00000000000E+00 0. -1.
         -6    2    1    2    0  503 -0.54249387575E+02  0.22277854934E+03 -0.49337012748E+02  0.28978708701E+03  0.17020322228E+03 0.  0.
        -24    2    3    3    0    0 -0.92645643264E+02  0.13073293456E+03 -0.60805219885E+02  0.18928695057E+03  0.80361430391E+02 0.  0.
          6    2    1    2  501    0  0.54249387575E+02 -0.22277854934E+03 -0.77942324393E+01  0.28692459873E+03  0.17231278884E+03 0.  0.
         24    2    5    5    0    0  0.11089893156E+02 -0.22832764862E+03 -0.44006468752E+01  0.24302538593E+03  0.82373974416E+02 0.  0.
          5    1    5    5  501    0  0.43159494418E+02  0.55490992758E+01 -0.33935855641E+01  0.43899212797E+02  0.47000000000E+01 0. -1.
        -11    1    6    6    0    0  0.17596233419E+02 -0.50529481608E+02 -0.32942147171E+02  0.62833438568E+02  0.00000000000E+00 0.  1.
         12    1    6    6    0    0 -0.65063402628E+01 -0.17779816701E+03  0.28541500296E+02  0.18019194736E+03  0.00000000000E+00 0. -1.
         -5    1    3    3    0  503  0.38396255690E+02  0.92045614775E+02  0.11468207137E+02  0.10050013644E+03  0.47000000000E+01 0.  1.
         11    1    4    4    0    0 -0.63683319112E+01  0.33879280782E+02 -0.47791288154E+02  0.58926806642E+02  0.00000000000E+00 0. -1.
        -12    1    4    4    0    0 -0.86277311353E+02  0.96853653783E+02 -0.13013931731E+02  0.13036014393E+03  0.00000000000E+00 0.  1.
</event>
<event>
12    1  0.9966151E-001  0.1934983E+03  0.7818608E-02  0.1155799E+00
         21   -1    0    0  503  502  0.00000000000E+00  0.00000000000E+00  0.52068459119E+03  0.52068459119E+03  0.00000000000E+00 0. -1.
         21   -1    0    0  501  503 -0.00000000000E+00 -0.00000000000E+00 -0.75040708526E+02  0.75040708526E+02  0.00000000000E+00 0. -1.
          6    2    1    2  501    0  0.58902201558E+02  0.66375757325E+02  0.28955063135E+03  0.34711576324E+03  0.16963070023E+03 0.  0.
         24    2    3    3    0    0  0.56063132793E+02 -0.84637768610E+01  0.23525674672E+03  0.25449323846E+03  0.78780461811E+02 0.  0.
         -6    2    1    2    0  502 -0.58902201558E+02 -0.66375757325E+02  0.15609325131E+03  0.24860953648E+03  0.17194879475E+03 0.  0.
        -24    2    5    5    0    0 -0.56005269428E+02 -0.60628581423E+02  0.25004947240E+02  0.11727920597E+03  0.79477982349E+02 0.  0.
          5    1    3    3  501    0  0.28390687648E+01  0.74839534186E+02  0.54293884628E+02  0.92622524780E+02  0.47000000000E+01 0. -1.
        -11    1    4    4    0    0  0.50353302806E+02  0.14067303917E+02  0.68743540293E+02  0.86365609330E+02  0.00000000000E+00 0.  1.
         12    1    4    4    0    0  0.57098299871E+01 -0.22531080778E+02  0.16651320643E+03  0.16812762913E+03  0.00000000000E+00 0. -1.
         -5    1    5    5    0  502 -0.28969321301E+01 -0.57471759017E+01  0.13108830408E+03  0.13133033051E+03  0.47000000000E+01 0.  1.
         13    1    6    6    0    0 -0.14566317480E+02 -0.18656038812E+01  0.41057283925E+02  0.43604571389E+02  0.00000000000E+00 0. -1.
        -14    1    6    6    0    0 -0.41438951947E+02 -0.58762977542E+02 -0.16052336685E+02  0.73674634584E+02  0.00000000000E+00 0.  1.
</event>
<event>
12    1  0.9966151E-001  0.2942557E+03  0.7818608E-02  0.1088338E+00
         21   -1    0    0  503  502  0.00000000000E+00  0.00000000000E+00  0.14517979642E+03  0.14517979642E+03  0.00000000000E+00 0.  1.
         21   -1    0    0  501  503 -0.00000000000E+00 -0.00000000000E+00 -0.13025484641E+04  0.13025484641E+04  0.00000000000E+00 0.  1.
          6    2    1    2  501    0  0.79264237626E+02 -0.22310447499E+03 -0.11134470095E+04  0.11516729897E+04  0.17472265506E+03 0.  0.
         24    2    3    3    0    0 -0.33940941255E+01 -0.32829497629E+02 -0.28280932810E+03  0.29550827744E+03  0.79086852163E+02 0.  0.
         -6    2    1    2    0  502 -0.79264237626E+02  0.22310447499E+03 -0.43921658230E+02  0.29605527083E+03  0.17222422941E+03 0.  0.
        -24    2    5    5    0    0  0.11960397491E+02  0.16207649124E+03 -0.35668117609E+02  0.18588921532E+03  0.82889961018E+02 0.  0.
          5    1    3    3  501    0  0.82658331752E+02 -0.19027497736E+03 -0.83063768138E+03  0.85616471227E+03  0.47000000000E+01 0. -1.
        -11    1    4    4    0    0 -0.15057049715E+02 -0.65354400999E+00 -0.54208960544E+01  0.16016490874E+02  0.00000000000E+00 0.  1.
         12    1    4    4    0    0  0.11662955589E+02 -0.32175953619E+02 -0.27738843205E+03  0.27949178657E+03  0.00000000000E+00 0. -1.
         -5    1    5    5    0  502 -0.91224635118E+02  0.61027983754E+02 -0.82535406218E+01  0.11016605551E+03  0.47000000000E+01 0.  1.
         11    1    6    6    0    0 -0.19176866093E+02  0.57925404783E+02 -0.46399054327E+02  0.76654921270E+02  0.00000000000E+00 0. -1.
        -12    1    6    6    0    0  0.31137263585E+02  0.10415108646E+03  0.10730936719E+02  0.10923429405E+03  0.00000000000E+00 0.  1.
</event>
<event>
12    1  0.9966151E-001  0.3733702E+03  0.7818608E-02  0.1053428E+00
         21   -1    0    0  503  502  0.00000000000E+00  0.00000000000E+00  0.13313462538E+03  0.13313462538E+03  0.00000000000E+00 0. -1.
         21   -1    0    0  501  503 -0.00000000000E+00 -0.00000000000E+00 -0.10853983939E+04  0.10853983939E+04  0.00000000000E+00 0. -1.
          6    2    1    2  501    0 -0.12404188009E+03 -0.30713900073E+03 -0.59120347107E+03  0.69913932712E+03  0.17191131648E+03 0.  0.
         24    2    3    3    0    0 -0.35735199833E+02 -0.75093619830E+02 -0.12705788846E+03  0.17273991561E+03  0.82336596849E+02 0.  0.
         -6    2    1    2    0  502  0.12404188009E+03  0.30713900073E+03 -0.36106029743E+03  0.51939369213E+03  0.17229194776E+03 0.  0.
        -24    2    5    5    0    0  0.24967366379E+00  0.10919536380E+03 -0.17444504618E+03  0.22047307429E+03  0.79079785899E+02 0.  0.
          5    1    3    3  501    0 -0.88306680255E+02 -0.23204538090E+03 -0.46414558261E+03  0.52639941151E+03  0.47000000000E+01 0. -1.
        -11    1    4    4    0    0 -0.53999503686E+02 -0.78119507430E+02 -0.87795041617E+02  0.12933125365E+03  0.00000000000E+00 0.  1.
         12    1    4    4    0    0  0.18264303853E+02  0.30258876003E+01 -0.39262846841E+02  0.43408661959E+02  0.00000000000E+00 0. -1.
         -5    1    5    5    0  502  0.12379220642E+03  0.19794363693E+03 -0.18661525124E+03  0.29892061784E+03  0.47000000000E+01 0.  1.
         13    1    6    6    0    0 -0.26569678179E+02  0.89717447673E+02 -0.90302800849E+02  0.13003754864E+03  0.00000000000E+00 0. -1.
        -14    1    6    6    0    0  0.26819351843E+02  0.19477916127E+02 -0.84142245334E+02  0.90435525651E+02  0.00000000000E+00 0.  1.
</event>
<event>
12    1  0.9966151E-001  0.2240272E+03  0.7818608E-02  0.1131316E+00
         21   -1    0    0  501  502  0.00000000000E+00  0.00000000000E+00  0.16097132199E+03  0.16097132199E+03  0.00000000000E+00 0.  1.
         21   -1    0    0  502  503 -0.00000000000E+00 -0.00000000000E+00 -0.33799158755E+03  0.33799158755E+03  0.00000000000E+00 0.  1.
         -6    2    1    2    0  503 -0.61547211887E+02  0.12675126949E+03 -0.16229274303E+03  0.27663534556E+03  0.17416726547E+03 0.  0.
        -24    2    3    3    0    0  0.81493262413E+01  0.99054737518E+00 -0.64375739869E+02  0.10261466816E+03  0.79486738109E+02 0.  0.
          6    2    1    2  501    0  0.61547211887E+02 -0.12675126949E+03 -0.14727522537E+02  0.22232756398E+03  0.17134381277E+03 0.  0.
         24    2    5    5    0    0  0.80989537125E+02 -0.14929224353E+03 -0.21250127061E+02  0.19149359098E+03  0.85853062758E+02 0.  0.
          5    1    5    5  501    0 -0.19442325238E+02  0.22540974035E+02  0.65226045239E+01  0.30833972998E+02  0.47000000000E+01 0. -1.
        -11    1    6    6    0    0 -0.14341351700E+02 -0.43678403756E+01 -0.92401409971E+01  0.17610582153E+02  0.00000000000E+00 0.  1.
         12    1    6    6    0    0  0.95330888825E+02 -0.14492440315E+03 -0.12009986064E+02  0.17388300883E+03  0.00000000000E+00 0. -1.
         -5    1    3    3    0  503 -0.69696538128E+02  0.12576072212E+03 -0.97917003157E+02  0.17402067740E+03  0.47000000000E+01 0.  1.
         11    1    4    4    0    0  0.14610707477E+02  0.11158178545E+02  0.14131895606E+02  0.23188104598E+02  0.00000000000E+00 0. -1.
        -12    1    4    4    0    0 -0.64613812356E+01 -0.10167631170E+02 -0.78507635475E+02  0.79426563560E+02  0.00000000000E+00 0.  1.
</event>
<event>
12    1  0.9966151E-001  0.1812959E+03  0.7818608E-02  0.1166744E+00
         21   -1    0    0  503  502  0.00000000000E+00  0.00000000000E+00  0.44925564626E+02  0.44925564626E+02  0.00000000000E+00 0. -1.
         21   -1    0    0  501  503 -0.00000000000E+00 -0.00000000000E+00 -0.72844718224E+03  0.72844718224E+03  0.00000000000E+00 0. -1.
          6    2    1    2  501    0 -0.51414990460E+02 -0.22130881998E+02 -0.34170000698E+03  0.38681662653E+03  0.17243819360E+03 0.  0.
         24    2    3    3    0    0 -0.95437707915E+02 -0.88458592154E+01 -0.18178228737E+03  0.22035264085E+03  0.79522833282E+02 0.  0.
         -6    2    1    2    0  502  0.51414990460E+02  0.22130881998E+02 -0.34182161064E+03  0.38655612034E+03  0.17161102380E+03 0.  0.
        -24    2    5    5    0    0  0.12400979677E+02 -0.51307604198E+02 -0.20182878762E+03  0.22365926711E+03  0.80637173253E+02 0.  0.
          5    1    3    3  501    0  0.44022717455E+02 -0.13285022782E+02 -0.15991771961E+03  0.16646398568E+03  0.47000000000E+01 0. -1.
        -13    1    4    4    0    0  0.44918626081E+01 -0.16116744471E+02 -0.61862757374E+02  0.64085310579E+02  0.00000000000E+00 0.  1.
         14    1    4    4    0    0 -0.99929570523E+02  0.72708852557E+01 -0.11991952999E+03  0.15626733027E+03  0.00000000000E+00 0. -1.
         -5    1    5    5    0  502  0.39014010783E+02  0.73438486195E+02 -0.13999282302E+03  0.16289685322E+03  0.47000000000E+01 0.  1.
         11    1    6    6    0    0 -0.33072154019E+02 -0.13421117969E+02 -0.57646917288E+02  0.67801628681E+02  0.00000000000E+00 0. -1.
        -12    1    6    6    0    0  0.45473133696E+02 -0.37886486228E+02 -0.14418187033E+03  0.15585763843E+03  0.00000000000E+00 0.  1.
</event>
<event>
12    1  0.9966151E-001  0.4098433E+03  0.7818608E-02  0.1040511E+00
         21   -1    0    0  503  502  0.00000000000E+00  0.00000000000E+00  0.84495061899E+03  0.84495061899E+03  0.00000000000E+00 0.  1.
         21   -1    0    0  501  503 -0.00000000000E+00 -0.00000000000E+00 -0.20233971051E+03  0.20233971051E+03  0.00000000000E+00 0.  1.
          6    2    1    2  501    0  0.28007323605E+03 -0.24354503179E+03  0.24680608061E+03  0.47752461929E+03  0.17135145329E+03 0.  0.
         24    2    3    3    0    0  0.49743825011E+02 -0.98154467463E+02  0.96733511035E+02  0.16650384841E+03  0.79103803749E+02 0.  0.
         -6    2    1    2    0  502 -0.28007323605E+03  0.24354503179E+03  0.39580482787E+03  0.56976571021E+03  0.17382837142E+03 0.  0.
        -24    2    5    5    0    0 -0.27670778097E+03  0.21801396616E+03  0.29795035404E+03  0.46847035173E+03  0.81195883482E+02 0.  0.
          5    1    3    3  501    0  0.23032941104E+03 -0.14539056432E+03  0.15007256957E+03  0.31102077088E+03  0.47000000000E+01 0. -1.
        -13    1    4    4    0    0  0.31038971942E+02 -0.83112010616E+02  0.10818358158E+03  0.13990965446E+03  0.00000000000E+00 0.  1.
         14    1    4    4    0    0  0.18704853069E+02 -0.15042456846E+02 -0.11450070543E+02  0.26594193948E+02  0.00000000000E+00 0. -1.
         -5    1    5    5    0  502 -0.33654550796E+01  0.25531065627E+02  0.97854473832E+02  0.10129535848E+03  0.47000000000E+01 0.  1.
         13    1    6    6    0    0 -0.19767658263E+03  0.11276497956E+03  0.16275349587E+03  0.27978683377E+03  0.00000000000E+00 0. -1.
        -14    1    6    6    0    0 -0.79031198333E+02  0.10524898660E+03  0.13519685817E+03  0.18868351796E+03  0.00000000000E+00 0.  1.
</event>
<event>
12    1  0.9966151E-001  0.1789958E+03  0.7818608E-02  0.1169044E+00
         21   -1    0    0  501  502  0.00000000000E+00  0.00000000000E+00  0.18652930441E+03  0.18652930441E+03  0.00000000000E+00 0. -1.
         21   -1    0    0  502  503 -0.00000000000E+00 -0.00000000000E+00 -0.18127266356E+03  0.18127266356E+03  0.00000000000E+00 0. -1.
         -6    2    1    2    0  503 -0.39927895673E+02  0.20584398263E+02  0.46977334879E+02  0.18400828972E+03  0.17214594503E+03 0.  0.
        -24    2    3    3    0    0  0.56162672016E+01 -0.23505067555E+02 -0.25851791847E+02  0.87342248798E+02  0.79851879285E+02 0.  0.
          6    2    1    2  501    0  0.39927895673E+02 -0.20584398263E+02 -0.41720694035E+02  0.18379367825E+03  0.17326726624E+03 0.  0.
         24    2    5    5    0    0 -0.18940603242E+02 -0.66000019645E+02 -0.25773199898E+02  0.10760646542E+03  0.78740996451E+02 0.  0.
          5    1    5    5  501    0  0.58868498915E+02  0.45415621382E+02 -0.15947494137E+02  0.76187212833E+02  0.47000000000E+01 0. -1.
        -13    1    6    6    0    0 -0.47590639680E+02 -0.29872556782E+02 -0.32305249860E+01  0.56282101289E+02  0.00000000000E+00 0.  1.
         14    1    6    6    0    0  0.28650036438E+02 -0.36127462864E+02 -0.22542674912E+02  0.51324364127E+02  0.00000000000E+00 0. -1.
         -5    1    3    3    0  503 -0.45544162875E+02  0.44089465818E+02  0.72829126726E+02  0.96666040923E+02  0.47000000000E+01 0.  1.
         13    1    4    4    0    0  0.35120311866E+02 -0.12562150304E+02  0.10995689889E+02  0.38886361645E+02  0.00000000000E+00 0. -1.
        -14    1    4    4    0    0 -0.29504044664E+02 -0.10942917251E+02 -0.36847481736E+02  0.48455887153E+02  0.00000000000E+00 0.  1.
</event>
<event>
12    1  0.1069096E+000  0.7093385E+03  0.7818608E-02  0.9701959E-01
         21   -1    0    0  501  502  0.00000000000E+00  0.00000000000E+00  0.79891210261E+03  0.79891210261E+03  0.00000000000E+00 0. -1.
         21   -1    0    0  502  503 -0.00000000000E+00 -0.00000000000E+00 -0.74710885863E+03  0.74710885863E+03  0.00000000000E+00 0. -1.
         -6    2    1    2    0  503  0.43673071880E+03 -0.53025490600E+03  0.33372980171E+03  0.78270993368E+03  0.17133380765E+03 0.  0.
        -24    2    3    3    0    0  0.31732299892E+03 -0.27911995677E+03  0.20517849850E+03  0.47632048568E+03  0.78620308533E+02 0.  0.
          6    2    1    2  501    0 -0.43673071880E+03  0.53025490600E+03 -0.28192655773E+03  0.76331102756E+03  0.17679693086E+03 0.  0.
         24    2    5    5    0    0 -0.36016139800E+03  0.49048774926E+03 -0.20292562495E+03  0.64623188756E+03  0.78373327425E+02 0.  0.
          5    1    5    5  501    0 -0.76569320798E+02  0.39767156734E+02 -0.79000932781E+02  0.11707914000E+03  0.47000000000E+01 0. -1.
        -11    1    6    6    0    0 -0.22391273097E+03  0.25990793042E+03 -0.14367943179E+03  0.37193120668E+03  0.00000000000E+00 0.  1.
         12    1    6    6    0    0 -0.13624866704E+03  0.23057981885E+03 -0.59246193157E+02  0.27430068088E+03  0.00000000000E+00 0. -1.
         -5    1    3    3    0  503  0.11940771988E+03 -0.25113494922E+03  0.12855130321E+03  0.30638944800E+03  0.47000000000E+01 0.  1.
         11    1    4    4    0    0  0.59411531097E+02 -0.21017547752E+02  0.47083279486E+02  0.78665764777E+02  0.00000000000E+00 0. -1.
        -12    1    4    4    0    0  0.25791146782E+03 -0.25810240902E+03  0.15809521902E+03  0.39765472090E+03  0.00000000000E+00 0.  1.
</event>
<event>
12    1  0.9966151E-001  0.1855558E+03  0.7818608E-02  0.1162635E+00
         21   -1    0    0  503  502  0.00000000000E+00  0.00000000000E+00  0.11754694443E+03  0.11754694443E+03  0.00000000000E+00 0.  1.
         21   -1    0    0  501  503 -0.00000000000E+00 -0.00000000000E+00 -0.93489741057E+03  0.93489741057E+03  0.00000000000E+00 0.  1.
          6    2    1    2  501    0 -0.23962358672E+02  0.64036734255E+02 -0.84512660081E+03  0.86525715283E+03  0.17249948161E+03 0.  0.
         24    2    3    3    0    0 -0.57008344278E+02  0.57165841994E+02 -0.80351388622E+03  0.81147096185E+03  0.79578085907E+02 0.  0.
         -6    2    1    2    0  502  0.23962358672E+02 -0.64036734255E+02  0.27776134678E+02  0.18718720217E+03  0.17202510582E+03 0.  0.
        -24    2    5    5    0    0 -0.60319360302E+01  0.27059077793E+02  0.36096068017E+02  0.90805585782E+02  0.78575761783E+02 0.  0.
          5    1    3    3  501    0  0.33045985606E+02  0.68708922618E+01 -0.41612714590E+02  0.53786190986E+02  0.47000000000E+01 0. -1.
        -13    1    4    4    0    0 -0.84710327567E+01 -0.85996185516E+01 -0.17740442768E+02  0.21457752557E+02  0.00000000000E+00 0.  1.
         14    1    4    4    0    0 -0.48537311521E+02  0.65765460545E+02 -0.78577344346E+03  0.79001320929E+03  0.00000000000E+00 0. -1.
         -5    1    5    5    0  502  0.29994294702E+02 -0.91095812048E+02 -0.83199333394E+01  0.96381616391E+02  0.47000000000E+01 0.  1.
         11    1    6    6    0    0  0.90856802486E+00 -0.20137259934E+02  0.38052123164E+02  0.43061569999E+02  0.00000000000E+00 0. -1.
        -12    1    6    6    0    0 -0.69405040550E+01  0.47196337727E+02 -0.19560551472E+01  0.47744015783E+02  0.00000000000E+00 0.  1.
</event>
<event>
12    1  0.9966151E-001  0.2106768E+03  0.7818608E-02  0.1141045E+00
         21   -1    0    0  503  502  0.00000000000E+00  0.00000000000E+00  0.39195682991E+03  0.39195682991E+03  0.00000000000E+00 0. -1.
         21   -1    0    0  501  503 -0.00000000000E+00 -0.00000000000E+00 -0.11473641774E+03  0.11473641774E+03  0.00000000000E+00 0. -1.
          6    2    1    2  501    0 -0.11114392675E+03 -0.51079205573E+02  0.16789883831E+03  0.26934135364E+03  0.17144295604E+03 0.  0.
         24    2    3    3    0    0 -0.10392801543E+03 -0.70974986005E+01  0.18341937494E+03  0.22191312384E+03  0.68930113552E+02 0.  0.
         -6    2    1    2    0  502  0.11114392675E+03  0.51079205573E+02  0.10932157385E+03  0.23735189401E+03  0.17153033954E+03 0.  0.
        -24    2    5    5    0    0  0.12325037188E+03  0.86664543773E+02  0.86268477835E+02  0.19300758722E+03  0.84310622927E+02 0.  0.
          5    1    3    3  501    0 -0.72159113264E+01 -0.43981706972E+02 -0.15520536622E+02  0.47428229795E+02  0.47000000000E+01 0. -1.
        -11    1    4    4    0    0 -0.50224214033E+02  0.19737906340E+02  0.42339667620E+02  0.68590845425E+02  0.00000000000E+00 0.  1.
         12    1    4    4    0    0 -0.53703801393E+02 -0.26835404941E+02  0.14107970732E+03  0.15332227842E+03  0.00000000000E+00 0. -1.
         -5    1    5    5    0  502 -0.12106445132E+02 -0.35585338200E+02  0.23053096019E+02  0.44344306789E+02  0.47000000000E+01 0.  1.
         11    1    6    6    0    0  0.26844710701E+02  0.38005745331E+02 -0.10841238335E+02  0.47776643032E+02  0.00000000000E+00 0. -1.
        -12    1    6    6    0    0  0.96405661184E+02  0.48658798442E+02  0.97109716170E+02  0.14523094418E+03  0.00000000000E+00 0.  1.
</event>
<event>
12    1  0.9966151E-001  0.2912453E+03  0.7818608E-02  0.1089955E+00
         21   -1    0    0  503  502  0.00000000000E+00  0.00000000000E+00  0.70399132478E+03  0.70399132478E+03  0.00000000000E+00 0.  1.
         21   -1    0    0  501  503 -0.00000000000E+00 -0.00000000000E+00 -0.12896519934E+03  0.12896519934E+03  0.00000000000E+00 0.  1.
          6    2    1    2  501    0  0.56912533773E+02 -0.22689915270E+03  0.17668402039E+03  0.34064802186E+03  0.17349803960E+03 0.  0.
         24    2    3    3    0    0 -0.54132176178E+00 -0.55650012956E+02  0.11084889103E+03  0.14833689989E+03  0.81358111181E+02 0.  0.
         -6    2    1    2    0  502 -0.56912533773E+02  0.22689915270E+03  0.39834210506E+03  0.49230850226E+03  0.17020272248E+03 0.  0.
        -24    2    5    5    0    0 -0.94690054051E+02  0.16591430802E+03  0.22657398418E+03  0.30610251506E+03  0.76610805226E+02 0.  0.
          5    1    3    3  501    0  0.57453855534E+02 -0.17124913974E+03  0.65835129364E+02  0.19231112198E+03  0.47000000000E+01 0. -1.
        -13    1    4    4    0    0  0.18897351004E+02 -0.26331878257E+02  0.10832471455E+03  0.11306954263E+03  0.00000000000E+00 0.  1.
         14    1    4    4    0    0 -0.19438672766E+02 -0.29318134699E+02  0.25241764755E+01  0.35267357258E+02  0.00000000000E+00 0. -1.
         -5    1    5    5    0  502  0.37777520279E+02  0.60984844680E+02  0.17176812088E+03  0.18620598720E+03  0.47000000000E+01 0.  1.
         13    1    6    6    0    0 -0.53104619541E+02  0.93166382945E+02  0.68665751764E+02  0.12733837204E+03  0.00000000000E+00 0. -1.
        -14    1    6    6    0    0 -0.41585434511E+02  0.72747925071E+02  0.15790823242E+03  0.17876414302E+03  0.00000000000E+00 0.  1.
</event>
<event>
12    1  0.9966151E-001  0.2864535E+03  0.7818608E-02  0.1092223E+00
         21   -1    0    0  503  502  0.00000000000E+00  0.00000000000E+00  0.12639060221E+03  0.12639060221E+03  0.00000000000E+00 0.  1.
         21   -1    0    0  501  503 -0.00000000000E+00 -0.00000000000E+00 -0.65257128401E+03  0.65257128401E+03  0.00000000000E+00 0.  1.
          6    2    1    2  501    0  0.18524450902E+03 -0.13557520501E+03 -0.23462983741E+03  0.37023521859E+03  0.17125067049E+03 0.  0.
         24    2    3    3    0    0  0.16576404969E+03 -0.44898740380E+02 -0.18916952976E+03  0.26684063891E+03  0.76975311175E+02 0.  0.
         -6    2    1    2    0  502 -0.18524450902E+03  0.13557520501E+03 -0.29155084439E+03  0.40872666764E+03  0.17134593557E+03 0.  0.
        -24    2    5    5    0    0 -0.19889234107E+03  0.15178567190E+03 -0.25310059701E+03  0.36457291264E+03  0.79097679460E+02 0.  0.
          5    1    3    3  501    0  0.19480459336E+02 -0.90676464635E+02 -0.45460307651E+02  0.10339457968E+03  0.47000000000E+01 0. -1.
        -11    1    4    4    0    0  0.74445391085E+02  0.11268551574E+02 -0.46925336938E+02  0.88719128462E+02  0.00000000000E+00 0.  1.
         12    1    4    4    0    0  0.91318658600E+02 -0.56167291954E+02 -0.14224419282E+03  0.17812151045E+03  0.00000000000E+00 0. -1.
         -5    1    5    5    0  502  0.13647832053E+02 -0.16210466881E+02 -0.38450247385E+02  0.44153754996E+02  0.47000000000E+01 0.  1.
         13    1    6    6    0    0 -0.65276524322E+02  0.62438282308E+02 -0.14511118269E+03  0.17092928089E+03  0.00000000000E+00 0. -1.
        -14    1    6    6    0    0 -0.13361581675E+03  0.89347389588E+02 -0.10798941432E+03  0.19364363175E+03  0.00000000000E+00 0.  1.
</event>
<event>
12    1  0.9966151E-001  0.1851576E+03  0.7818608E-02  0.1163215E+00
         21   -1    0    0  501  502  0.00000000000E+00  0.00000000000E+00  0.82990654316E+02  0.82990654316E+02  0.00000000000E+00 0. -1.
         21   -1    0    0  502  503 -0.00000000000E+00 -0.00000000000E+00 -0.50979726528E+03  0.50979726528E+03  0.00000000000E+00 0. -1.
         -6    2    1    2    0  503  0.22448484931E+02  0.63471776439E+02 -0.34383742272E+03  0.38989086654E+03  0.17105003265E+03 0.  0.
        -24    2    3    3    0    0 -0.21575183952E+02  0.49134750351E+02 -0.90629603188E+02  0.13244199082E+03  0.80295975632E+02 0.  0.
          6    2    1    2  501    0 -0.22448484931E+02 -0.63471776439E+02 -0.82969188241E+02  0.20289705305E+03  0.17248399074E+03 0.  0.
         24    2    5    5    0    0  0.16844953065E+02 -0.64939913184E+02 -0.11183915773E+03  0.15388996343E+03  0.81689527321E+02 0.  0.
          5    1    5    5  501    0 -0.39293437996E+02  0.14681367449E+01  0.28869969491E+02  0.49007089625E+02  0.47000000000E+01 0. -1.
        -13    1    6    6    0    0 -0.65286742989E+01 -0.55476504744E+02 -0.21099257997E+02  0.59711346114E+02  0.00000000000E+00 0.  1.
         14    1    6    6    0    0  0.23373627364E+02 -0.94634084396E+01 -0.90739899735E+02  0.94178617315E+02  0.00000000000E+00 0. -1.
         -5    1    3    3    0  503  0.44023668883E+02  0.14337026088E+02 -0.25320781953E+03  0.25744887573E+03  0.47000000000E+01 0.  1.
         11    1    4    4    0    0  0.18476719390E+02  0.28250719725E+02 -0.78834622116E+02  0.85757739992E+02  0.00000000000E+00 0. -1.
        -12    1    4    4    0    0 -0.40051903342E+02  0.20884030625E+02 -0.11794981072E+02  0.46684250824E+02  0.00000000000E+00 0.  1.
</event>
<event>
12    1  0.9966151E-001  0.2371419E+03  0.7818608E-02  0.1121908E+00
         21   -1    0    0  501  502  0.00000000000E+00  0.00000000000E+00  0.13087412231E+03  0.13087412231E+03  0.00000000000E+00 0.  1.
         21   -1    0    0  502  503 -0.00000000000E+00 -0.00000000000E+00 -0.43274629693E+03  0.43274629693E+03  0.00000000000E+00 0.  1.
         -6    2    1    2    0  503 -0.77125342017E+02 -0.14268742969E+03 -0.11984347922E+03  0.26467108497E+03  0.17140683397E+03 0.  0.
        -24    2    3    3    0    0 -0.69325675943E+02 -0.17380802612E+03 -0.10620704755E+03  0.22949483471E+03  0.79828960403E+02 0.  0.
          6    2    1    2  501    0  0.77125342017E+02  0.14268742969E+03 -0.18202869539E+03  0.29894933428E+03  0.17299779636E+03 0.  0.
         24    2    5    5    0    0  0.10627167900E+03  0.10586006160E+03 -0.18581846163E+03  0.25159728757E+03  0.79200202204E+02 0.  0.
          5    1    5    5  501    0 -0.29146336980E+02  0.36827368086E+02  0.37897662390E+01  0.47352046710E+02  0.47000000000E+01 0. -1.
        -13    1    6    6    0    0 -0.11674861063E+02  0.82264712365E+01 -0.29547336153E+02  0.32818017667E+02  0.00000000000E+00 0.  1.
         14    1    6    6    0    0  0.11794654006E+03  0.97633590366E+02 -0.15627112547E+03  0.21877926990E+03  0.00000000000E+00 0. -1.
         -5    1    3    3    0  503 -0.77996660741E+01  0.31120596435E+02 -0.13636431675E+02  0.35176250257E+02  0.47000000000E+01 0.  1.
         11    1    4    4    0    0 -0.85431939004E+01 -0.11460210542E+03 -0.82264478996E+02  0.14132966155E+03  0.00000000000E+00 0. -1.
        -12    1    4    4    0    0 -0.60782482043E+02 -0.59205920706E+02 -0.23942568553E+02  0.88165173163E+02  0.00000000000E+00 0.  1.
</event>
<event>
12    1  0.1295722E+000  0.1898256E+03  0.7818608E-02  0.1158667E+00
         21   -1    0    0  503  502  0.00000000000E+00  0.00000000000E+00  0.93669871162E+03  0.93669871162E+03  0.00000000000E+00 0. -1.
         21   -1    0    0  501  503 -0.00000000000E+00 -0.00000000000E+00 -0.14969507117E+03  0.14969507117E+03  0.00000000000E+00 0. -1.
          6    2    1    2  501    0  0.78733661686E+02 -0.18836852225E+02  0.86176382920E+03  0.88237703174E+03  0.17145994387E+03 0.  0.
         24    2    3    3    0    0  0.31479470275E+02 -0.67037796485E+02  0.66678252422E+03  0.67598883217E+03  0.82927338106E+02 0.  0.
         -6    2    1    2    0  502 -0.78733661686E+02  0.18836852225E+02 -0.74760188746E+02  0.20401675105E+03  0.17169721140E+03 0.  0.
        -24    2    5    5    0    0  0.36457298464E+01 -0.23808080937E+02 -0.73439562504E+02  0.11112547844E+03  0.79846017765E+02 0.  0.
          5    1    3    3  501    0  0.47254191411E+02  0.48200944261E+02  0.19498130498E+03  0.20638819958E+03  0.47000000000E+01 0. -1.
        -11    1    4    4    0    0  0.50909322966E+02 -0.12737661400E+02  0.27202477594E+03  0.27704058530E+03  0.00000000000E+00 0.  1.
         12    1    4    4    0    0 -0.19429852691E+02 -0.54300135086E+02  0.39475774828E+03  0.39894824686E+03  0.00000000000E+00 0. -1.
         -5    1    5    5    0  502 -0.82379391532E+02  0.42644933162E+02 -0.13206262421E+01  0.92891272611E+02  0.47000000000E+01 0.  1.
         13    1    6    6    0    0  0.18858580267E+02 -0.32850216433E+02 -0.24438280739E+01  0.37957279473E+02  0.00000000000E+00 0. -1.
        -14    1    6    6    0    0 -0.15212850421E+02  0.90421354956E+01 -0.70995734430E+02  0.73168198963E+02  0.00000000000E+00 0.  1.
</event>
<event>
12    1  0.9966151E-001  0.6129464E+03  0.7818608E-02  0.9879050E-01
         21   -1    0    0  503  502  0.00000000000E+00  0.00000000000E+00  0.57368091465E+03  0.57368091465E+03  0.00000000000E+00 0. -1.
         21   -1    0    0  501  503 -0.00000000000E+00 -0.00000000000E+00 -0.91156308945E+03  0.91156308945E+03  0.00000000000E+00 0.  1.
          6    2    1    2  501    0  0.87911069750E+01  0.58845693680E+03 -0.56326092571E+03  0.83244589358E+03  0.17130220454E+03 0.  0.
         24    2    3    3    0    0 -0.11056163995E+02  0.55082377315E+03 -0.55961140039E+03  0.78948570031E+03  0.81201500700E+02 0.  0.
         -6    2    1    2    0  502 -0.87911069750E+01 -0.58845693680E+03  0.22537875092E+03  0.65279811051E+03  0.17026726548E+03 0.  0.
        -24    2    5    5    0    0 -0.67418710870E+02 -0.39006579294E+03  0.12478125468E+03  0.42271510777E+03  0.80131737918E+02 0.  0.
          5    1    3    3  501    0  0.19847270970E+02  0.37633163647E+02 -0.36495253224E+01  0.42960193274E+02  0.47000000000E+01 0. -1.
        -11    1    4    4    0    0 -0.14798123077E+02  0.39824597505E+03 -0.45281209801E+03  0.60320613160E+03  0.00000000000E+00 0.  1.
         12    1    4    4    0    0  0.37419590828E+01  0.15257779810E+03 -0.10679930237E+03  0.18627956871E+03  0.00000000000E+00 0. -1.
         -5    1    5    5    0  502  0.58627603895E+02 -0.19839114386E+03  0.10059749624E+03  0.23008300274E+03  0.47000000000E+01 0.  1.
         11    1    6    6    0    0 -0.29719458086E+02 -0.30803104634E+03  0.12123890628E+03  0.33236312084E+03  0.00000000000E+00 0. -1.
        -12    1    6    6    0    0 -0.37699252785E+02 -0.82034746601E+02  0.35423483955E+01  0.90351986932E+02  0.00000000000E+00 0.  1.
</event>
<event>
12    1  0.9966151E-001  0.3405465E+03  0.7818608E-02  0.1067013E+00
         21   -1    0    0  503  502  0.00000000000E+00  0.00000000000E+00  0.10895127047E+03  0.10895127047E+03  0.00000000000E+00 0. -1.
         21   -1    0    0  501  503 -0.00000000000E+00 -0.00000000000E+00 -0.13262176359E+04  0.13262176359E+04  0.00000000000E+00 0.  1.
          6    2    1    2  501    0 -0.75925635983E+02 -0.28069498663E+03 -0.93830892816E+03  0.99819615355E+03  0.17724993253E+03 0.  0.
         24    2    3    3    0    0 -0.10899558903E+03 -0.14559022782E+03 -0.52249115176E+03  0.55970620975E+03  0.84837990877E+02 0.  0.
         -6    2    1    2    0  502  0.75925635983E+02  0.28069498663E+03 -0.27895743723E+03  0.43697275277E+03  0.16903714727E+03 0.  0.
        -24    2    5    5    0    0  0.39663372634E+02  0.25239054397E+03 -0.28443507318E+03  0.39040895016E+03  0.79004225814E+02 0.  0.
          5    1    3    3  501    0  0.33069953050E+02 -0.13510475882E+03 -0.41581777640E+03  0.43848994380E+03  0.47000000000E+01 0. -1.
        -11    1    4    4    0    0 -0.57356268528E+02 -0.73872627168E+02 -0.38550136796E+03  0.39668401945E+03  0.00000000000E+00 0.  1.
         12    1    4    4    0    0 -0.51639320504E+02 -0.71717600647E+02 -0.13698978380E+03  0.16302219030E+03  0.00000000000E+00 0. -1.
         -5    1    5    5    0  502  0.36262263349E+02  0.28304442661E+02  0.54776359543E+01  0.46563802607E+02  0.47000000000E+01 0.  1.
         13    1    6    6    0    0  0.19780283478E+02  0.56099925227E+02 -0.25118462645E+02  0.64570878812E+02  0.00000000000E+00 0. -1.
        -14    1    6    6    0    0  0.19883089156E+02  0.19629061875E+03 -0.25931661054E+03  0.32583807135E+03  0.00000000000E+00 0.  1.
</event>
<event>
12    1  0.9966151E-001  0.1930774E+03  0.7818608E-02  0.1156194E+00
         21   -1    0    0  501  502  0.00000000000E+00  0.00000000000E+00  0.19273986833E+03  0.19273986833E+03  0.00000000000E+00 0. -1.
         21   -1    0    0  502  503 -0.00000000000E+00 -0.00000000000E+00 -0.21578985210E+03  0.21578985210E+03  0.00000000000E+00 0.  1.
         -6    2    1    2    0  503  0.57434554067E+02 -0.58340426064E+02 -0.80453818567E+02  0.20916904441E+03  0.17486148490E+03 0.  0.
        -24    2    3    3    0    0  0.16190130582E+02 -0.10322960634E+03 -0.50526574686E+02  0.14109650295E+03  0.80229772779E+02 0.  0.
          6    2    1    2  501    0 -0.57434554067E+02  0.58340426064E+02  0.57403834796E+02  0.19936067603E+03  0.17247360837E+03 0.  0.
         24    2    5    5    0    0  0.18653736336E+02  0.62354451213E+02  0.65952562224E+02  0.12254458999E+03  0.80195988714E+02 0.  0.
          5    1    5    5  501    0 -0.76088290403E+02 -0.40140251484E+01 -0.85487274289E+01  0.76816086043E+02  0.47000000000E+01 0. -1.
        -11    1    6    6    0    0  0.15628025921E+02  0.36293959233E+02 -0.11184530165E+02  0.41067997103E+02  0.00000000000E+00 0.  1.
         12    1    6    6    0    0  0.30257104142E+01  0.26060491979E+02  0.77137092390E+02  0.81476592884E+02  0.00000000000E+00 0. -1.
         -5    1    3    3    0  503  0.41244423485E+02  0.44889180278E+02 -0.29927243880E+02  0.68072541461E+02  0.47000000000E+01 0.  1.
         11    1    4    4    0    0  0.22771951076E+02 -0.37543175266E+02  0.16604703177E+02  0.46944306710E+02  0.00000000000E+00 0. -1.
        -12    1    4    4    0    0 -0.65818204942E+01 -0.65686431077E+02 -0.67131277863E+02  0.94152196237E+02  0.00000000000E+00 0.  1.
</event>
<event>
12    1  0.9966151E-001  0.3769173E+03  0.7818608E-02  0.1052089E+00
         21   -1    0    0  501  502  0.00000000000E+00  0.00000000000E+00  0.85533607543E+03  0.85533607543E+03  0.00000000000E+00 0. -1.
         21   -1    0    0  502  503 -0.00000000000E+00 -0.00000000000E+00 -0.18007586899E+03  0.18007586899E+03  0.00000000000E+00 0. -1.
         -6    2    1    2    0  503  0.87854002088E+02 -0.32258327278E+03  0.48208685865E+03  0.61187608706E+03  0.17379963483E+03 0.  0.
        -24    2    3    3    0    0  0.35111217443E+02 -0.27998960298E+03  0.30850243980E+03  0.42546347346E+03  0.78857063869E+02 0.  0.
          6    2    1    2  501    0 -0.87854002088E+02  0.32258327278E+03  0.19317334780E+03  0.42353585736E+03  0.17403559006E+03 0.  0.
         24    2    5    5    0    0 -0.59585194829E+02  0.20932985098E+03  0.47616419021E+02  0.23689617099E+03  0.80517641008E+02 0.  0.
          5    1    5    5  501    0 -0.28268807258E+02  0.11325342180E+03  0.14555692878E+03  0.18663968637E+03  0.47000000000E+01 0. -1.
        -11    1    6    6    0    0 -0.28045733913E+02  0.64076745347E+02 -0.21218336454E+02  0.73093161697E+02  0.00000000000E+00 0.  1.
         12    1    6    6    0    0 -0.31539460917E+02  0.14525310564E+03  0.68834755476E+02  0.16380300929E+03  0.00000000000E+00 0. -1.
         -5    1    3    3    0  503  0.52742784645E+02 -0.42593669805E+02  0.17358441885E+03  0.18641261359E+03  0.47000000000E+01 0.  1.
         11    1    4    4    0    0 -0.19262741431E+02 -0.91600510962E+02  0.13078751811E+03  0.16083246473E+03  0.00000000000E+00 0. -1.
        -12    1    4    4    0    0  0.54373958873E+02 -0.18838909202E+03  0.17771492168E+03  0.26463100874E+03  0.00000000000E+00 0.  1.
</event>
<event>
12    1  0.9966151E-001  0.2309674E+03  0.7818608E-02  0.1126119E+00
         21   -1    0    0  501  502  0.00000000000E+00  0.00000000000E+00  0.11474102842E+04  0.11474102842E+04  0.00000000000E+00 0.  1.
         21   -1    0    0  502  503 -0.00000000000E+00 -0.00000000000E+00 -0.48143944507E+02  0.48143944507E+02  0.00000000000E+00 0.  1.
         -6    2    1    2    0  503 -0.97883595358E+02 -0.11282448109E+03  0.66524442885E+03  0.70390296299E+03  0.17498191170E+03 0.  0.
        -24    2    3    3    0    0 -0.50390052883E+02 -0.12907475656E+03  0.34884144814E+03  0.38350844957E+03  0.78669719337E+02 0.  0.
          6    2    1    2  501    0  0.97883595358E+02  0.11282448109E+03  0.43402191080E+03  0.49165126567E+03  0.17616863003E+03 0.  0.
         24    2    5    5    0    0  0.81037290573E+02  0.56561109660E+02  0.40788784097E+03  0.42719628483E+03  0.79736900925E+02 0.  0.
          5    1    5    5  501    0  0.16846304784E+02  0.56263371429E+02  0.26134069828E+02  0.64454980841E+02  0.47000000000E+01 0. -1.
        -11    1    6    6    0    0 -0.13432233953E+02 -0.46720805127E+01  0.53399558567E+02  0.55260891238E+02  0.00000000000E+00 0.  1.
         12    1    6    6    0    0  0.94469524526E+02  0.61233190173E+02  0.35448828240E+03  0.37193539359E+03  0.00000000000E+00 0. -1.
         -5    1    3    3    0  503 -0.47493542474E+02  0.16250275471E+02  0.31640298070E+03  0.32039451342E+03  0.47000000000E+01 0.  1.
         11    1    4    4    0    0 -0.63565824968E+02 -0.58341401625E+02  0.21246862525E+03  0.22931910073E+03  0.00000000000E+00 0. -1.
        -12    1    4    4    0    0  0.13175772085E+02 -0.70733354936E+02  0.13637282290E+03  0.15418934884E+03  0.00000000000E+00 0.  1.
</event>
<event>
12    1  0.9966151E-001  0.2798095E+03  0.7818608E-02  0.1095847E+00
         21   -1    0    0  503  502  0.00000000000E+00  0.00000000000E+00  0.19515894564E+03  0.19515894564E+03  0.00000000000E+00 0. -1.
         21   -1    0    0  501  503 -0.00000000000E+00 -0.00000000000E+00 -0.84846120178E+03  0.84846120178E+03  0.00000000000E+00 0. -1.
          6    2    1    2  501    0  0.64986738627E+02 -0.21102640151E+03 -0.70564898777E+03  0.75895620393E+03  0.17122677132E+03 0.  0.
         24    2    3    3    0    0  0.45941726130E+02 -0.15661328702E+03 -0.31246812414E+03  0.36154359586E+03  0.80243873500E+02 0.  0.
         -6    2    1    2    0  502 -0.64986738627E+02  0.21102640151E+03  0.52346731628E+02  0.28466394350E+03  0.17186611675E+03 0.  0.
        -24    2    5    5    0    0 -0.44595619697E+02  0.44509788440E+02  0.85818204191E+01  0.11122508507E+03  0.91255034628E+02 0.  0.
          5    1    3    3  501    0  0.19045012497E+02 -0.54413114490E+02 -0.39318086362E+03  0.39741260807E+03  0.47000000000E+01 0. -1.
        -13    1    4    4    0    0  0.51419184495E+02 -0.93197189080E+02 -0.25281230699E+03  0.27430587153E+03  0.00000000000E+00 0.  1.
         14    1    4    4    0    0 -0.54774583648E+01 -0.63416097937E+02 -0.59655817150E+02  0.87237724337E+02  0.00000000000E+00 0. -1.
         -5    1    5    5    0  502 -0.20391118930E+02  0.16651661307E+03  0.43764911209E+02  0.17343885842E+03  0.47000000000E+01 0.  1.
         13    1    6    6    0    0 -0.29531902341E+02 -0.36563839238E+01  0.41430267670E+02  0.51009503806E+02  0.00000000000E+00 0. -1.
        -14    1    6    6    0    0 -0.15063717356E+02  0.48166172364E+02 -0.32848447251E+02  0.60215581269E+02  0.00000000000E+00 0.  1.
</event>
<event>
12    1  0.9966151E-001  0.3218737E+03  0.7818608E-02  0.1074877E+00
         21   -1    0    0  503  502  0.00000000000E+00  0.00000000000E+00  0.53349054083E+03  0.53349054083E+03  0.00000000000E+00 0. -1.
         21   -1    0    0  501  503 -0.00000000000E+00 -0.00000000000E+00 -0.27236392375E+03  0.27236392375E+03  0.00000000000E+00 0. -1.
          6    2    1    2  501    0  0.26199209133E+03  0.71745288908E+02 -0.85813444920E+02  0.33311654511E+03  0.17267148838E+03 0.  0.
         24    2    3    3    0    0  0.24389635212E+03  0.24467847370E+02 -0.10551548392E+03  0.27859248990E+03  0.79975946077E+02 0.  0.
         -6    2    1    2    0  502 -0.26199209133E+03 -0.71745288908E+02  0.34694006201E+03  0.47273791947E+03  0.17124979263E+03 0.  0.
        -24    2    5    5    0    0 -0.19243457975E+03  0.38693457340E+00  0.17171251023E+03  0.27082682521E+03  0.82648447549E+02 0.  0.
          5    1    3    3  501    0  0.18095739208E+02  0.47277441539E+02  0.19702038995E+02  0.54524055209E+02  0.47000000000E+01 0. -1.
        -11    1    4    4    0    0  0.28170085865E+01  0.15651566623E+02 -0.18099596830E+01  0.16005718640E+02  0.00000000000E+00 0.  1.
         12    1    4    4    0    0  0.24107934354E+03  0.88162807466E+01 -0.10370552423E+03  0.26258677126E+03  0.00000000000E+00 0. -1.
         -5    1    5    5    0  502 -0.69557511579E+02 -0.72132223481E+02  0.17522755178E+03  0.20191109426E+03  0.47000000000E+01 0.  1.
         11    1    6    6    0    0  0.11077745054E+01 -0.13747610870E+02  0.20973498616E+02  0.25102024085E+02  0.00000000000E+00 0. -1.
        -12    1    6    6    0    0 -0.19354235426E+03  0.14134545444E+02  0.15073901161E+03  0.24572480113E+03  0.00000000000E+00 0.  1.
</event>
<event>
12    1  0.9966151E-001  0.2108183E+03  0.7818608E-02  0.1141430E+00
         21   -1    0    0  501  502  0.00000000000E+00  0.00000000000E+00  0.21461365624E+03  0.21461365624E+03  0.00000000000E+00 0.  1.
         21   -1    0    0  502  503 -0.00000000000E+00 -0.00000000000E+00 -0.20660508390E+03  0.20660508390E+03  0.00000000000E+00 0.  1.
         -6    2    1    2    0  503 -0.10632697469E+03  0.45561557775E+02 -0.16936425595E+02  0.20892980822E+03  0.17315756165E+03 0.  0.
        -24    2    3    3    0    0 -0.42794407495E+02  0.31620623588E+02 -0.75156213570E+02  0.12150915590E+03  0.79276688760E+02 0.  0.
          6    2    1    2  501    0  0.10632697469E+03 -0.45561557775E+02  0.24944997934E+02  0.21228893191E+03  0.17624714635E+03 0.  0.
         24    2    5    5    0    0  0.99083806893E+02 -0.14788058516E+02 -0.45256936276E+02  0.13515351007E+03  0.78625654463E+02 0.  0.
          5    1    5    5  501    0  0.72431677997E+01 -0.30773499258E+02  0.70201934209E+02  0.77135421844E+02  0.47000000000E+01 0. -1.
        -13    1    6    6    0    0  0.13424157134E+01 -0.28177000156E+02 -0.15082457303E+02  0.31987902965E+02  0.00000000000E+00 0.  1.
         14    1    6    6    0    0  0.97741391179E+02  0.13388941640E+02 -0.30174478972E+02  0.10316560710E+03  0.00000000000E+00 0. -1.
         -5    1    3    3    0  503 -0.63532567197E+02  0.13940934187E+02  0.58219787974E+02  0.87420652322E+02  0.47000000000E+01 0.  1.
         11    1    4    4    0    0 -0.34510352421E+02  0.33359253446E+02 -0.91375058071E+02  0.10321436650E+03  0.00000000000E+00 0. -1.
        -12    1    4    4    0    0 -0.82840550739E+01 -0.17386298578E+01  0.16218844501E+02  0.18294789400E+02  0.00000000000E+00 0.  1.
</event>
<event>
12    1  0.9966151E-001  0.2672183E+03  0.7818608E-02  0.1103975E+00
         21   -1    0    0  501  502  0.00000000000E+00  0.00000000000E+00  0.38650072821E+03  0.38650072821E+03  0.00000000000E+00 0.  1.
         21   -1    0    0  502  503 -0.00000000000E+00 -0.00000000000E+00 -0.21029754114E+03  0.21029754114E+03  0.00000000000E+00 0.  1.
         -6    2    1    2    0  503  0.18334233522E+03 -0.66693552849E+02  0.20305936999E+03  0.33561694494E+03  0.18260116133E+03 0.  0.
        -24    2    3    3    0    0  0.10200799685E+03  0.17606800277E+02  0.44591359561E+02  0.13849762965E+03  0.80483372397E+02 0.  0.
          6    2    1    2  501    0 -0.18334233522E+03  0.66693552849E+02 -0.26856182919E+02  0.26118132442E+03  0.17155753492E+03 0.  0.
         24    2    5    5    0    0 -0.75059195750E+02  0.12661468968E+02 -0.70245073324E+02  0.13253689122E+03  0.82688944517E+02 0.  0.
          5    1    5    5  501    0 -0.10828313947E+03  0.54032083881E+02  0.43388890406E+02  0.12864443319E+03  0.47000000000E+01 0. -1.
        -13    1    6    6    0    0 -0.65695011841E+02  0.21384456331E+02 -0.86509933397E+01  0.69627359846E+02  0.00000000000E+00 0.  1.
         14    1    6    6    0    0 -0.93641839096E+01 -0.87229873632E+01 -0.61594079985E+02  0.62909531376E+02  0.00000000000E+00 0. -1.
         -5    1    3    3    0  503  0.81334338364E+02 -0.84300353126E+02  0.15846801043E+03  0.19711931530E+03  0.47000000000E+01 0.  1.
         11    1    4    4    0    0  0.20427546711E+02 -0.29090080452E+02  0.28910257634E+01  0.35663363208E+02  0.00000000000E+00 0. -1.
        -12    1    4    4    0    0  0.81580450140E+02  0.46696880730E+02  0.41700333798E+02  0.10283426644E+03  0.00000000000E+00 0.  1.
</event>
<event>
12    1  0.9966151E-001  0.2912485E+03  0.7818608E-02  0.1089870E+00
         21   -1    0    0  501  502  0.00000000000E+00  0.00000000000E+00  0.57717178818E+03  0.57717178818E+03  0.00000000000E+00 0.  1.
         21   -1    0    0  502  503 -0.00000000000E+00 -0.00000000000E+00 -0.22395900288E+03  0.22395900288E+03  0.00000000000E+00 0.  1.
         -6    2    1    2    0  503 -0.23408821520E+03 -0.30474047123E+02 -0.59000575685E+02  0.29716453070E+03  0.17058643067E+03 0.  0.
        -24    2    3    3    0    0 -0.20220834393E+03 -0.80145802580E+02 -0.49527539783E+02  0.23720256032E+03  0.80625761376E+02 0.  0.
          6    2    1    2  501    0  0.23408821520E+03  0.30474047123E+02  0.41221336099E+03  0.50396626037E+03  0.16833352776E+03 0.  0.
         24    2    5    5    0    0  0.18065753415E+03  0.88963919983E+01  0.39802514722E+03  0.44443619831E+03  0.79895094401E+02 0.  0.
          5    1    5    5  501    0  0.53430681058E+02  0.21577655125E+02  0.14188213764E+02  0.59530062060E+02  0.47000000000E+01 0. -1.
        -13    1    6    6    0    0  0.19822342258E+02 -0.62046170778E+01  0.79607315000E+01  0.22244005297E+02  0.00000000000E+00 0.  1.
         14    1    6    6    0    0  0.16083519189E+03  0.15101009076E+02  0.39006441572E+03  0.42219219301E+03  0.00000000000E+00 0. -1.
         -5    1    3    3    0  503 -0.31879871273E+02  0.49671755457E+02 -0.94730359020E+01  0.59961970379E+02  0.47000000000E+01 0.  1.
         11    1    4    4    0    0 -0.85990216036E+02 -0.32872307045E+02  0.19355741344E+02  0.94072049767E+02  0.00000000000E+00 0. -1.
        -12    1    4    4    0    0 -0.11621812790E+03 -0.47273495535E+02 -0.68883281127E+02  0.14313051055E+03  0.00000000000E+00 0.  1.
</event>
<event>
12    1  0.9966151E-001  0.2417983E+03  0.7818608E-02  0.1119097E+00
         21   -1    0    0  501  502  0.00000000000E+00  0.00000000000E+00  0.17179667974E+03  0.17179667974E+03  0.00000000000E+00 0.  1.
         21   -1    0    0  502  503 -0.00000000000E+00 -0.00000000000E+00 -0.33613142604E+03  0.33613142604E+03  0.00000000000E+00 0. -1.
         -6    2    1    2    0  503  0.23623813947E+02  0.16500876658E+03 -0.82672187041E+02  0.25271217125E+03  0.17100518516E+03 0.  0.
        -24    2    3    3    0    0  0.27345748324E+02  0.55905495231E+02 -0.99753580984E+02  0.14211723178E+03  0.79833052695E+02 0.  0.
          6    2    1    2  501    0 -0.23623813947E+02 -0.16500876658E+03 -0.81662559264E+02  0.25521593453E+03  0.17515827705E+03 0.  0.
         24    2    5    5    0    0  0.54894324078E+02 -0.13399531174E+03 -0.52828748461E+02  0.16588278824E+03  0.61303282024E+02 0.  0.
          5    1    5    5  501    0 -0.78518138025E+02 -0.31013454843E+02 -0.28833810803E+02  0.89333146287E+02  0.47000000000E+01 0. -1.
        -13    1    6    6    0    0  0.46660229472E+02 -0.39599694197E+02 -0.10455160835E+02  0.62085611722E+02  0.00000000000E+00 0.  1.
         14    1    6    6    0    0  0.82340946066E+01 -0.94395617543E+02 -0.42373587626E+02  0.10379717652E+03  0.00000000000E+00 0. -1.
         -5    1    3    3    0  503 -0.37219343770E+01  0.10910327135E+03  0.17081393943E+02  0.11059493946E+03  0.47000000000E+01 0.  1.
         13    1    4    4    0    0 -0.21758972706E+02  0.29884199284E+02 -0.13187971644E+02  0.39248450366E+02  0.00000000000E+00 0. -1.
        -14    1    4    4    0    0  0.49104721029E+02  0.26021295947E+02 -0.86565609339E+02  0.10286878142E+03  0.00000000000E+00 0.  1.
</event>
<event>
12    1  0.9966151E-001  0.1930925E+03  0.7818608E-02  0.1156026E+00
         21   -1    0    0  501  502  0.00000000000E+00  0.00000000000E+00  0.86666463782E+02  0.86666463782E+02  0.00000000000E+00 0. -1.
         21   -1    0    0  502  503 -0.00000000000E+00 -0.00000000000E+00 -0.57379239757E+03  0.57379239757E+03  0.00000000000E+00 0. -1.
         -6    2    1    2    0  503 -0.57202524805E+02 -0.65251436221E+02 -0.75820331979E+02  0.20608346914E+03  0.17085606439E+03 0.  0.
        -24    2    3    3    0    0 -0.45514662374E+01 -0.78428760142E+02 -0.96666295938E+02  0.14775320215E+03  0.79466028673E+02 0.  0.
          6    2    1    2  501    0  0.57202524805E+02  0.65251436221E+02 -0.41130560181E+03  0.45437539221E+03  0.17249585558E+03 0.  0.
         24    2    5    5    0    0  0.69731446239E+01  0.10081569837E+03 -0.25542628424E+03  0.28672021328E+03  0.82179463608E+02 0.  0.
          5    1    5    5  501    0  0.50229380181E+02 -0.35564262149E+02 -0.15587931757E+03  0.16765517892E+03  0.47000000000E+01 0. -1.
        -11    1    6    6    0    0 -0.29969403547E+02  0.91759144094E+01 -0.66533475571E+02  0.73546352226E+02  0.00000000000E+00 0.  1.
         12    1    6    6    0    0  0.36942548171E+02  0.91639783961E+02 -0.18889280867E+03  0.21317386106E+03  0.00000000000E+00 0. -1.
         -5    1    3    3    0  503 -0.52651058568E+02  0.13177323921E+02  0.20845963959E+02  0.58330266992E+02  0.47000000000E+01 0.  1.
         13    1    4    4    0    0 -0.41492804188E+01  0.12355779085E+02  0.25376453631E+01  0.13278608692E+02  0.00000000000E+00 0. -1.
        -14    1    4    4    0    0 -0.40218581861E+00 -0.90784539228E+02 -0.99203941301E+02  0.13447459346E+03  0.00000000000E+00 0.  1.
</event>
<event>
12    1  0.9966151E-001  0.3254367E+03  0.7818608E-02  0.1073301E+00
         21   -1    0    0  501  502  0.00000000000E+00  0.00000000000E+00  0.11674562643E+03  0.11674562643E+03  0.00000000000E+00 0.  1.
         21   -1    0    0  502  503 -0.00000000000E+00 -0.00000000000E+00 -0.12372850517E+04  0.12372850517E+04  0.00000000000E+00 0.  1.
         -6    2    1    2    0  503 -0.27327824984E+03 -0.31791843070E+02 -0.20820842400E+03  0.38539406963E+03  0.17171522344E+03 0.  0.
        -24    2    3    3    0    0 -0.16746582844E+03  0.48099679456E+02 -0.11781092555E+03  0.22485522194E+03  0.79511469572E+02 0.  0.
          6    2    1    2  501    0  0.27327824984E+03  0.31791843070E+02 -0.91233100132E+03  0.96863660855E+03  0.17383124093E+03 0.  0.
         24    2    5    5    0    0  0.98049158181E+02 -0.13383180022E+02 -0.23562769961E+03  0.26814002339E+03  0.81153634487E+02 0.  0.
          5    1    5    5  501    0  0.17522909165E+03  0.45175023093E+02 -0.67670330171E+03  0.70049658516E+03  0.47000000000E+01 0. -1.
        -11    1    6    6    0    0  0.83966669452E+02 -0.93769757926E+01 -0.96565119800E+02  0.12830881348E+03  0.00000000000E+00 0.  1.
         12    1    6    6    0    0  0.14082488729E+02 -0.40062042299E+01 -0.13906257981E+03  0.13983120991E+03  0.00000000000E+00 0. -1.
         -5    1    3    3    0  503 -0.10581242139E+03 -0.79891522526E+02 -0.90397498450E+02  0.16053884769E+03  0.47000000000E+01 0.  1.
         13    1    4    4    0    0 -0.90407091401E+02 -0.12319020205E+02 -0.39299100868E+02  0.99345959976E+02  0.00000000000E+00 0. -1.
        -14    1    4    4    0    0 -0.77058737043E+02  0.60418699661E+02 -0.78511824683E+02  0.12550926196E+03  0.00000000000E+00 0.  1.
</event>
<event>
12    1  0.9966151E-001  0.2070860E+03  0.7818608E-02  0.1144843E+00
         21   -1    0    0  501  502  0.00000000000E+00  0.00000000000E+00  0.53850050093E+02  0.53850050093E+02  0.00000000000E+00 0.  1.
         21   -1    0    0  502  503 -0.00000000000E+00 -0.00000000000E+00 -0.93765641971E+03  0.93765641971E+03  0.00000000000E+00 0.  1.
         -6    2    1    2    0  503  0.81642743538E+02  0.77959872392E+02 -0.23356247692E+03  0.30908302938E+03  0.16804049854E+03 0.  0.
        -24    2    3    3    0    0  0.10258263408E+03  0.12984320493E+02 -0.13076254711E+03  0.18559126071E+03  0.81568884586E+02 0.  0.
          6    2    1    2  501    0 -0.81642743538E+02 -0.77959872392E+02 -0.65024389269E+03  0.68242344042E+03  0.17361265153E+03 0.  0.
         24    2    5    5    0    0 -0.62514250472E+02  0.18156052809E+02 -0.24884493877E+03  0.26920753979E+03  0.79443200847E+02 0.  0.
          5    1    5    5  501    0 -0.19128493066E+02 -0.96115925201E+02 -0.40139895392E+03  0.41321590063E+03  0.47000000000E+01 0. -1.
        -13    1    6    6    0    0 -0.67994473075E+01  0.38528080485E+02 -0.13859114708E+03  0.14400747036E+03  0.00000000000E+00 0.  1.
         14    1    6    6    0    0 -0.55714803164E+02 -0.20372027676E+02 -0.11025379169E+03  0.12520006943E+03  0.00000000000E+00 0. -1.
         -5    1    3    3    0  503 -0.20939890539E+02  0.64975551899E+02 -0.10279992981E+03  0.12349176867E+03  0.47000000000E+01 0.  1.
         11    1    4    4    0    0  0.79114548913E+02  0.26732660106E+02 -0.13431763839E+03  0.15816123086E+03  0.00000000000E+00 0. -1.
        -12    1    4    4    0    0  0.23468085164E+02 -0.13748339613E+02  0.35550912793E+01  0.27430029847E+02  0.00000000000E+00 0.  1.
</event>
<event>
12    1  0.9966151E-001  0.2556732E+03  0.7818608E-02  0.1109912E+00
         21   -1    0    0  501  502  0.00000000000E+00  0.00000000000E+00  0.44575759624E+03  0.44575759624E+03  0.00000000000E+00 0.  1.
         21   -1    0    0  502  503 -0.00000000000E+00 -0.00000000000E+00 -0.24499634839E+03  0.24499634839E+03  0.00000000000E+00 0. -1.
         -6    2    1    2    0  503  0.10688506378E+03  0.15527257217E+03 -0.11913678248E+03  0.28123775263E+03  0.17136835191E+03 0.  0.
        -24    2    3    3    0    0  0.12977912156E+03  0.65830481706E+02 -0.73217146149E+02  0.17801600865E+03  0.71782143543E+02 0.  0.
          6    2    1    2  501    0 -0.10688506378E+03 -0.15527257217E+03  0.31989803034E+03  0.40951619201E+03  0.17272745344E+03 0.  0.
         24    2    5    5    0    0 -0.21425625587E+01 -0.12226337508E+03  0.18652473149E+03  0.23668354029E+03  0.79212999714E+02 0.  0.
          5    1    5    5  501    0 -0.10474250122E+03 -0.33009197085E+02  0.13337329885E+03  0.17283265172E+03  0.47000000000E+01 0. -1.
        -13    1    6    6    0    0 -0.84241989258E+01 -0.16440858905E+02  0.94546854101E+02  0.96334711239E+02  0.00000000000E+00 0.  1.
         14    1    6    6    0    0  0.62816363671E+01 -0.10582251618E+03  0.91977877390E+02  0.14034882905E+03  0.00000000000E+00 0. -1.
         -5    1    3    3    0  503 -0.22894057783E+02  0.89442090463E+02 -0.45919636336E+02  0.10322174398E+03  0.47000000000E+01 0.  1.
         13    1    4    4    0    0  0.32807193670E+02  0.24067372017E+02 -0.58724738484E+02  0.71443301032E+02  0.00000000000E+00 0. -1.
        -14    1    4    4    0    0  0.96971927890E+02  0.41763109689E+02 -0.14492407665E+02  0.10657270762E+03  0.00000000000E+00 0.  1.
</event>
<event>
12    1  0.9966151E-001  0.2319124E+03  0.7818608E-02  0.1125405E+00
         21   -1    0    0  503  502  0.00000000000E+00  0.00000000000E+00  0.79964673006E+03  0.79964673006E+03  0.00000000000E+00 0.  1.
         21   -1    0    0  501  503 -0.00000000000E+00 -0.00000000000E+00 -0.67578645259E+02  0.67578645259E+02  0.00000000000E+00 0.  1.
          6    2    1    2  501    0  0.37180494835E+02  0.15186391498E+03  0.32853864984E+03  0.40180151116E+03  0.17047513620E+03 0.  0.
         24    2    3    3    0    0  0.25346674058E+02  0.14643659815E+03  0.16108188228E+03  0.23377367393E+03  0.81342649690E+02 0.  0.
         -6    2    1    2    0  502 -0.37180494835E+02 -0.15186391498E+03  0.40352943496E+03  0.46542386416E+03  0.17128435592E+03 0.  0.
        -24    2    5    5    0    0 -0.66593145775E+02 -0.36099925026E+02  0.19230761219E+03  0.22272414471E+03  0.82981776802E+02 0.  0.
          5    1    3    3  501    0  0.11833820777E+02  0.54273168231E+01  0.16745676756E+03  0.16802783723E+03  0.47000000000E+01 0. -1.
        -11    1    4    4    0    0 -0.15771954154E+02  0.11884712634E+03  0.11530616808E+03  0.16633973179E+03  0.00000000000E+00 0.  1.
         12    1    4    4    0    0  0.41118628212E+02  0.27589471818E+02  0.45775714195E+02  0.67433942131E+02  0.00000000000E+00 0. -1.
         -5    1    5    5    0  502  0.29412650940E+02 -0.11576398995E+03  0.21122182278E+03  0.24269971945E+03  0.47000000000E+01 0.  1.
         11    1    6    6    0    0 -0.27903898355E+02 -0.60221635692E+02  0.12299314337E+03  0.13975902928E+03  0.00000000000E+00 0. -1.
        -12    1    6    6    0    0 -0.38689247420E+02  0.24121710666E+02  0.69314468816E+02  0.82965115432E+02  0.00000000000E+00 0.  1.
</event>
<event>
12    1  0.9966151E-001  0.3202283E+03  0.7818608E-02  0.1075659E+00
         21   -1    0    0  503  502  0.00000000000E+00  0.00000000000E+00  0.65461218454E+03  0.65461218454E+03  0.00000000000E+00 0. -1.
         21   -1    0    0  501  503 -0.00000000000E+00 -0.00000000000E+00 -0.15819610210E+03  0.15819610210E+03  0.00000000000E+00 0. -1.
          6    2    1    2  501    0 -0.96211524129E+02 -0.25073405660E+03  0.29386903167E+03  0.43389999805E+03  0.17258614086E+03 0.  0.
         24    2    3    3    0    0 -0.59046504178E+02 -0.16908591807E+03  0.28179343631E+03  0.34326023174E+03  0.79646146170E+02 0.  0.
         -6    2    1    2    0  502  0.96211524129E+02  0.25073405660E+03  0.20254705077E+03  0.37890828860E+03  0.17441891777E+03 0.  0.
        -24    2    5    5    0    0  0.13351144350E+03  0.17975871821E+03  0.17092226621E+03  0.29258911550E+03  0.79091510971E+02 0.  0.
          5    1    3    3  501    0 -0.37165019951E+02 -0.81648138529E+02  0.12075595358E+02  0.90639766309E+02  0.47000000000E+01 0. -1.
        -13    1    4    4    0    0 -0.11273669976E+02 -0.10476868275E+03  0.10307122380E+03  0.14740166110E+03  0.00000000000E+00 0.  1.
         14    1    4    4    0    0 -0.47772834202E+02 -0.64317235320E+02  0.17872221251E+03  0.19585857064E+03  0.00000000000E+00 0. -1.
         -5    1    5    5    0  502 -0.37299919371E+02  0.70975338391E+02  0.31624784563E+02  0.86319173093E+02  0.47000000000E+01 0.  1.
         13    1    6    6    0    0  0.43884195687E+01  0.35361204912E+02  0.58846370875E+02  0.68793665438E+02  0.00000000000E+00 0. -1.
        -14    1    6    6    0    0  0.12912302393E+03  0.14439751330E+03  0.11207589533E+03  0.22379545007E+03  0.00000000000E+00 0.  1.
</event>
<event>
12    1  0.9966151E-001  0.2709178E+03  0.7818608E-02  0.1100757E+00
         21   -1    0    0  503  502  0.00000000000E+00  0.00000000000E+00  0.11257575926E+04  0.11257575926E+04  0.00000000000E+00 0. -1.
         21   -1    0    0  501  503 -0.00000000000E+00 -0.00000000000E+00 -0.84951566128E+02  0.84951566128E+02  0.00000000000E+00 0.  1.
          6    2    1    2  501    0  0.13887032828E+03 -0.15592607877E+03  0.81232582946E+03  0.85630871566E+03  0.17260780163E+03 0.  0.
         24    2    3    3    0    0  0.43001631233E+02 -0.85828434093E+02  0.60130124531E+03  0.61411467779E+03  0.79737001942E+02 0.  0.
         -6    2    1    2    0  502 -0.13887032828E+03  0.15592607877E+03  0.22848019701E+03  0.35440044308E+03  0.17262260428E+03 0.  0.
        -24    2    5    5    0    0 -0.11163000458E+03  0.16704816549E+03  0.23976473168E+03  0.32253876122E+03  0.78598844860E+02 0.  0.
          5    1    3    3  501    0  0.95868697045E+02 -0.70097644672E+02  0.21102458415E+03  0.24219403786E+03  0.47000000000E+01 0. -1.
        -11    1    4    4    0    0  0.21890533924E+01  0.10131475480E+01  0.24809665409E+03  0.24810837993E+03  0.00000000000E+00 0.  1.
         12    1    4    4    0    0  0.40812577840E+02 -0.86841581641E+02  0.35320459123E+03  0.36600629786E+03  0.00000000000E+00 0. -1.
         -5    1    5    5    0  502 -0.27240323695E+02 -0.11122086729E+02 -0.11284534664E+02  0.31861681857E+02  0.47000000000E+01 0.  1.
         13    1    6    6    0    0 -0.57394165605E+02  0.13384870929E+03  0.20047480396E+03  0.24778965727E+03  0.00000000000E+00 0. -1.
        -14    1    6    6    0    0 -0.54235838977E+02  0.33199456199E+02  0.39289927719E+02  0.74749103952E+02  0.00000000000E+00 0.  1.
</event>
<event>
12    1  0.9966151E-001  0.3333751E+03  0.7818608E-02  0.1069739E+00
         21   -1    0    0  501  502  0.00000000000E+00  0.00000000000E+00  0.36621050947E+03  0.36621050947E+03  0.00000000000E+00 0.  1.
         21   -1    0    0  502  503 -0.00000000000E+00 -0.00000000000E+00 -0.30279935401E+03  0.30279935401E+03  0.00000000000E+00 0.  1.
         -6    2    1    2    0  503  0.25969545360E+03 -0.11734508716E+03  0.28579254290E+02  0.33382007136E+03  0.17148605823E+03 0.  0.
        -24    2    3    3    0    0  0.13570939068E+03 -0.11407650494E+02 -0.29621565127E+02  0.16060139551E+03  0.79800989394E+02 0.  0.
          6    2    1    2  501    0 -0.25969545360E+03  0.11734508716E+03  0.34831901168E+02  0.33518979211E+03  0.17299519443E+03 0.  0.
         24    2    5    5    0    0 -0.75190605500E+02  0.61981396886E+02  0.62363961444E+02  0.14054323674E+03  0.79798602690E+02 0.  0.
          5    1    5    5  501    0 -0.18450484811E+03  0.55363690271E+02 -0.27532060276E+02  0.19464655537E+03  0.47000000000E+01 0. -1.
        -11    1    6    6    0    0 -0.10627928992E+01 -0.16660679906E+02  0.21597271294E+01  0.16833662850E+02  0.00000000000E+00 0.  1.
         12    1    6    6    0    0 -0.74127812601E+02  0.78642076791E+02  0.60204234315E+02  0.12370957389E+03  0.00000000000E+00 0. -1.
         -5    1    3    3    0  503  0.12398606292E+03 -0.10593743666E+03  0.58200819417E+02  0.17321867586E+03  0.47000000000E+01 0.  1.
         11    1    4    4    0    0  0.51004563487E+01 -0.25772926123E+02 -0.21243610227E+01  0.26358514482E+02  0.00000000000E+00 0. -1.
        -12    1    4    4    0    0  0.13060893434E+03  0.14365275629E+02 -0.27497204104E+02  0.13424288102E+03  0.00000000000E+00 0.  1.
</event>
<event>
12    1  0.9966151E-001  0.2034629E+03  0.7818608E-02  0.1146925E+00
         21   -1    0    0  501  502  0.00000000000E+00  0.00000000000E+00  0.14752886234E+03  0.14752886234E+03  0.00000000000E+00 0. -1.
         21   -1    0    0  502  503 -0.00000000000E+00 -0.00000000000E+00 -0.28193889104E+03  0.28193889104E+03  0.00000000000E+00 0. -1.
         -6    2    1    2    0  503 -0.52284379352E+02  0.93767521772E+02 -0.84473117939E+02  0.21996636658E+03  0.17240501822E+03 0.  0.
        -24    2    3    3    0    0 -0.96478190417E+02  0.44896674702E+02 -0.73918334960E+02  0.15307132884E+03  0.81505575547E+02 0.  0.
          6    2    1    2  501    0  0.52284379352E+02 -0.93767521772E+02 -0.49936910756E+02  0.20950138680E+03  0.17283266923E+03 0.  0.
         24    2    5    5    0    0  0.95465331146E+02 -0.33292701823E+02 -0.33051027338E+02  0.13315335798E+03  0.80096272628E+02 0.  0.
          5    1    5    5  501    0 -0.43180951794E+02 -0.60474819949E+02 -0.16885883418E+02  0.76348028819E+02  0.47000000000E+01 0. -1.
        -13    1    6    6    0    0  0.17379845906E+02 -0.20605723133E+01  0.25321199256E+02  0.30780970318E+02  0.00000000000E+00 0.  1.
         14    1    6    6    0    0  0.78085485240E+02 -0.31232129509E+02 -0.58372226594E+02  0.10237238767E+03  0.00000000000E+00 0. -1.
         -5    1    3    3    0  503  0.44193811065E+02  0.48870847070E+02 -0.10554782979E+02  0.66895037734E+02  0.47000000000E+01 0.  1.
         11    1    4    4    0    0 -0.40729425252E+02 -0.88303875736E+01  0.56423652696E+01  0.42055892713E+02  0.00000000000E+00 0. -1.
        -12    1    4    4    0    0 -0.55748765165E+02  0.53727062276E+02 -0.79560700230E+02  0.11101543613E+03  0.00000000000E+00 0.  1.
</event>
<event>
12    1  0.9966151E-001  0.2799623E+03  0.7818608E-02  0.1095749E+00
         21   -1    0    0  503  502  0.00000000000E+00  0.00000000000E+00  0.92720059815E+03  0.92720059815E+03  0.00000000000E+00 0.  1.
         21   -1    0    0  501  503 -0.00000000000E+00 -0.00000000000E+00 -0.25970403463E+03  0.25970403463E+03  0.00000000000E+00 0.  1.
          6    2    1    2  501    0  0.12888541559E+03  0.17972210487E+03  0.82131640910E+03  0.86772087963E+03  0.17166069950E+03 0.  0.
         24    2    3    3    0    0  0.85841804115E+02  0.13316087776E+03  0.35261634382E+03  0.39472770678E+03  0.79818806535E+02 0.  0.
         -6    2    1    2    0  502 -0.12888541559E+03 -0.17972210487E+03 -0.15381984558E+03  0.31918375316E+03  0.17119064826E+03 0.  0.
        -24    2    5    5    0    0 -0.15220163675E+03 -0.10559061927E+03 -0.10738005189E+03  0.22853129724E+03  0.79883422354E+02 0.  0.
          5    1    3    3  501    0  0.43043611480E+02  0.46561227108E+02  0.46870006529E+03  0.47299317285E+03  0.47000000000E+01 0. -1.
        -13    1    4    4    0    0  0.85028731138E+02  0.14213613984E+03  0.31323719121E+03  0.35433050295E+03  0.00000000000E+00 0.  1.
         14    1    4    4    0    0  0.81307297742E+00 -0.89752620805E+01  0.39379152610E+02  0.40397203831E+02  0.00000000000E+00 0. -1.
         -5    1    5    5    0  502  0.23316221152E+02 -0.74131485600E+02 -0.46439793696E+02  0.90652455921E+02  0.47000000000E+01 0.  1.
         13    1    6    6    0    0 -0.31321545412E+02 -0.22199590847E+01 -0.50789065455E+02  0.59711779366E+02  0.00000000000E+00 0. -1.
        -14    1    6    6    0    0 -0.12088009134E+03 -0.10337066019E+03 -0.56590986432E+02  0.16881951787E+03  0.00000000000E+00 0.  1.
</event>
<event>
12    1  0.9966151E-001  0.2457114E+03  0.7818608E-02  0.1116192E+00
         21   -1    0    0  501  502  0.00000000000E+00  0.00000000000E+00  0.56261528802E+02  0.56261528802E+02  0.00000000000E+00 0.  1.
         21   -1    0    0  502  503 -0.00000000000E+00 -0.00000000000E+00 -0.10694978880E+04  0.10694978880E+04  0.00000000000E+00 0.  1.
         -6    2    1    2    0  503  0.17207754176E+03  0.26557586787E+02 -0.49548906708E+03  0.55266574020E+03  0.17208724241E+03 0.  0.
        -24    2    3    3    0    0  0.65377299686E+02 -0.51627993850E+02 -0.25726815817E+03  0.28014194652E+03  0.73163952388E+02 0.  0.
          6    2    1    2  501    0 -0.17207754176E+03 -0.26557586787E+02 -0.51774729214E+03  0.57309367662E+03  0.17337277143E+03 0.  0.
         24    2    5    5    0    0 -0.17722407552E+03 -0.47455073104E+02 -0.34030142447E+03  0.39428562955E+03  0.77432172055E+02 0.  0.
          5    1    5    5  501    0  0.51465337541E+01  0.20897486317E+02 -0.17744586767E+03  0.17880804707E+03  0.47000000000E+01 0. -1.
        -11    1    6    6    0    0 -0.42715455434E+01  0.57739180471E+01  0.16820897046E+01  0.73765613072E+01  0.00000000000E+00 0.  1.
         12    1    6    6    0    0 -0.17295252998E+03 -0.53228991151E+02 -0.34198351417E+03  0.38690906824E+03  0.00000000000E+00 0. -1.
         -5    1    3    3    0  503  0.10670024208E+03  0.78185580637E+02 -0.23822090891E+03  0.27252379368E+03  0.47000000000E+01 0.  1.
         11    1    4    4    0    0  0.61298605754E+02 -0.27163300953E+02 -0.96703541543E+02  0.11767301701E+03  0.00000000000E+00 0. -1.
        -12    1    4    4    0    0  0.40786939319E+01 -0.24464692897E+02 -0.16056461663E+03  0.16246892951E+03  0.00000000000E+00 0.  1.
</event>
<event>
12    1  0.9966151E-001  0.2569702E+03  0.7818608E-02  0.1108998E+00
         21   -1    0    0  503  502  0.00000000000E+00  0.00000000000E+00  0.13082065932E+04  0.13082065932E+04  0.00000000000E+00 0.  1.
         21   -1    0    0  501  503 -0.00000000000E+00 -0.00000000000E+00 -0.50474223143E+02  0.50474223143E+02  0.00000000000E+00 0.  1.
          6    2    1    2  501    0  0.37883717668E+02  0.18775787457E+03  0.64366089306E+03  0.69301014408E+03  0.17110090300E+03 0.  0.
         24    2    3    3    0    0  0.45192143193E+02  0.90330654485E+02  0.51818860986E+03  0.53391627195E+03  0.79656720468E+02 0.  0.
         -6    2    1    2    0  502 -0.37883717668E+02 -0.18775787457E+03  0.61407147697E+03  0.66567067224E+03  0.17130519412E+03 0.  0.
        -24    2    5    5    0    0 -0.59085604264E+02 -0.16896948434E+03  0.60433760264E+03  0.63534969086E+03  0.80021849802E+02 0.  0.
          5    1    3    3  501    0 -0.73084255247E+01  0.97427220080E+02  0.12547228320E+03  0.15909387213E+03  0.47000000000E+01 0. -1.
        -13    1    4    4    0    0 -0.14480826930E+01 -0.13929926601E+02  0.44489117699E+02  0.46641412846E+02  0.00000000000E+00 0.  1.
         14    1    4    4    0    0  0.46640225886E+02  0.10426058109E+03  0.47369949216E+03  0.48727485910E+03  0.00000000000E+00 0. -1.
         -5    1    5    5    0  502  0.21201886596E+02 -0.18788390225E+02  0.97338743305E+01  0.30320981382E+02  0.47000000000E+01 0.  1.
         13    1    6    6    0    0 -0.11829766889E+01 -0.50977263866E+02  0.80626506144E+02  0.95397664322E+02  0.00000000000E+00 0. -1.
        -14    1    6    6    0    0 -0.57902627575E+02 -0.11799222047E+03  0.52371109650E+03  0.53995202654E+03  0.00000000000E+00 0.  1.
</event>
<event>
12    1  0.9966151E-001  0.2137741E+03  0.7818608E-02  0.1138721E+00
         21   -1    0    0  503  502  0.00000000000E+00  0.00000000000E+00  0.15432844694E+03  0.15432844694E+03  0.00000000000E+00 0.  1.
         21   -1    0    0  501  503 -0.00000000000E+00 -0.00000000000E+00 -0.38315486867E+03  0.38315486867E+03  0.00000000000E+00 0.  1.
          6    2    1    2  501    0 -0.94606578502E+01  0.12634372304E+03  0.14363170342E+02  0.21369239946E+03  0.17148148742E+03 0.  0.
         24    2    3    3    0    0  0.54635516017E+01  0.60307700470E+01  0.36677981391E+02  0.90331224539E+02  0.82147642841E+02 0.  0.
         -6    2    1    2    0  502  0.94606578502E+01 -0.12634372304E+03 -0.24318959208E+03  0.32379091615E+03  0.17218344661E+03 0.  0.
        -24    2    5    5    0    0  0.63553264662E+02 -0.81549100620E+02 -0.20697643992E+03  0.24463252621E+03  0.79476744605E+02 0.  0.
          5    1    3    3  501    0 -0.14924209452E+02  0.12031295299E+03 -0.22314811049E+02  0.12336117492E+03  0.47000000000E+01 0. -1.
        -13    1    4    4    0    0 -0.37538000661E+02 -0.23258684875E+01  0.24420053087E+02  0.44842503840E+02  0.00000000000E+00 0.  1.
         14    1    4    4    0    0  0.43001552262E+02  0.83566385345E+01  0.12257928304E+02  0.45488720699E+02  0.00000000000E+00 0. -1.
         -5    1    5    5    0  502 -0.54092606812E+02 -0.44794622420E+02 -0.36213152155E+02  0.79158389944E+02  0.47000000000E+01 0.  1.
         11    1    6    6    0    0  0.24666784058E+02 -0.57906011947E+02 -0.47677161784E+02  0.78959915217E+02  0.00000000000E+00 0. -1.
        -12    1    6    6    0    0  0.38886480604E+02 -0.23643088673E+02 -0.15929927814E+03  0.16567261099E+03  0.00000000000E+00 0.  1.
</event>
<event>
12    1  0.9966151E-001  0.2756358E+03  0.7818608E-02  0.1098268E+00
         21   -1    0    0  501  502  0.00000000000E+00  0.00000000000E+00  0.59433599845E+02  0.59433599845E+02  0.00000000000E+00 0.  1.
         21   -1    0    0  502  503 -0.00000000000E+00 -0.00000000000E+00 -0.14902045837E+04  0.14902045837E+04  0.00000000000E+00 0.  1.
         -6    2    1    2    0  503  0.17533950328E+03 -0.12281543302E+03 -0.10100725833E+04  0.10466846717E+04  0.17168170080E+03 0.  0.
        -24    2    3    3    0    0  0.19926912658E+03 -0.10502337647E+03 -0.82258520893E+03  0.85678261878E+03  0.81804250969E+02 0.  0.
          6    2    1    2  501    0 -0.17533950328E+03  0.12281543302E+03 -0.42069840052E+03  0.50295351183E+03  0.17363040882E+03 0.  0.
         24    2    5    5    0    0 -0.78430788115E+02  0.76188529118E+02 -0.34275183007E+03  0.37005082154E+03  0.86618202539E+02 0.  0.
          5    1    5    5  501    0 -0.96908715169E+02  0.46626903898E+02 -0.77946570449E+02  0.13290269030E+03  0.47000000000E+01 0. -1.
        -11    1    6    6    0    0 -0.28189532123E+02  0.79224507285E+02 -0.16337250774E+03  0.18374370346E+03  0.00000000000E+00 0.  1.
         12    1    6    6    0    0 -0.50241255992E+02 -0.30359781674E+01 -0.17937932233E+03  0.18630711808E+03  0.00000000000E+00 0. -1.
         -5    1    3    3    0  503 -0.23929623293E+02 -0.17792056545E+02 -0.18748737440E+03  0.18990205293E+03  0.47000000000E+01 0.  1.
         13    1    4    4    0    0  0.13618517654E+03 -0.11172434635E+03 -0.59643898331E+03  0.62190690034E+03  0.00000000000E+00 0. -1.
        -14    1    4    4    0    0  0.63083950041E+02  0.67009698833E+01 -0.22614622562E+03  0.23487571844E+03  0.00000000000E+00 0.  1.
</event>
<event>
12    1  0.9966151E-001  0.3268301E+03  0.7818608E-02  0.1072593E+00
         21   -1    0    0  501  502  0.00000000000E+00  0.00000000000E+00  0.35570107002E+03  0.35570107002E+03  0.00000000000E+00 0.  1.
         21   -1    0    0  502  503 -0.00000000000E+00 -0.00000000000E+00 -0.38424393368E+03  0.38424393368E+03  0.00000000000E+00 0.  1.
         -6    2    1    2    0  503  0.15802382552E+03  0.22860596801E+03 -0.18757857333E+03  0.37683370777E+03  0.17200495370E+03 0.  0.
        -24    2    3    3    0    0  0.16430705653E+03  0.18470589304E+03 -0.19746003101E+03  0.33115626499E+03  0.97780019644E+02 0.  0.
          6    2    1    2  501    0 -0.15802382552E+03 -0.22860596801E+03  0.15903570966E+03  0.36311129593E+03  0.17124613351E+03 0.  0.
         24    2    5    5    0    0 -0.15697418569E+03 -0.13140940019E+03  0.72169458052E+02  0.23266548263E+03  0.83758406741E+02 0.  0.
          5    1    5    5  501    0 -0.10496398365E+01 -0.97196567813E+02  0.86866251612E+02  0.13044581330E+03  0.47000000000E+01 0. -1.
        -13    1    6    6    0    0  0.93122429161E+01 -0.28901104402E+01  0.88586587285E+01  0.13173702629E+02  0.00000000000E+00 0.  1.
         14    1    6    6    0    0 -0.16628642860E+03 -0.12851928975E+03  0.63310799323E+02  0.21949178000E+03  0.00000000000E+00 0. -1.
         -5    1    3    3    0  503 -0.62832310013E+01  0.43900074963E+02  0.98814576816E+01  0.45677442786E+02  0.47000000000E+01 0.  1.
         11    1    4    4    0    0  0.10963777659E+03  0.51038139701E+02 -0.10008855134E+03  0.15698105577E+03  0.00000000000E+00 0. -1.
        -12    1    4    4    0    0  0.54669279932E+02  0.13366775334E+03 -0.97371479673E+02  0.17417520922E+03  0.00000000000E+00 0.  1.
</event>
<event>
12    1  0.9966151E-001  0.1924967E+03  0.7818608E-02  0.1156331E+00
         21   -1    0    0  503  502  0.00000000000E+00  0.00000000000E+00  0.19494017132E+02  0.19494017132E+02  0.00000000000E+00 0. -1.
         21   -1    0    0  501  503 -0.00000000000E+00 -0.00000000000E+00 -0.19800901794E+04  0.19800901794E+04  0.00000000000E+00 0. -1.
          6    2    1    2  501    0  0.86702855311E+02 -0.55227355714E+01 -0.77346652174E+03  0.79694885253E+03  0.17125748907E+03 0.  0.
         24    2    3    3    0    0  0.91729640153E+02  0.10991097712E+02 -0.31470786749E+03  0.33784149241E+03  0.80998154471E+02 0.  0.
         -6    2    1    2    0  502 -0.86702855311E+02  0.55227355714E+01 -0.11871296406E+04  0.12026353441E+04  0.17177631241E+03 0.  0.
        -24    2    5    5    0    0 -0.57578953094E+02  0.29829748943E+02 -0.35669497137E+03  0.37132140672E+03  0.80269139331E+02 0.  0.
          5    1    3    3  501    0 -0.50267848427E+01 -0.16513833284E+02 -0.45875865426E+03  0.45910736011E+03  0.47000000000E+01 0. -1.
        -11    1    4    4    0    0  0.29872614090E+01  0.10042661671E+01  0.49918508158E+01  0.59034613429E+01  0.00000000000E+00 0.  1.
         12    1    4    4    0    0  0.88742378744E+02  0.99868315451E+01 -0.31969971830E+03  0.33193803107E+03  0.00000000000E+00 0. -1.
         -5    1    5    5    0  502 -0.29123902217E+02 -0.24307013371E+02 -0.83043466921E+03  0.83131393733E+03  0.47000000000E+01 0.  1.
         13    1    6    6    0    0  0.14594279189E+02  0.23744294556E+02 -0.14284925329E+03  0.14554275548E+03  0.00000000000E+00 0. -1.
        -14    1    6    6    0    0 -0.72173232283E+02  0.60854543867E+01 -0.21384571808E+03  0.22577865124E+03  0.00000000000E+00 0.  1.
</event>
<event>
12    1  0.9966151E-001  0.2761705E+03  0.7818608E-02  0.1097850E+00
         21   -1    0    0  503  502  0.00000000000E+00  0.00000000000E+00  0.55942134476E+03  0.55942134476E+03  0.00000000000E+00 0.  1.
         21   -1    0    0  501  503 -0.00000000000E+00 -0.00000000000E+00 -0.18757035280E+03  0.18757035280E+03  0.00000000000E+00 0.  1.
          6    2    1    2  501    0  0.20367752556E+03  0.71772114147E+02  0.38155706555E+03  0.47101586804E+03  0.17214639959E+03 0.  0.
         24    2    3    3    0    0  0.36457403764E+02 -0.10227740829E+02  0.84929836772E+02  0.12073548292E+03  0.77007991081E+02 0.  0.
         -6    2    1    2    0  502 -0.20367752556E+03 -0.71772114147E+02 -0.97060735849E+01  0.27597582951E+03  0.17155955183E+03 0.  0.
        -24    2    5    5    0    0 -0.16177420448E+03 -0.19528403942E+02 -0.65489977722E+02  0.18868764283E+03  0.69006069150E+02 0.  0.
          5    1    3    3  501    0  0.16722012180E+03  0.81999854976E+02  0.29662722877E+03  0.35028038512E+03  0.47000000000E+01 0. -1.
        -13    1    4    4    0    0  0.27299621920E+02  0.29037646090E+02  0.20728455487E+02  0.44923525177E+02  0.00000000000E+00 0.  1.
         14    1    4    4    0    0  0.91577818442E+01 -0.39265386918E+02  0.64201381285E+02  0.75811957744E+02  0.00000000000E+00 0. -1.
         -5    1    5    5    0  502 -0.41903321082E+02 -0.52243710205E+02  0.55783904137E+02  0.87288186683E+02  0.47000000000E+01 0.  1.
         13    1    6    6    0    0 -0.15323846698E+03  0.10372821064E+01 -0.48680170203E+02  0.16078825420E+03  0.00000000000E+00 0. -1.
        -14    1    6    6    0    0 -0.85357374985E+01 -0.20565686049E+02 -0.16809807519E+02  0.27899388634E+02  0.00000000000E+00 0.  1.
</event>
<event>
12    1  0.9966151E-001  0.2317575E+03  0.7818608E-02  0.1126057E+00
         21   -1    0    0  503  502  0.00000000000E+00  0.00000000000E+00  0.42162376649E+03  0.42162376649E+03  0.00000000000E+00 0.  1.
         21   -1    0    0  501  503 -0.00000000000E+00 -0.00000000000E+00 -0.14599083873E+03  0.14599083873E+03  0.00000000000E+00 0.  1.
          6    2    1    2  501    0 -0.75024206632E+02  0.13076575117E+03  0.32115943773E+02  0.23397214432E+03  0.17602050226E+03 0.  0.
         24    2    3    3    0    0 -0.60162119998E+02  0.99672908945E+01  0.48752626912E+02  0.11104119277E+03  0.78958851884E+02 0.  0.
         -6    2    1    2    0  502  0.75024206632E+02 -0.13076575117E+03  0.24351698398E+03  0.33364246090E+03  0.17113870681E+03 0.  0.
        -24    2    5    5    0    0 -0.41026610724E+01 -0.11771155228E+03  0.12119581110E+03  0.18730028436E+03  0.80747325184E+02 0.  0.
          5    1    3    3  501    0 -0.14862086635E+02  0.12079846027E+03 -0.16636683139E+02  0.12293095155E+03  0.47000000000E+01 0. -1.
        -11    1    4    4    0    0  0.45368291208E+01 -0.22838149838E+02 -0.61996750116E+00  0.23292665502E+02  0.00000000000E+00 0.  1.
         12    1    4    4    0    0 -0.64698949119E+02  0.32805440733E+02  0.49372594413E+02  0.87748527269E+02  0.00000000000E+00 0. -1.
         -5    1    5    5    0  502  0.79126867705E+02 -0.13054198890E+02  0.12232117287E+03  0.14634217654E+03  0.47000000000E+01 0.  1.
         11    1    6    6    0    0  0.33008561550E+02 -0.83877772051E+02  0.93817476647E+02  0.13010290045E+03  0.00000000000E+00 0. -1.
        -12    1    6    6    0    0 -0.37111222622E+02 -0.33833780224E+02  0.27378334456E+02  0.57197383912E+02  0.00000000000E+00 0.  1.
</event>
<event>
12    1  0.9966151E-001  0.2151585E+03  0.7818608E-02  0.1137861E+00
         21   -1    0    0  503  502  0.00000000000E+00  0.00000000000E+00  0.13306333558E+03  0.13306333558E+03  0.00000000000E+00 0.  1.
         21   -1    0    0  501  503 -0.00000000000E+00 -0.00000000000E+00 -0.83202997977E+03  0.83202997977E+03  0.00000000000E+00 0.  1.
          6    2    1    2  501    0  0.12464590449E+03  0.24018077867E+02 -0.71801811919E+03  0.74909303399E+03  0.17168833540E+03 0.  0.
         24    2    3    3    0    0  0.10081384252E+02 -0.11134926784E+02 -0.41880437991E+03  0.42673963349E+03  0.80523197049E+02 0.  0.
         -6    2    1    2    0  502 -0.12464590449E+03 -0.24018077867E+02  0.19051475003E+02  0.21600028136E+03  0.17372303611E+03 0.  0.
        -24    2    5    5    0    0 -0.65440788508E+02 -0.44830018179E+02  0.74028306159E+02  0.13243638615E+03  0.75940627682E+02 0.  0.
          5    1    3    3  501    0  0.11456452024E+03  0.35153004651E+02 -0.29921373928E+03  0.32235340049E+03  0.47000000000E+01 0. -1.
        -13    1    4    4    0    0 -0.13241100588E+02  0.17053520621E+02 -0.34508102104E+02  0.40705754153E+02  0.00000000000E+00 0.  1.
         14    1    4    4    0    0  0.23322484840E+02 -0.28188447405E+02 -0.38429627780E+03  0.38603387934E+03  0.00000000000E+00 0. -1.
         -5    1    5    5    0  502 -0.59205115986E+02  0.20811940312E+02 -0.54976831157E+02  0.83563895209E+02  0.47000000000E+01 0.  1.
         13    1    6    6    0    0 -0.21494252203E+02  0.85352885785E+01 -0.86253934197E+01  0.24683019275E+02  0.00000000000E+00 0. -1.
        -14    1    6    6    0    0 -0.43946536305E+02 -0.53365306758E+02  0.82653699579E+02  0.10775336687E+03  0.00000000000E+00 0.  1.
</event>
<event>
12    1  0.9966151E-001  0.4451482E+03  0.7818608E-02  0.1029218E+00
         21   -1    0    0  503  502  0.00000000000E+00  0.00000000000E+00  0.59346016573E+03  0.59346016573E+03  0.00000000000E+00 0. -1.
         21   -1    0    0  501  503 -0.00000000000E+00 -0.00000000000E+00 -0.38118902756E+03  0.38118902756E+03  0.00000000000E+00 0. -1.
          6    2    1    2  501    0 -0.19160353239E+03  0.36287790476E+03  0.27854202301E+03  0.52511198430E+03  0.17252434635E+03 0.  0.
         24    2    3    3    0    0 -0.17831861134E+03  0.21688848318E+03  0.22920601942E+03  0.37036854634E+03  0.76153263181E+02 0.  0.
         -6    2    1    2    0  502  0.19160353239E+03 -0.36287790476E+03 -0.66270884844E+02  0.44953720899E+03  0.17117121458E+03 0.  0.
        -24    2    5    5    0    0  0.18613105495E+03 -0.24150393827E+03 -0.93717534748E+01  0.31529418719E+03  0.79709929724E+02 0.  0.
          5    1    3    3  501    0 -0.13284921048E+02  0.14598942158E+03  0.49336003590E+02  0.15474343796E+03  0.47000000000E+01 0. -1.
        -13    1    4    4    0    0 -0.13223876414E+03  0.14113618760E+03  0.11231679799E+03  0.22365504086E+03  0.00000000000E+00 0.  1.
         14    1    4    4    0    0 -0.46079847203E+02  0.75752295579E+02  0.11688922143E+03  0.14671350548E+03  0.00000000000E+00 0. -1.
         -5    1    5    5    0  502  0.54724774366E+01 -0.12137396649E+03 -0.56899131370E+02  0.13424302180E+03  0.47000000000E+01 0.  1.
         11    1    6    6    0    0  0.52804024226E+02 -0.11335873705E+03 -0.31746060103E+02  0.12902046571E+03  0.00000000000E+00 0. -1.
        -12    1    6    6    0    0  0.13332703072E+03 -0.12814520122E+03  0.22374306629E+02  0.18627372148E+03  0.00000000000E+00 0.  1.
</event>
<event>
12    1  0.9966151E-001  0.2207672E+03  0.7818608E-02  0.1133367E+00
         21   -1    0    0  503  502  0.00000000000E+00  0.00000000000E+00  0.12383836017E+03  0.12383836017E+03  0.00000000000E+00 0. -1.
         21   -1    0    0  501  503 -0.00000000000E+00 -0.00000000000E+00 -0.51761078264E+03  0.51761078264E+03  0.00000000000E+00 0.  1.
          6    2    1    2  501    0 -0.87069544034E+02  0.10616689282E+03 -0.35412709604E+03  0.41715046449E+03  0.17249926158E+03 0.  0.
         24    2    3    3    0    0  0.15870833545E+02  0.22955992129E+02 -0.10712718132E+03  0.13687948276E+03  0.80504030273E+02 0.  0.
         -6    2    1    2    0  502  0.87069544034E+02 -0.10616689282E+03 -0.39645326427E+02  0.22429867831E+03  0.17287460934E+03 0.  0.
        -24    2    5    5    0    0  0.12289669213E+03 -0.10751616853E+03 -0.43116492315E+02  0.18797314902E+03  0.82532111377E+02 0.  0.
          5    1    3    3  501    0 -0.10294037758E+03  0.83210900692E+02 -0.24699991472E+03  0.28027098174E+03  0.47000000000E+01 0. -1.
        -13    1    4    4    0    0 -0.62188623469E+01 -0.14208142744E+01 -0.10359794281E+03  0.10379415550E+03  0.00000000000E+00 0.  1.
         14    1    4    4    0    0  0.22089695892E+02  0.24376806403E+02 -0.35292385089E+01  0.33085327253E+02  0.00000000000E+00 0. -1.
         -5    1    5    5    0  502 -0.35827148101E+02  0.13492757079E+01  0.34711658881E+01  0.36325529295E+02  0.47000000000E+01 0.  1.
         13    1    6    6    0    0  0.11250901264E+03 -0.81491805167E+02 -0.64070106677E+02  0.15298421750E+03  0.00000000000E+00 0. -1.
        -14    1    6    6    0    0  0.10387679493E+02 -0.26024363361E+02  0.20953614362E+02  0.34988931513E+02  0.00000000000E+00 0.  1.
</event>
<event>
12    1  0.9966151E-001  0.3761700E+03  0.7818608E-02  0.1052365E+00
         21   -1    0    0  501  502  0.00000000000E+00  0.00000000000E+00  0.12594493670E+04  0.12594493670E+04  0.00000000000E+00 0. -1.
         21   -1    0    0  502  503 -0.00000000000E+00 -0.00000000000E+00 -0.11338140112E+03  0.11338140112E+03  0.00000000000E+00 0. -1.
         -6    2    1    2    0  503  0.17775910978E+03  0.28350437153E+03  0.63901123495E+03  0.74147475898E+03  0.17168701179E+03 0.  0.
        -24    2    3    3    0    0  0.13295404484E+03  0.10338632050E+03  0.22026479697E+03  0.28341289036E+03  0.58658131038E+02 0.  0.
          6    2    1    2  501    0 -0.17775910978E+03 -0.28350437153E+03  0.50705673089E+03  0.63135600911E+03  0.17184543088E+03 0.  0.
         24    2    5    5    0    0 -0.10851061192E+03 -0.16700847037E+03  0.19078903089E+03  0.28724265931E+03  0.80259011638E+02 0.  0.
          5    1    5    5  501    0 -0.69248497859E+02 -0.11649590116E+03  0.31626770000E+03  0.34411334980E+03  0.47000000000E+01 0. -1.
        -13    1    6    6    0    0 -0.54561202002E+02 -0.14469582900E+03  0.12167207430E+03  0.19676864933E+03  0.00000000000E+00 0.  1.
         14    1    6    6    0    0 -0.53949409916E+02 -0.22312641367E+02  0.69116956583E+02  0.90474009983E+02  0.00000000000E+00 0. -1.
         -5    1    3    3    0  503  0.44805064941E+02  0.18011805103E+03  0.41874643799E+03  0.45806186861E+03  0.47000000000E+01 0.  1.
         11    1    4    4    0    0  0.50475593567E+02  0.64226448279E+01  0.68461924525E+02  0.85299888758E+02  0.00000000000E+00 0. -1.
        -12    1    4    4    0    0  0.82478451268E+02  0.96963675673E+02  0.15180287244E+03  0.19811300161E+03  0.00000000000E+00 0.  1.
</event>
<event>
12    1  0.9966151E-001  0.2390616E+03  0.7818608E-02  0.1120494E+00
         21   -1    0    0  501  502  0.00000000000E+00  0.00000000000E+00  0.22396479654E+03  0.22396479654E+03  0.00000000000E+00 0. -1.
         21   -1    0    0  502  503 -0.00000000000E+00 -0.00000000000E+00 -0.27009835296E+03  0.27009835296E+03  0.00000000000E+00 0. -1.
         -6    2    1    2    0  503  0.16536432553E+03  0.79588161514E+01  0.35894208329E+02  0.24174123711E+03  0.17245790390E+03 0.  0.
        -24    2    3    3    0    0  0.17303359168E+03 -0.36372496497E+02  0.31195540592E+02  0.19626321602E+03  0.79262259983E+02 0.  0.
          6    2    1    2  501    0 -0.16536432553E+03 -0.79588161514E+01 -0.82027764757E+02  0.25232191239E+03  0.17184030484E+03 0.  0.
         24    2    5    5    0    0 -0.17950202619E+03 -0.37587739920E+02 -0.89210883209E+02  0.21838911270E+03  0.78111505322E+02 0.  0.
          5    1    5    5  501    0  0.14137700663E+02  0.29628923769E+02  0.71831184520E+01  0.33932799685E+02  0.47000000000E+01 0. -1.
        -13    1    6    6    0    0 -0.49643940365E+02  0.22518503383E+02 -0.12093913955E+02  0.55837859596E+02  0.00000000000E+00 0.  1.
         14    1    6    6    0    0 -0.12985808583E+03 -0.60106243303E+02 -0.77116969254E+02  0.16255125311E+03  0.00000000000E+00 0. -1.
         -5    1    3    3    0  503 -0.76692661481E+01  0.44331312648E+02  0.46986677370E+01  0.45478021097E+02  0.47000000000E+01 0.  1.
         11    1    4    4    0    0 -0.42306246844E+01  0.73896539183E+01 -0.53490361087E+01  0.10055712682E+02  0.00000000000E+00 0. -1.
        -12    1    4    4    0    0  0.17726421636E+03 -0.43762150415E+02  0.36544576701E+02  0.18620750333E+03  0.00000000000E+00 0.  1.
</event>
<event>
12    1  0.9966151E-001  0.2125029E+03  0.7818608E-02  0.1139734E+00
         21   -1    0    0  503  502  0.00000000000E+00  0.00000000000E+00  0.13920300703E+04  0.13920300703E+04  0.00000000000E+00 0. -1.
         21   -1    0    0  501  503 -0.00000000000E+00 -0.00000000000E+00 -0.32424912835E+02  0.32424912835E+02  0.00000000000E+00 0. -1.
          6    2    1    2  501    0  0.83360453596E+02 -0.93691449124E+02  0.64119987406E+03  0.67527968640E+03  0.17069951232E+03 0.  0.
         24    2    3    3    0    0  0.72476498477E+02  0.79166761192E+01  0.28871605586E+03  0.30825161705E+03  0.79665437376E+02 0.  0.
         -6    2    1    2    0  502 -0.83360453596E+02  0.93691449124E+02  0.71840528340E+03  0.74917529673E+03  0.17155296894E+03 0.  0.
        -24    2    5    5    0    0 -0.48742565490E+02  0.12655411561E+03  0.45211691254E+03  0.47860194350E+03  0.79109644459E+02 0.  0.
          5    1    3    3  501    0  0.10883955120E+02 -0.10160812524E+03  0.35248381821E+03  0.36702806935E+03  0.47000000000E+01 0. -1.
        -11    1    4    4    0    0 -0.21571686687E+01  0.42341333466E+01 -0.39608232242E+01  0.61862252202E+01  0.00000000000E+00 0.  1.
         12    1    4    4    0    0  0.74633667145E+02  0.36825427727E+01  0.29267687908E+03  0.30206539183E+03  0.00000000000E+00 0. -1.
         -5    1    5    5    0  502 -0.34617888106E+02 -0.32862666482E+02  0.26628837086E+03  0.27057335323E+03  0.47000000000E+01 0.  1.
         11    1    6    6    0    0 -0.31541044897E+01  0.58975900324E+02  0.91640652857E+02  0.10902345826E+03  0.00000000000E+00 0. -1.
        -12    1    6    6    0    0 -0.45588461000E+02  0.67578215282E+02  0.36047625968E+03  0.36957848524E+03  0.00000000000E+00 0.  1.
</event>
<event>
12    1  0.9966151E-001  0.2030371E+03  0.7818608E-02  0.1147962E+00
         21   -1    0    0  503  502  0.00000000000E+00  0.00000000000E+00  0.16728839295E+03  0.16728839295E+03  0.00000000000E+00 0. -1.
         21   -1    0    0  501  503 -0.00000000000E+00 -0.00000000000E+00 -0.36622060177E+03  0.36622060177E+03  0.00000000000E+00 0. -1.
          6    2    1    2  501    0  0.86164456554E+02 -0.52316490028E+02  0.56467693035E+02  0.20723735553E+03  0.17203892719E+03 0.  0.
         24    2    3    3    0    0  0.11236824186E+03 -0.71135585797E+02  0.20144234317E+02  0.15842874581E+03  0.83707729493E+02 0.  0.
         -6    2    1    2    0  502 -0.86164456554E+02  0.52316490028E+02 -0.25539990185E+03  0.32627163919E+03  0.17624625946E+03 0.  0.
        -24    2    5    5    0    0 -0.10957324922E+03  0.29391939091E+02 -0.25802796566E+03  0.29306767363E+03  0.80249904863E+02 0.  0.
          5    1    3    3  501    0 -0.26203785302E+02  0.18819095769E+02  0.36323458719E+02  0.48808609722E+02  0.47000000000E+01 0. -1.
        -13    1    4    4    0    0  0.37289580391E+02  0.10087188347E+02  0.27744583946E+02  0.47560762324E+02  0.00000000000E+00 0.  1.
         14    1    4    4    0    0  0.75078661465E+02 -0.81222774144E+02 -0.76003496288E+01  0.11086798348E+03  0.00000000000E+00 0. -1.
         -5    1    5    5    0  502  0.23408792670E+02  0.22924550937E+02  0.26280638106E+01  0.33203965566E+02  0.47000000000E+01 0.  1.
         13    1    6    6    0    0 -0.52719284304E+02  0.28035259875E+02 -0.51495627824E+02  0.78848579054E+02  0.00000000000E+00 0. -1.
        -14    1    6    6    0    0 -0.56853964920E+02  0.13566792164E+01 -0.20653233784E+03  0.21421909457E+03  0.00000000000E+00 0.  1.
</event>
<event>
12    1  0.9966151E-001  0.1961212E+03  0.7818608E-02  0.1153056E+00
         21   -1    0    0  501  502  0.00000000000E+00  0.00000000000E+00  0.25797927281E+03  0.25797927281E+03  0.00000000000E+00 0.  1.
         21   -1    0    0  502  503 -0.00000000000E+00 -0.00000000000E+00 -0.52624341128E+03  0.52624341128E+03  0.00000000000E+00 0.  1.
         -6    2    1    2    0  503 -0.91787732614E+02 -0.49769700483E+01  0.19782025628E+03  0.27856127547E+03  0.17324483342E+03 0.  0.
        -24    2    3    3    0    0 -0.99676018682E+02  0.49594663737E+02  0.16269102994E+03  0.21301403438E+03  0.80694908441E+02 0.  0.
          6    2    1    2  501    0  0.91787732614E+02  0.49769700483E+01 -0.46608439474E+03  0.50566140862E+03  0.17323117229E+03 0.  0.
         24    2    5    5    0    0  0.84557501395E+02 -0.49338308268E+02 -0.40203385398E+03  0.42123992158E+03  0.78915220838E+02 0.  0.
          5    1    5    5  501    0  0.72302312193E+01  0.54315278316E+02 -0.64050540761E+02  0.84421487039E+02  0.47000000000E+01 0. -1.
        -13    1    6    6    0    0  0.12310692714E+02 -0.40417183230E+02 -0.23881243231E+03  0.24252109121E+03  0.00000000000E+00 0.  1.
         14    1    6    6    0    0  0.72246808681E+02 -0.89211250377E+01 -0.16322142168E+03  0.17871883037E+03  0.00000000000E+00 0. -1.
         -5    1    3    3    0  503  0.78882860677E+01 -0.54571633785E+02  0.35129226335E+02  0.65547241086E+02  0.47000000000E+01 0.  1.
         11    1    4    4    0    0 -0.56369678106E+02  0.63178205546E+02  0.13645633558E+03  0.16059065286E+03  0.00000000000E+00 0. -1.
        -12    1    4    4    0    0 -0.43306340576E+02 -0.13583541809E+02  0.26234694367E+02  0.52423381526E+02  0.00000000000E+00 0.  1.
</event>
<event>
12    1  0.9966151E-001  0.1813205E+03  0.7818608E-02  0.1166627E+00
         21   -1    0    0  501  502  0.00000000000E+00  0.00000000000E+00  0.34212815851E+03  0.34212815851E+03  0.00000000000E+00 0.  1.
         21   -1    0    0  502  503 -0.00000000000E+00 -0.00000000000E+00 -0.98533023746E+02  0.98533023746E+02  0.00000000000E+00 0.  1.
         -6    2    1    2    0  503  0.54058969032E+02 -0.25969390766E+02  0.85806929953E+02  0.20059896642E+03  0.17111497512E+03 0.  0.
        -24    2    3    3    0    0  0.11399396596E+01 -0.54089003355E+02  0.66496998740E-01  0.95886750680E+02  0.79166563572E+02 0.  0.
          6    2    1    2  501    0 -0.54058969032E+02  0.25969390766E+02  0.15778820481E+03  0.24006221583E+03  0.17069261409E+03 0.  0.
         24    2    5    5    0    0  0.41821384704E+02  0.15682594691E+02  0.54518742774E+02  0.98692020264E+02  0.69085812982E+02 0.  0.
          5    1    5    5  501    0 -0.95880353737E+02  0.10286796076E+02  0.10326946203E+03  0.14137019557E+03  0.47000000000E+01 0. -1.
        -11    1    6    6    0    0  0.46647906276E+02  0.31285396874E+02  0.59296329613E+02  0.81675320159E+02  0.00000000000E+00 0.  1.
         12    1    6    6    0    0 -0.48265215717E+01 -0.15602802183E+02 -0.47775868395E+01  0.17016700105E+02  0.00000000000E+00 0. -1.
         -5    1    3    3    0  503  0.52919029373E+02  0.28119612588E+02  0.85740432954E+02  0.10471221574E+03  0.47000000000E+01 0.  1.
         13    1    4    4    0    0  0.13486954586E+02 -0.66965661772E+02  0.17947144314E+02  0.70628590455E+02  0.00000000000E+00 0. -1.
        -14    1    4    4    0    0 -0.12347014926E+02  0.12876658417E+02 -0.17880647315E+02  0.25258160226E+02  0.00000000000E+00 0.  1.
</event>
<event>
12    1  0.9966151E-001  0.1912241E+03  0.7818608E-02  0.1157774E+00
         21   -1    0    0  503  502  0.00000000000E+00  0.00000000000E+00  0.47839903432E+03  0.47839903432E+03  0.00000000000E+00 0.  1.
         21   -1    0    0  501  503 -0.00000000000E+00 -0.00000000000E+00 -0.79048763908E+02  0.79048763908E+02  0.00000000000E+00 0.  1.
          6    2    1    2  501    0 -0.18945270789E+02  0.72801712740E+02  0.14141637096E+03  0.23636125327E+03  0.17380747800E+03 0.  0.
         24    2    3    3    0    0 -0.69265117935E+02  0.27358694084E+02  0.12645909428E+03  0.16676983794E+03  0.79209353094E+02 0.  0.
         -6    2    1    2    0  502  0.18945270789E+02 -0.72801712740E+02  0.25793389945E+03  0.32108654496E+03  0.17580574565E+03 0.  0.
        -24    2    5    5    0    0 -0.52623460917E+02 -0.26600780739E+02  0.17339380747E+03  0.20097939851E+03  0.82767602241E+02 0.  0.
          5    1    3    3  501    0  0.50319847147E+02  0.45443018655E+02  0.14957276681E+02  0.69591415326E+02  0.47000000000E+01 0. -1.
        -13    1    4    4    0    0 -0.23017985114E+01  0.86590904477E+01 -0.10118034571E+02  0.13514908336E+02  0.00000000000E+00 0.  1.
         14    1    4    4    0    0 -0.66963319424E+02  0.18699603637E+02  0.13657712885E+03  0.15325492961E+03  0.00000000000E+00 0. -1.
         -5    1    5    5    0  502  0.71568731706E+02 -0.46200932001E+02  0.84540091979E+02  0.12010714645E+03  0.47000000000E+01 0.  1.
         11    1    6    6    0    0 -0.45175228182E+02 -0.54283997510E+02  0.14116699925E+03  0.15784699967E+03  0.00000000000E+00 0. -1.
        -12    1    6    6    0    0 -0.74482327352E+01  0.27683216771E+02  0.32226808225E+02  0.43132398844E+02  0.00000000000E+00 0.  1.
</event>
<event>
12    1  0.9966151E-001  0.2557516E+03  0.7818608E-02  0.1109905E+00
         21   -1    0    0  503  502  0.00000000000E+00  0.00000000000E+00  0.13534486080E+03  0.13534486080E+03  0.00000000000E+00 0. -1.
         21   -1    0    0  501  503 -0.00000000000E+00 -0.00000000000E+00 -0.48626545711E+03  0.48626545711E+03  0.00000000000E+00 0. -1.
          6    2    1    2  501    0  0.11011645808E+03  0.15119613122E+03 -0.14284316097E+03  0.29190577310E+03  0.17268151986E+03 0.  0.
         24    2    3    3    0    0  0.78600370013E+01  0.12175406902E+03 -0.99108769523E+02  0.17676239434E+03  0.80849009589E+02 0.  0.
         -6    2    1    2    0  502 -0.11011645808E+03 -0.15119613122E+03 -0.20807743534E+03  0.32970454481E+03  0.17442179719E+03 0.  0.
        -24    2    5    5    0    0 -0.75163137996E+02 -0.21577069678E+02 -0.49222537928E+02  0.12166655758E+03  0.79150652199E+02 0.  0.
          5    1    3    3  501    0  0.10225642108E+03  0.29442062198E+02 -0.43734391448E+02  0.11514337877E+03  0.47000000000E+01 0. -1.
        -13    1    4    4    0    0 -0.19063658331E+02  0.43932941438E+02  0.21848838331E-01  0.47890780843E+02  0.00000000000E+00 0.  1.
         14    1    4    4    0    0  0.26923695332E+02  0.77821127580E+02 -0.99130618361E+02  0.12887161349E+03  0.00000000000E+00 0. -1.
         -5    1    5    5    0  502 -0.34953320085E+02 -0.12961906154E+03 -0.15885489741E+03  0.20803798723E+03  0.47000000000E+01 0.  1.
         13    1    6    6    0    0  0.24841522679E+01 -0.32031924564E+02 -0.78823490414E+01  0.33080910359E+02  0.00000000000E+00 0. -1.
        -14    1    6    6    0    0 -0.77647290264E+02  0.10454854886E+02 -0.41340188886E+02  0.88585647219E+02  0.00000000000E+00 0.  1.
</event>
<event>
12    1  0.9966151E-001  0.1868325E+03  0.7818608E-02  0.1161875E+00
         21   -1    0    0  503  502  0.00000000000E+00  0.00000000000E+00  0.80148302462E+02  0.80148302462E+02  0.00000000000E+00 0. -1.
         21   -1    0    0  501  503 -0.00000000000E+00 -0.00000000000E+00 -0.60479788189E+03  0.60479788189E+03  0.00000000000E+00 0. -1.
          6    2    1    2  501    0  0.47464014505E+02 -0.53291772219E+02 -0.44743744186E+03  0.48487796713E+03  0.17266595776E+03 0.  0.
         24    2    3    3    0    0  0.94512330412E+02 -0.13323113232E+02 -0.31026446743E+03  0.33438028394E+03  0.80224987332E+02 0.  0.
         -6    2    1    2    0  502 -0.47464014505E+02  0.53291772219E+02 -0.77212137565E+02  0.20006821722E+03  0.17021378233E+03 0.  0.
        -24    2    5    5    0    0 -0.55650235373E+02  0.58947102874E+02  0.70312023643E+01  0.11510924301E+03  0.81418612031E+02 0.  0.
          5    1    3    3  501    0 -0.47048315908E+02 -0.39968658987E+02 -0.13717297443E+03  0.15049768319E+03  0.47000000000E+01 0. -1.
        -13    1    4    4    0    0 -0.11306444083E+02 -0.14033725641E+02 -0.32862208357E+02  0.37479405962E+02  0.00000000000E+00 0.  1.
         14    1    4    4    0    0  0.10581877450E+03  0.71061240947E+00 -0.27740225908E+03  0.29690087798E+03  0.00000000000E+00 0. -1.
         -5    1    5    5    0  502  0.81862208682E+01 -0.56553306546E+01 -0.84243339930E+02  0.84958974213E+02  0.47000000000E+01 0.  1.
         13    1    6    6    0    0 -0.24278197293E+02 -0.16572749559E+02  0.14897634658E+02  0.32954914810E+02  0.00000000000E+00 0. -1.
        -14    1    6    6    0    0 -0.31372038080E+02  0.75519852433E+02 -0.78664322933E+01  0.82154328199E+02  0.00000000000E+00 0.  1.
</event>
<event>
12    1  0.9966151E-001  0.1825180E+03  0.7818608E-02  0.1165752E+00
         21   -1    0    0  503  502  0.00000000000E+00  0.00000000000E+00  0.90127910697E+03  0.90127910697E+03  0.00000000000E+00 0.  1.
         21   -1    0    0  501  503 -0.00000000000E+00 -0.00000000000E+00 -0.67728804497E+02  0.67728804497E+02  0.00000000000E+00 0.  1.
          6    2    1    2  501    0  0.49393978223E+02 -0.30649234827E+02  0.74401106462E+03  0.76570983584E+03  0.17140579849E+03 0.  0.
         24    2    3    3    0    0  0.38367074610E+02 -0.44445241482E+02  0.21968199205E+03  0.24106234586E+03  0.80021653679E+02 0.  0.
         -6    2    1    2    0  502 -0.49393978223E+02  0.30649234827E+02  0.89539237850E+02  0.20329807562E+03  0.17301355945E+03 0.  0.
        -24    2    5    5    0    0 -0.63957431757E+02  0.55595011950E+02  0.11539737516E+03  0.16424530055E+03  0.80489788967E+02 0.  0.
          5    1    3    3  501    0  0.11026903613E+02  0.13796006655E+02  0.52432907257E+03  0.52464748998E+03  0.47000000000E+01 0. -1.
        -11    1    4    4    0    0 -0.21073868130E+01  0.13834115072E+02  0.48410597889E+01  0.14807419724E+02  0.00000000000E+00 0.  1.
         12    1    4    4    0    0  0.40474461423E+02 -0.58279356553E+02  0.21484093226E+03  0.22625492614E+03  0.00000000000E+00 0. -1.
         -5    1    5    5    0  502  0.14563453534E+02 -0.24945777124E+02 -0.25858137312E+02  0.39052775066E+02  0.47000000000E+01 0.  1.
         13    1    6    6    0    0  0.15278924363E+02 -0.29578051825E+01  0.51569703771E+01  0.16394770040E+02  0.00000000000E+00 0. -1.
        -14    1    6    6    0    0 -0.79236356119E+02  0.58552817133E+02  0.11024040479E+03  0.14785053051E+03  0.00000000000E+00 0.  1.
</event>
<event>
12    1  0.9966151E-001  0.1804513E+03  0.7818608E-02  0.1167466E+00
         21   -1    0    0  503  502  0.00000000000E+00  0.00000000000E+00  0.13598942647E+03  0.13598942647E+03  0.00000000000E+00 0. -1.
         21   -1    0    0  501  503 -0.00000000000E+00 -0.00000000000E+00 -0.25559484352E+03  0.25559484352E+03  0.00000000000E+00 0. -1.
          6    2    1    2  501    0 -0.22849722534E+02 -0.43866030526E+02 -0.10976925918E+03  0.21086511326E+03  0.17311402968E+03 0.  0.
         24    2    3    3    0    0 -0.50630162059E+02 -0.55832403508E+02 -0.13293373152E+03  0.17247722869E+03  0.79977164556E+02 0.  0.
         -6    2    1    2    0  502  0.22849722534E+02  0.43866030526E+02 -0.98361578781E+01  0.18071915674E+03  0.17354055767E+03 0.  0.
        -24    2    5    5    0    0  0.94246492483E+01  0.22242074906E+02  0.62366562836E+02  0.10401745579E+03  0.79664980008E+02 0.  0.
          5    1    3    3  501    0  0.27780439524E+02  0.11966372982E+02  0.23164472339E+02  0.38387884564E+02  0.47000000000E+01 0. -1.
        -11    1    4    4    0    0 -0.41371160529E+02 -0.76609624406E+02 -0.10803858456E+03  0.13875497551E+03  0.00000000000E+00 0.  1.
         12    1    4    4    0    0 -0.92590015295E+01  0.20777220898E+02 -0.24895146955E+02  0.33722253179E+02  0.00000000000E+00 0. -1.
         -5    1    5    5    0  502  0.13425073286E+02  0.21623955619E+02 -0.72202720714E+02  0.76701700945E+02  0.47000000000E+01 0.  1.
         11    1    6    6    0    0 -0.92012660444E+01 -0.13053576949E+02 -0.11758104765E+02  0.19832100132E+02  0.00000000000E+00 0. -1.
        -12    1    6    6    0    0  0.18625915293E+02  0.35295651855E+02  0.74124667602E+02  0.84185355659E+02  0.00000000000E+00 0.  1.
</event>
<event>
12    1  0.9966151E-001  0.3015279E+03  0.7818608E-02  0.1084516E+00
         21   -1    0    0  503  502  0.00000000000E+00  0.00000000000E+00  0.16550551148E+03  0.16550551148E+03  0.00000000000E+00 0.  1.
         21   -1    0    0  501  503 -0.00000000000E+00 -0.00000000000E+00 -0.99692943041E+03  0.99692943041E+03  0.00000000000E+00 0.  1.
          6    2    1    2  501    0  0.15374148299E+03  0.19370955394E+03 -0.26145888306E+02  0.30265930237E+03  0.17250858226E+03 0.  0.
         24    2    3    3    0    0  0.68436047150E+02  0.16865125822E+03  0.25659226643E+02  0.19965058670E+03  0.77943706665E+02 0.  0.
         -6    2    1    2    0  502 -0.15374148299E+03 -0.19370955394E+03 -0.80527803062E+03  0.85977563953E+03  0.17199304884E+03 0.  0.
        -24    2    5    5    0    0 -0.11077730399E+03 -0.87431479451E+02 -0.26487168080E+03  0.30732467997E+03  0.66148143972E+02 0.  0.
          5    1    3    3  501    0  0.85305435841E+02  0.25058295713E+02 -0.51805114948E+02  0.10300871566E+03  0.47000000000E+01 0. -1.
        -13    1    4    4    0    0  0.32794120129E+02  0.15431346272E+03  0.97237291735E+01  0.15805900797E+03  0.00000000000E+00 0.  1.
         14    1    4    4    0    0  0.35641927020E+02  0.14337795501E+02  0.15935497469E+02  0.41591578729E+02  0.00000000000E+00 0. -1.
         -5    1    5    5    0  502 -0.42964179005E+02 -0.10627807448E+03 -0.54040634982E+03  0.55245095956E+03  0.47000000000E+01 0.  1.
         11    1    6    6    0    0 -0.51900829735E+02 -0.65148036882E+02 -0.95985744607E+02  0.12708747383E+03  0.00000000000E+00 0. -1.
        -12    1    6    6    0    0 -0.58876474251E+02 -0.22283442569E+02 -0.16888593619E+03  0.18023720614E+03  0.00000000000E+00 0.  1.
</event>
<event>
12    1  0.9966151E-001  0.2207710E+03  0.7818608E-02  0.1134264E+00
         21   -1    0    0  503  502  0.00000000000E+00  0.00000000000E+00  0.41076074755E+03  0.41076074755E+03  0.00000000000E+00 0. -1.
         21   -1    0    0  501  503 -0.00000000000E+00 -0.00000000000E+00 -0.15529328486E+03  0.15529328486E+03  0.00000000000E+00 0.  1.
          6    2    1    2  501    0 -0.49836277424E+02 -0.12224070983E+03  0.27130575080E+03  0.34978082653E+03  0.17695584338E+03 0.  0.
         24    2    3    3    0    0  0.10544879988E+02 -0.35894233152E+02  0.42999694962E+02  0.98290581520E+02  0.80077925680E+02 0.  0.
         -6    2    1    2    0  502  0.49836277424E+02  0.12224070983E+03 -0.15838288110E+02  0.21627320587E+03  0.17057784886E+03 0.  0.
        -24    2    5    5    0    0  0.16950222119E+02  0.26823797601E+02  0.41097861185E+02  0.10030038634E+03  0.85815541476E+02 0.  0.
          5    1    3    3  501    0 -0.60381157412E+02 -0.86346476682E+02  0.22830605583E+03  0.25149024501E+03  0.47000000000E+01 0. -1.
        -13    1    4    4    0    0 -0.11504586893E+02 -0.55185939742E+02  0.16375240985E+02  0.58702572193E+02  0.00000000000E+00 0.  1.
         14    1    4    4    0    0  0.22049466881E+02  0.19291706590E+02  0.26624453977E+02  0.39588009327E+02  0.00000000000E+00 0. -1.
         -5    1    5    5    0  502  0.32886055306E+02  0.95416912233E+02 -0.56936149296E+02  0.11597281953E+03  0.47000000000E+01 0.  1.
         13    1    6    6    0    0  0.41445370248E+02  0.44791370792E+02  0.29532569478E+02  0.67794972324E+02  0.00000000000E+00 0. -1.
        -14    1    6    6    0    0 -0.24495148129E+02 -0.17967573191E+02  0.11565291707E+02  0.32505414019E+02  0.00000000000E+00 0.  1.
</event>
<event>
12    1  0.9966151E-001  0.2323658E+03  0.7818608E-02  0.1125250E+00
         21   -1    0    0  501  502  0.00000000000E+00  0.00000000000E+00  0.41157811831E+02  0.41157811831E+02  0.00000000000E+00 0. -1.
         21   -1    0    0  502  503 -0.00000000000E+00 -0.00000000000E+00 -0.22732258949E+04  0.22732258949E+04  0.00000000000E+00 0.  1.
         -6    2    1    2    0  503 -0.14794566976E+03  0.43915232006E+02 -0.18740046459E+04  0.18883557135E+04  0.17371649014E+03 0.  0.
        -24    2    3    3    0    0 -0.17913290776E+03  0.42202820853E+02 -0.16481924044E+04  0.16603451116E+04  0.79611625319E+02 0.  0.
          6    2    1    2  501    0  0.14794566976E+03 -0.43915232006E+02 -0.35806343711E+03  0.42602799320E+03  0.17167981009E+03 0.  0.
         24    2    5    5    0    0  0.16524555495E+03 -0.93154173727E+00 -0.30300771831E+03  0.35391623390E+03  0.78333020261E+02 0.  0.
          5    1    5    5  501    0 -0.17299885187E+02 -0.42983690269E+02 -0.55055718802E+02  0.72111759301E+02  0.47000000000E+01 0. -1.
        -13    1    6    6    0    0  0.12666003178E+03 -0.33215770563E+02 -0.19661056162E+03  0.23622397001E+03  0.00000000000E+00 0.  1.
         14    1    6    6    0    0  0.38585523164E+02  0.32284228826E+02 -0.10639715668E+03  0.11769226389E+03  0.00000000000E+00 0. -1.
         -5    1    3    3    0  503  0.31187237994E+02  0.17124111530E+01 -0.22581224152E+03  0.22801060192E+03  0.47000000000E+01 0.  1.
         13    1    4    4    0    0 -0.10163243069E+02  0.28814725954E+02 -0.21365118040E+03  0.21582494487E+03  0.00000000000E+00 0. -1.
        -14    1    4    4    0    0 -0.16896966469E+03  0.13388094900E+02 -0.14345412240E+04  0.14445201667E+04  0.00000000000E+00 0.  1.
</event>
<event>
12    1  0.9966151E-001  0.1963965E+03  0.7818608E-02  0.1152914E+00
         21   -1    0    0  501  502  0.00000000000E+00  0.00000000000E+00  0.49786579800E+03  0.49786579800E+03  0.00000000000E+00 0. -1.
         21   -1    0    0  502  503 -0.00000000000E+00 -0.00000000000E+00 -0.11959399240E+03  0.11959399240E+03  0.00000000000E+00 0.  1.
         -6    2    1    2    0  503  0.78369961917E+02 -0.53811168133E+02  0.56701295327E+01  0.19647833893E+03  0.17185486480E+03 0.  0.
        -24    2    3    3    0    0  0.36532474900E+02 -0.22951705542E+02 -0.62365734128E+02  0.11072491046E+03  0.80679108155E+02 0.  0.
          6    2    1    2  501    0 -0.78369961917E+02  0.53811168133E+02  0.37260167606E+03  0.42098145147E+03  0.17133557929E+03 0.  0.
         24    2    5    5    0    0 -0.91606557167E+02 -0.16352857973E+02  0.26213877134E+03  0.28936708549E+03  0.79733289438E+02 0.  0.
          5    1    5    5  501    0  0.13236595250E+02  0.70164026106E+02  0.11046290472E+03  0.13161436598E+03  0.47000000000E+01 0. -1.
        -11    1    6    6    0    0 -0.45123279430E+02  0.18642808159E+02  0.52025355511E+02  0.71346354207E+02  0.00000000000E+00 0.  1.
         12    1    6    6    0    0 -0.46483277737E+02 -0.34995666133E+02  0.21011341583E+03  0.21802073128E+03  0.00000000000E+00 0. -1.
         -5    1    3    3    0  503  0.41837487017E+02 -0.30859462591E+02  0.68035863660E+02  0.85753428476E+02  0.47000000000E+01 0.  1.
         11    1    4    4    0    0  0.44320765316E+02  0.18108818394E+02 -0.22251040828E+02  0.52795533521E+02  0.00000000000E+00 0. -1.
        -12    1    4    4    0    0 -0.77882904165E+01 -0.41060523936E+02 -0.40114693300E+02  0.57929376935E+02  0.00000000000E+00 0.  1.
</event>
<event>
12    1  0.9966151E-001  0.2087387E+03  0.7818608E-02  0.1142841E+00
         21   -1    0    0  501  502  0.00000000000E+00  0.00000000000E+00  0.10171941195E+03  0.10171941195E+03  0.00000000000E+00 0.  1.
         21   -1    0    0  502  503 -0.00000000000E+00 -0.00000000000E+00 -0.53067760399E+03  0.53067760399E+03  0.00000000000E+00 0.  1.
         -6    2    1    2    0  503 -0.11204768079E+03 -0.33679089684E+02 -0.73189818218E+02  0.21991308739E+03  0.17121931159E+03 0.  0.
        -24    2    3    3    0    0 -0.58709243481E+02 -0.82155194767E+02 -0.74859007004E+02  0.14766491890E+03  0.77490683615E+02 0.  0.
          6    2    1    2  501    0  0.11204768079E+03  0.33679089684E+02 -0.35576837382E+03  0.41248392856E+03  0.17286668752E+03 0.  0.
         24    2    5    5    0    0  0.11847831541E+03  0.53733245581E+02 -0.18256496981E+03  0.23794158014E+03  0.79761234036E+02 0.  0.
          5    1    5    5  501    0 -0.64306346163E+01 -0.20054155896E+02 -0.17320340401E+03  0.17454234842E+03  0.47000000000E+01 0. -1.
        -11    1    6    6    0    0 -0.65841711399E+01  0.73298009844E+01  0.21612753155E+01  0.10087041343E+02  0.00000000000E+00 0.  1.
         12    1    6    6    0    0  0.12506248655E+03  0.46403444596E+02 -0.18472624512E+03  0.22785453879E+03  0.00000000000E+00 0. -1.
         -5    1    3    3    0  503 -0.53338437311E+02  0.48476105082E+02  0.16691887857E+01  0.72248168488E+02  0.47000000000E+01 0.  1.
         11    1    4    4    0    0 -0.75495901714E+02 -0.76783025596E+02 -0.72660311448E+02  0.12990298324E+03  0.00000000000E+00 0. -1.
        -12    1    4    4    0    0  0.16786658233E+02 -0.53721691708E+01 -0.21986955557E+01  0.17761935660E+02  0.00000000000E+00 0.  1.
</event>
<event>
12    1  0.9966151E-001  0.2207791E+03  0.7818608E-02  0.1134103E+00
         21   -1    0    0  503  502  0.00000000000E+00  0.00000000000E+00  0.43377475465E+02  0.43377475465E+02  0.00000000000E+00 0.  1.
         21   -1    0    0  501  503 -0.00000000000E+00 -0.00000000000E+00 -0.11452475150E+04  0.11452475150E+04  0.00000000000E+00 0.  1.
          6    2    1    2  501    0 -0.73115650487E+02  0.11382350922E+03 -0.44076019295E+03  0.49296343169E+03  0.17447552179E+03 0.  0.
         24    2    3    3    0    0 -0.35288692278E+00  0.12334058467E+03 -0.30135161193E+03  0.33535049774E+03  0.80213078543E+02 0.  0.
         -6    2    1    2    0  502  0.73115650487E+02 -0.11382350922E+03 -0.66110984660E+03  0.69566155879E+03  0.16904758354E+03 0.  0.
        -24    2    5    5    0    0  0.27882313066E+02 -0.12805971785E+03 -0.59036252823E+03  0.61036210095E+03  0.82687754970E+02 0.  0.
          5    1    3    3  501    0 -0.72762763564E+02 -0.95170754490E+01 -0.13940858102E+03  0.15761293395E+03  0.47000000000E+01 0. -1.
        -13    1    4    4    0    0  0.14299190040E+02  0.10250235692E+02 -0.11888938893E+03  0.12018411279E+03  0.00000000000E+00 0.  1.
         14    1    4    4    0    0 -0.14652076963E+02  0.11309034898E+03 -0.18246222300E+03  0.21516638495E+03  0.00000000000E+00 0. -1.
         -5    1    5    5    0  502  0.45233337421E+02  0.14236208623E+02 -0.70747318377E+02  0.85299457840E+02  0.47000000000E+01 0.  1.
         13    1    6    6    0    0  0.49682518950E+02 -0.61525771754E+02 -0.22874484711E+03  0.24202887918E+03  0.00000000000E+00 0. -1.
        -14    1    6    6    0    0 -0.21800205884E+02 -0.66533946092E+02 -0.36161768112E+03  0.36833322177E+03  0.00000000000E+00 0.  1.
</event>
<event>
12    1  0.9966151E-001  0.5430026E+03  0.7818608E-02  0.1003142E+00
         21   -1    0    0  501  502  0.00000000000E+00  0.00000000000E+00  0.24778015791E+04  0.24778015791E+04  0.00000000000E+00 0. -1.
         21   -1    0    0  502  503 -0.00000000000E+00 -0.00000000000E+00 -0.14490925470E+03  0.14490925470E+03  0.00000000000E+00 0. -1.
         -6    2    1    2    0  503  0.63213993117E+02  0.51153836816E+03  0.17213532664E+04  0.18048894662E+04  0.17000413682E+03 0.  0.
        -24    2    3    3    0    0  0.17256226986E+02  0.30929821074E+03  0.12406902720E+04  0.12813704105E+04  0.81453160143E+02 0.  0.
          6    2    1    2  501    0 -0.63213993117E+02 -0.51153836816E+03  0.61153905805E+03  0.81782136761E+03  0.17083400944E+03 0.  0.
         24    2    5    5    0    0 -0.51878895128E+02 -0.51934624194E+03  0.60109996943E+03  0.79991852118E+03  0.78335997396E+02 0.  0.
          5    1    5    5  501    0 -0.11335097989E+02  0.78078737841E+01  0.10439088617E+02  0.17902846439E+02  0.47000000000E+01 0. -1.
        -11    1    6    6    0    0 -0.19346933043E+02 -0.42358600282E+03  0.51496364062E+03  0.66707342682E+03  0.00000000000E+00 0.  1.
         12    1    6    6    0    0 -0.32531962085E+02 -0.95760239125E+02  0.86136328809E+02  0.13284509436E+03  0.00000000000E+00 0. -1.
         -5    1    3    3    0  503  0.45957766131E+02  0.20224015741E+03  0.48066299438E+03  0.52351905572E+03  0.47000000000E+01 0.  1.
         11    1    4    4    0    0  0.48143847419E+02  0.15509512939E+03  0.58955843683E+03  0.61151572314E+03  0.00000000000E+00 0. -1.
        -12    1    4    4    0    0 -0.30887620433E+02  0.15420308136E+03  0.65113183514E+03  0.66985468733E+03  0.00000000000E+00 0.  1.
</event>
<event>
12    1  0.9966151E-001  0.1848716E+03  0.7818608E-02  0.1163402E+00
         21   -1    0    0  503  502  0.00000000000E+00  0.00000000000E+00  0.23328693662E+03  0.23328693662E+03  0.00000000000E+00 0. -1.
         21   -1    0    0  501  503 -0.00000000000E+00 -0.00000000000E+00 -0.18760408583E+03  0.18760408583E+03  0.00000000000E+00 0. -1.
          6    2    1    2  501    0 -0.60902236973E+02 -0.21956912055E+02 -0.76642279400E+02  0.19921341656E+03  0.17210682117E+03 0.  0.
         24    2    3    3    0    0 -0.72515379704E+02 -0.61761724084E+02 -0.88324284919E+02  0.15587927993E+03  0.86163679994E+02 0.  0.
         -6    2    1    2    0  502  0.60902236973E+02  0.21956912055E+02  0.12232513019E+03  0.22167760588E+03  0.17316562886E+03 0.  0.
        -24    2    5    5    0    0 -0.13023190397E+02  0.67428487849E+02  0.73747236406E+02  0.12210584893E+03  0.68956355793E+02 0.  0.
          5    1    3    3  501    0  0.11613142731E+02  0.39804812029E+02  0.11682005520E+02  0.43334136632E+02  0.47000000000E+01 0. -1.
        -11    1    4    4    0    0 -0.27466768978E+02  0.20703538224E+02 -0.26100187731E+02  0.43177305297E+02  0.00000000000E+00 0.  1.
         12    1    4    4    0    0 -0.45048610725E+02 -0.82465262307E+02 -0.62224097189E+02  0.11270197464E+03  0.00000000000E+00 0. -1.
         -5    1    5    5    0  502  0.73925427369E+02 -0.45471575794E+02  0.48577893787E+02  0.99571756948E+02  0.47000000000E+01 0.  1.
         13    1    6    6    0    0 -0.25672248674E+02  0.45150091108E+02  0.80326808035E+02  0.95655586184E+02  0.00000000000E+00 0. -1.
        -14    1    6    6    0    0  0.12649058278E+02  0.22278396740E+02 -0.65795716291E+01  0.26450262748E+02  0.00000000000E+00 0.  1.
</event>
<event>
12    1  0.9966151E-001  0.2700201E+03  0.7818608E-02  0.1101277E+00
         21   -1    0    0  501  502  0.00000000000E+00  0.00000000000E+00  0.25117154520E+03  0.25117154520E+03  0.00000000000E+00 0. -1.
         21   -1    0    0  502  503 -0.00000000000E+00 -0.00000000000E+00 -0.59712941243E+03  0.59712941243E+03  0.00000000000E+00 0. -1.
         -6    2    1    2    0  503 -0.13644636686E+02 -0.20740974365E+03 -0.47707280078E+03  0.54818728335E+03  0.17235388744E+03 0.  0.
        -24    2    3    3    0    0 -0.11778697798E+02 -0.16874085939E+03 -0.47242108096E+03  0.50891270080E+03  0.84842465484E+02 0.  0.
          6    2    1    2  501    0  0.13644636686E+02  0.20740974365E+03  0.13111493355E+03  0.30011367428E+03  0.17225595439E+03 0.  0.
         24    2    5    5    0    0  0.25010049473E+02  0.20444695231E+03  0.61954388445E+02  0.22980562539E+03  0.80921074676E+02 0.  0.
          5    1    5    5  501    0 -0.11365412787E+02  0.29627913320E+01  0.69160545106E+02  0.70308048896E+02  0.47000000000E+01 0. -1.
        -11    1    6    6    0    0  0.67670342522E+01  0.10100733986E+02 -0.15586783625E+02  0.19767787013E+02  0.00000000000E+00 0.  1.
         12    1    6    6    0    0  0.18243015221E+02  0.19434621833E+03  0.77541172070E+02  0.21003783837E+03  0.00000000000E+00 0. -1.
         -5    1    3    3    0  503 -0.18659388889E+01 -0.38668884253E+02 -0.46517198174E+01  0.39274582551E+02  0.47000000000E+01 0.  1.
         13    1    4    4    0    0  0.34596783409E+02 -0.85059245174E+02 -0.26584971089E+03  0.28126158890E+03  0.00000000000E+00 0. -1.
        -14    1    4    4    0    0 -0.46375481206E+02 -0.83681614221E+02 -0.20657137007E+03  0.22765111190E+03  0.00000000000E+00 0.  1.
</event>
<event>
12    1  0.9966151E-001  0.3001607E+03  0.7818608E-02  0.1085238E+00
         21   -1    0    0  503  502  0.00000000000E+00  0.00000000000E+00  0.14210657467E+03  0.14210657467E+03  0.00000000000E+00 0. -1.
         21   -1    0    0  501  503 -0.00000000000E+00 -0.00000000000E+00 -0.64357656588E+03  0.64357656588E+03  0.00000000000E+00 0. -1.
          6    2    1    2  501    0 -0.20275791880E+03  0.13909314683E+03 -0.19940075621E+03  0.35984014524E+03  0.17107481236E+03 0.  0.
         24    2    3    3    0    0 -0.15562980508E+03  0.55786133348E+02 -0.66517510517E+02  0.19600741169E+03  0.81618608963E+02 0.  0.
         -6    2    1    2    0  502  0.20275791880E+03 -0.13909314683E+03 -0.30206923500E+03  0.42584299531E+03  0.17215910313E+03 0.  0.
        -24    2    5    5    0    0  0.16167619897E+03 -0.68974981092E+02 -0.28251935692E+03  0.34212589667E+03  0.79600256354E+02 0.  0.
          5    1    3    3  501    0 -0.47128113715E+02  0.83307013481E+02 -0.13288324569E+03  0.16383273355E+03  0.47000000000E+01 0. -1.
        -11    1    4    4    0    0 -0.11594163338E+03  0.72693179842E+02 -0.68068889780E+02  0.15284022540E+03  0.00000000000E+00 0.  1.
         12    1    4    4    0    0 -0.39688171705E+02 -0.16907046494E+02  0.15513792627E+01  0.43167186288E+02  0.00000000000E+00 0. -1.
         -5    1    5    5    0  502  0.41081719829E+02 -0.70118165738E+02 -0.19549878076E+02  0.83717098632E+02  0.47000000000E+01 0.  1.
         13    1    6    6    0    0  0.83540616134E+02 -0.88767722601E+01 -0.75997551250E+02  0.11328485965E+03  0.00000000000E+00 0. -1.
        -14    1    6    6    0    0  0.78135582833E+02 -0.60098208832E+02 -0.20652180567E+03  0.22884103702E+03  0.00000000000E+00 0.  1.
</event>
<event>
12    1  0.9966151E-001  0.2625100E+03  0.7818608E-02  0.1105710E+00
         21   -1    0    0  503  502  0.00000000000E+00  0.00000000000E+00  0.40910817902E+03  0.40910817902E+03  0.00000000000E+00 0. -1.
         21   -1    0    0  501  503 -0.00000000000E+00 -0.00000000000E+00 -0.17054779382E+03  0.17054779382E+03  0.00000000000E+00 0. -1.
          6    2    1    2  501    0  0.18458863662E+03  0.71089509551E+02  0.84896028952E+02  0.27547800585E+03  0.17191309676E+03 0.  0.
         24    2    3    3    0    0  0.18038384427E+03  0.80445795286E+02  0.11577353245E+03  0.24260353880E+03  0.80268978880E+02 0.  0.
         -6    2    1    2    0  502 -0.18458863662E+03 -0.71089509551E+02  0.15366435625E+03  0.30417796699E+03  0.17258278619E+03 0.  0.
        -24    2    5    5    0    0 -0.27275769021E+02 -0.52175621592E+01  0.88307670707E+02  0.12147591963E+03  0.78657255323E+02 0.  0.
          5    1    3    3  501    0  0.42047923473E+01 -0.93562857349E+01 -0.30877503496E+02  0.32874467046E+02  0.47000000000E+01 0. -1.
        -13    1    4    4    0    0  0.91136432645E+02  0.67472957763E+02  0.28098080831E+02  0.11682444749E+03  0.00000000000E+00 0.  1.
         14    1    4    4    0    0  0.89247411625E+02  0.12972837523E+02  0.87675451617E+02  0.12577909131E+03  0.00000000000E+00 0. -1.
         -5    1    5    5    0  502 -0.15731286760E+03 -0.65871947392E+02  0.65356685539E+02  0.18270204736E+03  0.47000000000E+01 0.  1.
         11    1    6    6    0    0 -0.37807947502E+02 -0.10468928936E+02  0.98425539360E+02  0.10595577457E+03  0.00000000000E+00 0. -1.
        -12    1    6    6    0    0  0.10532178481E+02  0.52513667769E+01 -0.10117868654E+02  0.15520145060E+02  0.00000000000E+00 0.  1.
</event>
<event>
12    1  0.9966151E-001  0.3353975E+03  0.7818608E-02  0.1068951E+00
         21   -1    0    0  501  502  0.00000000000E+00  0.00000000000E+00  0.63415933396E+03  0.63415933396E+03  0.00000000000E+00 0. -1.
         21   -1    0    0  502  503 -0.00000000000E+00 -0.00000000000E+00 -0.18194199691E+03  0.18194199691E+03  0.00000000000E+00 0. -1.
         -6    2    1    2    0  503  0.19064279677E+03 -0.21488867812E+03  0.15513956922E+03  0.36805369746E+03  0.16992180064E+03 0.  0.
        -24    2    3    3    0    0  0.13794082828E+03 -0.87191751820E+02  0.13854640372E+03  0.22883650883E+03  0.80876251748E+02 0.  0.
          6    2    1    2  501    0 -0.19064279677E+03  0.21488867812E+03  0.29707776783E+03  0.44804763341E+03  0.17311747953E+03 0.  0.
         24    2    5    5    0    0 -0.10408545637E+03  0.94176053413E+02  0.70098001121E+02  0.17674408489E+03  0.81374630691E+02 0.  0.
          5    1    5    5  501    0 -0.86557340402E+02  0.12071262471E+03  0.22697976671E+03  0.27130354851E+03  0.47000000000E+01 0. -1.
        -11    1    6    6    0    0 -0.11446358713E+03  0.76177847435E+02  0.46135750915E+02  0.14502925474E+03  0.00000000000E+00 0.  1.
         12    1    6    6    0    0  0.10378130764E+02  0.17998205979E+02  0.23962250206E+02  0.31714830152E+02  0.00000000000E+00 0. -1.
         -5    1    3    3    0  503  0.52701968485E+02 -0.12769692630E+03  0.16593165499E+02  0.13921718863E+03  0.47000000000E+01 0.  1.
         11    1    4    4    0    0  0.31759204663E+02 -0.81820925786E+01 -0.54602818865E+01  0.33247682597E+02  0.00000000000E+00 0. -1.
        -12    1    4    4    0    0  0.10618162362E+03 -0.79009659241E+02  0.14400668560E+03  0.19558882623E+03  0.00000000000E+00 0.  1.
</event>
<event>
12    1  0.9966151E-001  0.2267031E+03  0.7818608E-02  0.1129107E+00
         21   -1    0    0  503  502  0.00000000000E+00  0.00000000000E+00  0.36628034499E+03  0.36628034499E+03  0.00000000000E+00 0. -1.
         21   -1    0    0  501  503 -0.00000000000E+00 -0.00000000000E+00 -0.51426227778E+03  0.51426227778E+03  0.00000000000E+00 0. -1.
          6    2    1    2  501    0 -0.14536758389E+03 -0.18626335302E+02 -0.44967209112E+03  0.50358642233E+03  0.17296132636E+03 0.  0.
         24    2    3    3    0    0 -0.73315584268E+02 -0.26615982039E+02 -0.40039478064E+03  0.41580448551E+03  0.80584144915E+02 0.  0.
         -6    2    1    2    0  502  0.14536758389E+03  0.18626335302E+02  0.30169015833E+03  0.37695620044E+03  0.17204752427E+03 0.  0.
        -24    2    5    5    0    0  0.15535295105E+03 -0.67522774061E+01  0.17538665223E+03  0.24765636597E+03  0.79956645620E+02 0.  0.
          5    1    3    3  501    0 -0.72051999620E+02  0.79896467369E+01 -0.49277310478E+02  0.87781936821E+02  0.47000000000E+01 0. -1.
        -11    1    4    4    0    0 -0.52203142982E+02  0.23224969164E+02 -0.23157425480E+03  0.23851876827E+03  0.00000000000E+00 0.  1.
         12    1    4    4    0    0 -0.21112441285E+02 -0.49840951203E+02 -0.16882052584E+03  0.17728571724E+03  0.00000000000E+00 0. -1.
         -5    1    5    5    0  502 -0.99853671604E+01  0.25378612708E+02  0.12630350610E+03  0.12929983447E+03  0.47000000000E+01 0.  1.
         13    1    6    6    0    0  0.12895812934E+03  0.26321141533E+02  0.12133677563E+03  0.17901288986E+03  0.00000000000E+00 0. -1.
        -14    1    6    6    0    0  0.26394821704E+02 -0.33073418939E+02  0.54049876591E+02  0.68643476111E+02  0.00000000000E+00 0.  1.
</event>
<event>
12    1  0.9966151E-001  0.1996198E+03  0.7818608E-02  0.1150069E+00
         21   -1    0    0  501  502  0.00000000000E+00  0.00000000000E+00  0.57550105505E+02  0.57550105505E+02  0.00000000000E+00 0. -1.
         21   -1    0    0  502  503 -0.00000000000E+00 -0.00000000000E+00 -0.10033202647E+04  0.10033202647E+04  0.00000000000E+00 0. -1.
         -6    2    1    2    0  503 -0.33481963046E+02  0.97974504180E+02 -0.17757060540E+03  0.26716920990E+03  0.17066933380E+03 0.  0.
        -24    2    3    3    0    0 -0.35294843141E+02 -0.13562939028E+02 -0.79379708836E+02  0.11848353494E+03  0.79419963548E+02 0.  0.
          6    2    1    2  501    0  0.33481963046E+02 -0.97974504180E+02 -0.76819955383E+03  0.79370116033E+03  0.17061926060E+03 0.  0.
         24    2    5    5    0    0 -0.48181994102E+01 -0.12287931181E+03 -0.48111531650E+03  0.50296657139E+03  0.79880434668E+02 0.  0.
          5    1    5    5  501    0  0.38300162456E+02  0.24904807631E+02 -0.28708423733E+03  0.29073458894E+03  0.47000000000E+01 0. -1.
        -13    1    6    6    0    0  0.30509028587E+02 -0.85650434492E+02 -0.24472719303E+03  0.26107124844E+03  0.00000000000E+00 0.  1.
         14    1    6    6    0    0 -0.35327227997E+02 -0.37228877318E+02 -0.23638812347E+03  0.24189532295E+03  0.00000000000E+00 0. -1.
         -5    1    3    3    0  503  0.18128800948E+01  0.11153744321E+03 -0.98190896560E+02  0.14868567496E+03  0.47000000000E+01 0.  1.
         13    1    4    4    0    0 -0.38199152989E+02  0.16576029589E+02 -0.77704622512E+02  0.88158654741E+02  0.00000000000E+00 0. -1.
        -14    1    4    4    0    0  0.29043098475E+01 -0.30138968617E+02 -0.16750863238E+01  0.30324880201E+02  0.00000000000E+00 0.  1.
</event>
<event>
12    1  0.9966151E-001  0.2285334E+03  0.7818608E-02  0.1128489E+00
         21   -1    0    0  503  502  0.00000000000E+00  0.00000000000E+00  0.44528821124E+03  0.44528821124E+03  0.00000000000E+00 0. -1.
         21   -1    0    0  501  503 -0.00000000000E+00 -0.00000000000E+00 -0.22103168933E+03  0.22103168933E+03  0.00000000000E+00 0. -1.
          6    2    1    2  501    0 -0.11874443267E+03 -0.79731795952E+02  0.34348473434E+03  0.41256428411E+03  0.17824176340E+03 0.  0.
         24    2    3    3    0    0 -0.10191659046E+03 -0.32739135914E+02  0.11579194489E+03  0.17941715730E+03  0.85579783837E+02 0.  0.
         -6    2    1    2    0  502  0.11874443267E+03  0.79731795952E+02 -0.11922821243E+03  0.25375561647E+03  0.17239242058E+03 0.  0.
        -24    2    5    5    0    0  0.24917687130E+02  0.63198434644E+02 -0.59947463657E+01  0.10569914734E+03  0.80755430096E+02 0.  0.
          5    1    3    3  501    0 -0.16827842207E+02 -0.46992660039E+02  0.22769278944E+03  0.23314712680E+03  0.47000000000E+01 0. -1.
        -13    1    4    4    0    0 -0.11178590786E+03 -0.25581936888E+02  0.12050273314E+03  0.16634732755E+03  0.00000000000E+00 0.  1.
         14    1    4    4    0    0  0.98693173978E+01 -0.71571990254E+01 -0.47107882457E+01  0.13069829750E+02  0.00000000000E+00 0. -1.
         -5    1    5    5    0  502  0.93826745537E+02  0.16533361308E+02 -0.11323346607E+03  0.14805646913E+03  0.47000000000E+01 0.  1.
         13    1    6    6    0    0 -0.45308694707E+01  0.73471636372E+02  0.14832797502E+01  0.73626151931E+02  0.00000000000E+00 0. -1.
        -14    1    6    6    0    0  0.29448556601E+02 -0.10273201728E+02 -0.74780261158E+01  0.32072995404E+02  0.00000000000E+00 0.  1.
</event>
<event>
12    1  0.1059843E+000  0.2094919E+03  0.7818608E-02  0.1144786E+00
         21   -1    0    0  501  502  0.00000000000E+00  0.00000000000E+00  0.65093601793E+03  0.65093601793E+03  0.00000000000E+00 0.  1.
         21   -1    0    0  502  503 -0.00000000000E+00 -0.00000000000E+00 -0.14311259962E+03  0.14311259962E+03  0.00000000000E+00 0.  1.
         -6    2    1    2    0  503 -0.82274553425E+02 -0.38114755310E+02  0.54694079121E+03  0.58093591295E+03  0.17355249681E+03 0.  0.
        -24    2    3    3    0    0 -0.70854429248E+02 -0.38071858178E+02  0.55468779323E+03  0.56635760315E+03  0.81317711236E+02 0.  0.
          6    2    1    2  501    0  0.82274553425E+02  0.38114755310E+02 -0.39117372899E+02  0.21311270459E+03  0.18885184480E+03 0.  0.
         24    2    5    5    0    0  0.49743547583E+02 -0.12540946641E+02  0.48048216027E+02  0.10707404950E+03  0.80774532769E+02 0.  0.
          5    1    5    5  501    0  0.32531005842E+02  0.50655701951E+02 -0.87165588926E+02  0.10603865509E+03  0.47000000000E+01 0. -1.
        -11    1    6    6    0    0 -0.52845920779E+01  0.26837753461E+02  0.19702170575E+02  0.33710049683E+02  0.00000000000E+00 0.  1.
         12    1    6    6    0    0  0.55028139661E+02 -0.39378700102E+02  0.28346045451E+02  0.73363999816E+02  0.00000000000E+00 0. -1.
         -5    1    3    3    0  503 -0.11420124177E+02 -0.42897131495E-01 -0.77470020162E+01  0.14578309800E+02  0.47000000000E+01 0.  1.
         11    1    4    4    0    0 -0.48859211333E+02 -0.58102512027E+02  0.28157073235E+03  0.29162510480E+03  0.00000000000E+00 0. -1.
        -12    1    4    4    0    0 -0.21995217915E+02  0.20030653849E+02  0.27311706088E+03  0.27473249835E+03  0.00000000000E+00 0.  1.
</event>
<event>
12    1  0.9966151E-001  0.2928471E+03  0.7818608E-02  0.1089260E+00
         21   -1    0    0  503  502  0.00000000000E+00  0.00000000000E+00  0.40607705853E+03  0.40607705853E+03  0.00000000000E+00 0.  1.
         21   -1    0    0  501  503 -0.00000000000E+00 -0.00000000000E+00 -0.59380890508E+03  0.59380890508E+03  0.00000000000E+00 0.  1.
          6    2    1    2  501    0  0.12575594052E+03 -0.19411183866E+03 -0.49647190584E+03  0.57640590954E+03  0.17962588005E+03 0.  0.
         24    2    3    3    0    0 -0.25343392845E+00 -0.12538384434E+03 -0.22524430570E+03  0.26950462129E+03  0.78591163617E+02 0.  0.
         -6    2    1    2    0  502 -0.12575594052E+03  0.19411183866E+03  0.30874005928E+03  0.42348005407E+03  0.17470251716E+03 0.  0.
        -24    2    5    5    0    0 -0.61615223438E+02  0.18638701883E+03  0.17375331354E+03  0.27375625518E+03  0.78839816938E+02 0.  0.
          5    1    3    3  501    0  0.12600937445E+03 -0.68727994325E+02 -0.27122760014E+03  0.30690128825E+03  0.47000000000E+01 0. -1.
        -13    1    4    4    0    0 -0.11621133114E+02  0.60847303409E+01 -0.39772664349E+02  0.41880060979E+02  0.00000000000E+00 0.  1.
         14    1    4    4    0    0  0.11367699186E+02 -0.13146857468E+03 -0.18547164135E+03  0.22762456031E+03  0.00000000000E+00 0. -1.
         -5    1    5    5    0  502 -0.64140717080E+02  0.77248198381E+01  0.13498674574E+03  0.14972379889E+03  0.47000000000E+01 0.  1.
         13    1    6    6    0    0 -0.17237594269E+02  0.52506716152E+02  0.10081686102E+03  0.11497012379E+03  0.00000000000E+00 0. -1.
        -14    1    6    6    0    0 -0.44377629170E+02  0.13388030267E+03  0.72936452516E+02  0.15878613139E+03  0.00000000000E+00 0.  1.
</event>
<event>
12    1  0.9966151E-001  0.2943795E+03  0.7818608E-02  0.1088154E+00
         21   -1    0    0  501  502  0.00000000000E+00  0.00000000000E+00  0.61393537701E+03  0.61393537701E+03  0.00000000000E+00 0.  1.
         21   -1    0    0  502  503 -0.00000000000E+00 -0.00000000000E+00 -0.16829805429E+03  0.16829805429E+03  0.00000000000E+00 0.  1.
         -6    2    1    2    0  503  0.18925690771E+03  0.14465443263E+03  0.38081242481E+03  0.48132880766E+03  0.17296310648E+03 0.  0.
        -24    2    3    3    0    0  0.14070025325E+03  0.16841518286E+03  0.26353835056E+03  0.35210953497E+03  0.79802426779E+02 0.  0.
          6    2    1    2  501    0 -0.18925690771E+03 -0.14465443263E+03  0.64824897909E+02  0.30090462364E+03  0.17204139950E+03 0.  0.
         24    2    5    5    0    0 -0.80411732147E+02 -0.10365892139E+03 -0.27445240341E+02  0.15236583208E+03  0.72463003779E+02 0.  0.
          5    1    5    5  501    0 -0.10884517556E+03 -0.40995511238E+02  0.92270138250E+02  0.14853879156E+03  0.47000000000E+01 0. -1.
        -11    1    6    6    0    0  0.79777720956E+01 -0.14590033903E+02  0.12361767219E+02  0.20720212973E+02  0.00000000000E+00 0.  1.
         12    1    6    6    0    0 -0.88389504242E+02 -0.89068887489E+02 -0.39807007559E+02  0.13164561910E+03  0.00000000000E+00 0. -1.
         -5    1    3    3    0  503  0.48556654463E+02 -0.23760750232E+02  0.11727407424E+03  0.12921927269E+03  0.47000000000E+01 0.  1.
         13    1    4    4    0    0  0.59720408220E+02  0.10718356258E+03  0.19220918942E+03  0.22803336542E+03  0.00000000000E+00 0. -1.
        -14    1    4    4    0    0  0.80979845025E+02  0.61231620279E+02  0.71329161143E+02  0.12407616956E+03  0.00000000000E+00 0.  1.
</event>
<event>
12    1  0.9966151E-001  0.2197450E+03  0.7818608E-02  0.1134088E+00
         21   -1    0    0  503  502  0.00000000000E+00  0.00000000000E+00  0.13420934248E+04  0.13420934248E+04  0.00000000000E+00 0.  1.
         21   -1    0    0  501  503 -0.00000000000E+00 -0.00000000000E+00 -0.46117813390E+02  0.46117813390E+02  0.00000000000E+00 0.  1.
          6    2    1    2  501    0 -0.85899450852E+02  0.10636968674E+03  0.97371773528E+03  0.99820543662E+03  0.17203092680E+03 0.  0.
         24    2    3    3    0    0 -0.53634160707E+01  0.11207311157E+03  0.66660014286E+03  0.68061783055E+03  0.79345650369E+02 0.  0.
         -6    2    1    2    0  502  0.85899450852E+02 -0.10636968674E+03  0.32225787613E+03  0.39000580158E+03  0.17193359363E+03 0.  0.
        -24    2    5    5    0    0 -0.18122326611E+02 -0.20960606656E+02  0.99804688613E+02  0.12996205182E+03  0.78494543072E+02 0.  0.
          5    1    3    3  501    0 -0.80536034781E+02 -0.57034248242E+01  0.30711759243E+03  0.31758760607E+03  0.47000000000E+01 0. -1.
        -13    1    4    4    0    0  0.61398937752E+01  0.63288260221E+01  0.26571238917E+03  0.26585865811E+03  0.00000000000E+00 0.  1.
         14    1    4    4    0    0 -0.11503309846E+02  0.10574428555E+03  0.40088775369E+03  0.41475917244E+03  0.00000000000E+00 0. -1.
         -5    1    5    5    0  502  0.10402177746E+03 -0.85409080087E+02  0.22245318752E+03  0.26004374975E+03  0.47000000000E+01 0.  1.
         11    1    6    6    0    0 -0.19640568524E+02 -0.24563627566E+02  0.11242958007E+03  0.11674559608E+03  0.00000000000E+00 0. -1.
        -12    1    6    6    0    0  0.15182419135E+01  0.36030209100E+01 -0.12624891452E+02  0.13216455741E+02  0.00000000000E+00 0.  1.
</event>
<event>
12    1  0.9966151E-001  0.2063965E+03  0.7818608E-02  0.1144823E+00
         21   -1    0    0  501  502  0.00000000000E+00  0.00000000000E+00  0.17081772757E+03  0.17081772757E+03  0.00000000000E+00 0.  1.
         21   -1    0    0  502  503 -0.00000000000E+00 -0.00000000000E+00 -0.36710650651E+03  0.36710650651E+03  0.00000000000E+00 0.  1.
         -6    2    1    2    0  503  0.63348600814E+02  0.91907495312E+02  0.55284384502E+02  0.21367235659E+03  0.17360725757E+03 0.  0.
        -24    2    3    3    0    0  0.84727894279E+02  0.65627529459E+02  0.93876616430E+02  0.16210530160E+03  0.77327362583E+02 0.  0.
          6    2    1    2  501    0 -0.63348600814E+02 -0.91907495312E+02 -0.25157316345E+03  0.32425187749E+03  0.17143567473E+03 0.  0.
         24    2    5    5    0    0  0.26460180994E+02 -0.17405159163E+02 -0.99415276956E+02  0.13244382812E+03  0.81577506529E+02 0.  0.
          5    1    5    5  501    0 -0.89808781809E+02 -0.74502336149E+02 -0.15215788649E+03  0.19180804937E+03  0.47000000000E+01 0. -1.
        -11    1    6    6    0    0 -0.61475448373E+01 -0.35813351685E+01  0.12869863141E+02  0.14705497149E+02  0.00000000000E+00 0.  1.
         12    1    6    6    0    0  0.32607725832E+02 -0.13823823994E+02 -0.11228514010E+03  0.11773833097E+03  0.00000000000E+00 0. -1.
         -5    1    3    3    0  503 -0.21379293464E+02  0.26279965853E+02 -0.38592231928E+02  0.51567054981E+02  0.47000000000E+01 0.  1.
         11    1    4    4    0    0  0.84043423777E+02  0.80916112928E+02  0.80118262358E+02  0.14152614732E+03  0.00000000000E+00 0. -1.
        -12    1    4    4    0    0  0.68447050163E+00 -0.15288583469E+02  0.13758354072E+02  0.20579154286E+02  0.00000000000E+00 0.  1.
</event>
<event>
12    1  0.9966151E-001  0.2168750E+03  0.7818608E-02  0.1137042E+00
         21   -1    0    0  501  502  0.00000000000E+00  0.00000000000E+00  0.20733316819E+04  0.20733316819E+04  0.00000000000E+00 0.  1.
         21   -1    0    0  502  503 -0.00000000000E+00 -0.00000000000E+00 -0.27623644660E+02  0.27623644660E+02  0.00000000000E+00 0.  1.
         -6    2    1    2    0  503  0.38956122472E+01  0.12661234811E+03  0.55137420152E+03  0.59096579280E+03  0.17082504403E+03 0.  0.
        -24    2    3    3    0    0 -0.41927997936E+02  0.70989340430E+02  0.20385313349E+03  0.23601973358E+03  0.85742469859E+02 0.  0.
          6    2    1    2  501    0 -0.38956122472E+01 -0.12661234811E+03  0.14943338357E+04  0.15099895338E+04  0.17603669220E+03 0.  0.
         24    2    5    5    0    0 -0.12559780437E+02 -0.12088343680E+03  0.67832823999E+03  0.69390429894E+03  0.81261439428E+02 0.  0.
          5    1    5    5  501    0  0.86641681894E+01 -0.57289113141E+01  0.81600559573E+03  0.81608523482E+03  0.47000000000E+01 0. -1.
        -11    1    6    6    0    0 -0.37760791980E+02 -0.10219149605E+03  0.59442698962E+03  0.60432807751E+03  0.00000000000E+00 0.  1.
         12    1    6    6    0    0  0.25201011543E+02 -0.18691940752E+02  0.83901250372E+02  0.89576221431E+02  0.00000000000E+00 0. -1.
         -5    1    3    3    0  503  0.45823610183E+02  0.55623007685E+02  0.34752106803E+03  0.35494605922E+03  0.47000000000E+01 0.  1.
         11    1    4    4    0    0 -0.37933089312E+02  0.89114876105E+02  0.18852424662E+03  0.21194756892E+03  0.00000000000E+00 0. -1.
        -12    1    4    4    0    0 -0.39949086244E+01 -0.18125535675E+02  0.15328886871E+02  0.24072164654E+02  0.00000000000E+00 0.  1.
</event>
<event>
12    1  0.9966151E-001  0.3810850E+03  0.7818608E-02  0.1050585E+00
         21   -1    0    0  503  502  0.00000000000E+00  0.00000000000E+00  0.12175060055E+03  0.12175060055E+03  0.00000000000E+00 0.  1.
         21   -1    0    0  501  503 -0.00000000000E+00 -0.00000000000E+00 -0.16566012043E+04  0.16566012043E+04  0.00000000000E+00 0.  1.
          6    2    1    2  501    0 -0.33892390577E+03 -0.23823984633E+02 -0.29566779895E+03  0.48189516710E+03  0.17136659124E+03 0.  0.
         24    2    3    3    0    0 -0.12521881532E+03 -0.20393876250E+02 -0.52305427189E+02  0.15796775962E+03  0.78245085899E+02 0.  0.
         -6    2    1    2    0  502  0.33892390577E+03  0.23823984633E+02 -0.12391828048E+04  0.12964566377E+04  0.17259430373E+03 0.  0.
        -24    2    5    5    0    0  0.18713727251E+03  0.64284989710E+02 -0.55040048387E+03  0.58997277338E+03  0.77293350470E+02 0.  0.
          5    1    3    3  501    0 -0.21370509045E+03 -0.34301083830E+01 -0.24336237176E+03  0.32392740748E+03  0.47000000000E+01 0. -1.
        -13    1    4    4    0    0 -0.13622363589E+03 -0.21819485744E+02 -0.48367485340E+02  0.14619296348E+03  0.00000000000E+00 0.  1.
         14    1    4    4    0    0  0.11004820568E+02  0.14256094948E+01 -0.39379418485E+01  0.11774796141E+02  0.00000000000E+00 0. -1.
         -5    1    5    5    0  502  0.15178663327E+03 -0.40461005077E+02 -0.68878232094E+03  0.70648386436E+03  0.47000000000E+01 0.  1.
         11    1    6    6    0    0  0.15441806353E+03  0.22265483334E+02 -0.45071223549E+03  0.47695095064E+03  0.00000000000E+00 0. -1.
        -12    1    6    6    0    0  0.32719208972E+02  0.42019506376E+02 -0.99688248381E+02  0.11302182275E+03  0.00000000000E+00 0.  1.
</event>
<event>
12    1  0.9966151E-001  0.1778849E+03  0.7818608E-02  0.1169915E+00
         21   -1    0    0  503  502  0.00000000000E+00  0.00000000000E+00  0.45702344905E+03  0.45702344905E+03  0.00000000000E+00 0.  1.
         21   -1    0    0  501  503 -0.00000000000E+00 -0.00000000000E+00 -0.71023683707E+02  0.71023683707E+02  0.00000000000E+00 0.  1.
          6    2    1    2  501    0  0.41276433939E+02 -0.16179388842E+02  0.15033335422E+03  0.23290157719E+03  0.17227161880E+03 0.  0.
         24    2    3    3    0    0  0.45217284894E+02 -0.73977985050E+02  0.11479034782E+03  0.16477226387E+03  0.80347556662E+02 0.  0.
         -6    2    1    2    0  502 -0.41276433939E+02  0.16179388842E+02  0.23566641112E+03  0.29514555557E+03  0.17206604842E+03 0.  0.
        -24    2    5    5    0    0 -0.81428320086E+01  0.18558363487E+01  0.24358578686E+02  0.80725197903E+02  0.76507956313E+02 0.  0.
          5    1    3    3  501    0 -0.39408509546E+01  0.57798596208E+02  0.35543006397E+02  0.68129313321E+02  0.47000000000E+01 0. -1.
        -13    1    4    4    0    0  0.21992031877E+02  0.13476335790E+02  0.38903596330E+02  0.46677091810E+02  0.00000000000E+00 0.  1.
         14    1    4    4    0    0  0.23225253017E+02 -0.87454320840E+02  0.75886751494E+02  0.11809517206E+03  0.00000000000E+00 0. -1.
         -5    1    5    5    0  502 -0.33133601930E+02  0.14323552494E+02  0.21130783244E+03  0.21442035767E+03  0.47000000000E+01 0.  1.
         11    1    6    6    0    0  0.55136987702E+01 -0.34991159143E+01  0.50408178544E+02  0.50829412257E+02  0.00000000000E+00 0. -1.
        -12    1    6    6    0    0 -0.13656530779E+02  0.53549522629E+01 -0.26049599857E+02  0.29895785646E+02  0.00000000000E+00 0.  1.
</event>
<event>
12    1  0.9966151E-001  0.2377533E+03  0.7818608E-02  0.1122932E+00
         21   -1    0    0  501  502  0.00000000000E+00  0.00000000000E+00  0.44915368007E+02  0.44915368007E+02  0.00000000000E+00 0. -1.
         21   -1    0    0  502  503 -0.00000000000E+00 -0.00000000000E+00 -0.12091739334E+04  0.12091739334E+04  0.00000000000E+00 0. -1.
         -6    2    1    2    0  503  0.36621909277E+02  0.16045569596E+03 -0.60467838861E+03  0.64974040509E+03  0.17157926959E+03 0.  0.
        -24    2    3    3    0    0  0.81833526004E+02  0.15572182332E+03 -0.50780646247E+03  0.54262943501E+03  0.75055234193E+02 0.  0.
          6    2    1    2  501    0 -0.36621909277E+02 -0.16045569596E+03 -0.55958017681E+03  0.60434889634E+03  0.15817844235E+03 0.  0.
         24    2    5    5    0    0 -0.72960178320E+02 -0.15003793740E+03 -0.41469001347E+03  0.45453484853E+03  0.82459389842E+02 0.  0.
          5    1    5    5  501    0  0.36338269043E+02 -0.10417758569E+02 -0.14489016333E+03  0.14981404781E+03  0.47000000000E+01 0. -1.
        -11    1    6    6    0    0 -0.42733093326E+02 -0.13891728321E+03 -0.38167642129E+03  0.40841280515E+03  0.00000000000E+00 0.  1.
         12    1    6    6    0    0 -0.30227084994E+02 -0.11120654188E+02 -0.33013592183E+02  0.46122043381E+02  0.00000000000E+00 0. -1.
         -5    1    3    3    0  503 -0.45211616727E+02  0.47338726421E+01 -0.96871926141E+02  0.10711097008E+03  0.47000000000E+01 0.  1.
         13    1    4    4    0    0  0.54847068546E+02  0.46017824136E+02 -0.27032554492E+03  0.27964574251E+03  0.00000000000E+00 0. -1.
        -14    1    4    4    0    0  0.26986457457E+02  0.10970399919E+03 -0.23748091754E+03  0.26298369250E+03  0.00000000000E+00 0.  1.
</event>
<event>
12    1  0.9966151E-001  0.2273316E+03  0.7818608E-02  0.1128680E+00
         21   -1    0    0  503  502  0.00000000000E+00  0.00000000000E+00  0.59876807341E+02  0.59876807341E+02  0.00000000000E+00 0. -1.
         21   -1    0    0  501  503 -0.00000000000E+00 -0.00000000000E+00 -0.86131339667E+03  0.86131339667E+03  0.00000000000E+00 0. -1.
          6    2    1    2  501    0 -0.92085639807E+02 -0.11667029078E+03 -0.38316197771E+03  0.44552526782E+03  0.17201145688E+03 0.  0.
         24    2    3    3    0    0 -0.12610483407E+03 -0.10000921093E+03 -0.25557995696E+03  0.31235560470E+03  0.79628122772E+02 0.  0.
         -6    2    1    2    0  502  0.92085639807E+02  0.11667029078E+03 -0.41827461163E+03  0.47566493619E+03  0.17091447856E+03 0.  0.
        -24    2    5    5    0    0  0.57173908088E+02  0.51772107981E+02 -0.37223498652E+03  0.38864574163E+03  0.80854315699E+02 0.  0.
          5    1    3    3  501    0  0.34019194265E+02 -0.16661079848E+02 -0.12758202074E+03  0.13316966313E+03  0.47000000000E+01 0. -1.
        -13    1    4    4    0    0 -0.86165376189E+02 -0.33300503275E+02 -0.18745964408E+03  0.20898448203E+03  0.00000000000E+00 0.  1.
         14    1    4    4    0    0 -0.39939457883E+02 -0.66708707659E+02 -0.68120312887E+02  0.10337112267E+03  0.00000000000E+00 0. -1.
         -5    1    5    5    0  502  0.34911731720E+02  0.64898182802E+02 -0.46039625112E+02  0.87019194567E+02  0.47000000000E+01 0.  1.
         11    1    6    6    0    0  0.46150589178E+02 -0.62725876702E+01 -0.10355978156E+03  0.11355109244E+03  0.00000000000E+00 0. -1.
        -12    1    6    6    0    0  0.11023318910E+02  0.58044695651E+02 -0.26867520496E+03  0.27509464919E+03  0.00000000000E+00 0.  1.
</event>
<event>
12    1  0.9966151E-001  0.2038991E+03  0.7818608E-02  0.1147543E+00
         21   -1    0    0  503  502  0.00000000000E+00  0.00000000000E+00  0.15002271520E+04  0.15002271520E+04  0.00000000000E+00 0. -1.
         21   -1    0    0  501  503 -0.00000000000E+00 -0.00000000000E+00 -0.27764620191E+02  0.27764620191E+02  0.00000000000E+00 0. -1.
          6    2    1    2  501    0 -0.56168453199E+02  0.93566381098E+02  0.86942849944E+03  0.89301778742E+03  0.17223614665E+03 0.  0.
         24    2    3    3    0    0  0.20729054429E+02  0.94385844950E+02  0.57803704784E+03  0.59161280030E+03  0.80873329199E+02 0.  0.
         -6    2    1    2    0  502  0.56168453199E+02 -0.93566381098E+02  0.60303403238E+03  0.63497398477E+03  0.16622982382E+03 0.  0.
        -24    2    5    5    0    0  0.28554765776E+02 -0.37636155987E+02  0.14174934748E+03  0.16946742592E+03  0.79965467867E+02 0.  0.
          5    1    3    3  501    0 -0.76897507627E+02 -0.81946385153E+00  0.29139145160E+03  0.30140498713E+03  0.47000000000E+01 0. -1.
        -11    1    4    4    0    0  0.48558537613E+02  0.42514028037E+02  0.24197574051E+03  0.25043488804E+03  0.00000000000E+00 0.  1.
         12    1    4    4    0    0 -0.27829483184E+02  0.51871816913E+02  0.33606130733E+03  0.34117791225E+03  0.00000000000E+00 0. -1.
         -5    1    5    5    0  502  0.27613687422E+02 -0.55930225111E+02  0.46128468489E+03  0.46550655885E+03  0.47000000000E+01 0.  1.
         13    1    6    6    0    0  0.39925522656E+02  0.12121158203E+02  0.59616026604E+02  0.72767028685E+02  0.00000000000E+00 0. -1.
        -14    1    6    6    0    0 -0.11370756880E+02 -0.49757314190E+02  0.82133320881E+02  0.96700397240E+02  0.00000000000E+00 0.  1.
</event>
<event>
12    1  0.9966151E-001  0.1751904E+03  0.7818608E-02  0.1173287E+00
         21   -1    0    0  503  502  0.00000000000E+00  0.00000000000E+00  0.53029110794E+02  0.53029110794E+02  0.00000000000E+00 0. -1.
         21   -1    0    0  501  503 -0.00000000000E+00 -0.00000000000E+00 -0.11879555125E+04  0.11879555125E+04  0.00000000000E+00 0. -1.
          6    2    1    2  501    0 -0.15581169295E+02  0.27150829021E+02 -0.10130089830E+04  0.10275471781E+04  0.16936960562E+03 0.  0.
         24    2    3    3    0    0 -0.26658576289E+02  0.40034896653E+02 -0.30097080993E+03  0.31529079308E+03  0.80693141794E+02 0.  0.
         -6    2    1    2    0  502  0.15581169295E+02 -0.27150829021E+02 -0.12191741872E+03  0.21343744517E+03  0.17237095364E+03 0.  0.
        -24    2    5    5    0    0  0.20126468303E+02 -0.80909957597E+02 -0.60884533593E+02  0.13184206102E+03  0.81999430837E+02 0.  0.
          5    1    3    3  501    0  0.11077406994E+02 -0.12884067632E+02 -0.71203817306E+03  0.71225638505E+03  0.47000000000E+01 0. -1.
        -13    1    4    4    0    0  0.17161795813E+02  0.28800028277E+02 -0.49508622576E+02  0.59791910604E+02  0.00000000000E+00 0.  1.
         14    1    4    4    0    0 -0.43820372103E+02  0.11234868376E+02 -0.25146218735E+03  0.25549888248E+03  0.00000000000E+00 0. -1.
         -5    1    5    5    0  502 -0.45452990085E+01  0.53759128576E+02 -0.61032885128E+02  0.81595384154E+02  0.47000000000E+01 0.  1.
         11    1    6    6    0    0  0.15836876178E+02 -0.81786750120E+02 -0.78032228766E+02  0.11414424150E+03  0.00000000000E+00 0. -1.
        -12    1    6    6    0    0  0.42895921253E+01  0.87679252263E+00  0.17147695174E+02  0.17697819513E+02  0.00000000000E+00 0.  1.
</event>
<event>
12    1  0.9966151E-001  0.2847193E+03  0.7818608E-02  0.1093217E+00
         21   -1    0    0  503  502  0.00000000000E+00  0.00000000000E+00  0.30468468263E+03  0.30468468263E+03  0.00000000000E+00 0. -1.
         21   -1    0    0  501  503 -0.00000000000E+00 -0.00000000000E+00 -0.38172444853E+03  0.38172444853E+03  0.00000000000E+00 0.  1.
          6    2    1    2  501    0  0.13704138104E+03  0.17912276982E+03  0.15081440421E+03  0.32219565090E+03  0.17378074162E+03 0.  0.
         24    2    3    3    0    0  0.36167125828E+02  0.54150466941E+02  0.12936585481E+01  0.10271390853E+03  0.79423796135E+02 0.  0.
         -6    2    1    2    0  502 -0.13704138104E+03 -0.17912276982E+03 -0.22785417012E+03  0.36421348025E+03  0.17282543092E+03 0.  0.
        -24    2    5    5    0    0 -0.16392206367E+03 -0.17451003051E+03 -0.17921557710E+03  0.30825232235E+03  0.74679832982E+02 0.  0.
          5    1    3    3  501    0  0.10087425521E+03  0.12497230287E+03  0.14952074567E+03  0.21948174237E+03  0.47000000000E+01 0. -1.
        -13    1    4    4    0    0  0.13952700481E+02  0.66772638951E+02  0.19956084090E+02  0.71073964680E+02  0.00000000000E+00 0.  1.
         14    1    4    4    0    0  0.22214425347E+02 -0.12622172010E+02 -0.18662425542E+02  0.31639943850E+02  0.00000000000E+00 0. -1.
         -5    1    5    5    0  502  0.26880682630E+02 -0.46127393095E+01 -0.48638593020E+02  0.55961157900E+02  0.47000000000E+01 0.  1.
         11    1    6    6    0    0 -0.32622607695E+02 -0.73954713303E+02 -0.87585019978E+02  0.11918334564E+03  0.00000000000E+00 0. -1.
        -12    1    6    6    0    0 -0.13129945598E+03 -0.10055531720E+03 -0.91630557121E+02  0.18906897671E+03  0.00000000000E+00 0.  1.
</event>
<event>
12    1  0.9966151E-001  0.3002444E+03  0.7818608E-02  0.1085986E+00
         21   -1    0    0  503  502  0.00000000000E+00  0.00000000000E+00  0.33415161799E+03  0.33415161799E+03  0.00000000000E+00 0. -1.
         21   -1    0    0  501  503 -0.00000000000E+00 -0.00000000000E+00 -0.26364783761E+03  0.26364783761E+03  0.00000000000E+00 0. -1.
          6    2    1    2  501    0 -0.20518726802E+03  0.12696420416E+03  0.35319688634E+02  0.30231470234E+03  0.17867561320E+03 0.  0.
         24    2    3    3    0    0 -0.17367622938E+03  0.38389141345E+02  0.59958193776E+02  0.20501293851E+03  0.82450961986E+02 0.  0.
         -6    2    1    2    0  502  0.20518726802E+03 -0.12696420416E+03  0.35184091742E+02  0.29548475325E+03  0.16688797140E+03 0.  0.
        -24    2    5    5    0    0  0.11947598615E+03 -0.88295337701E+01  0.40634954615E+02  0.14935458493E+03  0.79392194643E+02 0.  0.
          5    1    3    3  501    0 -0.31511038642E+02  0.88575062815E+02 -0.24638505142E+02  0.97301763831E+02  0.47000000000E+01 0. -1.
        -11    1    4    4    0    0 -0.13406695435E+03  0.59590037818E+02  0.26718245497E+02  0.14912674307E+03  0.00000000000E+00 0.  1.
         12    1    4    4    0    0 -0.39609275024E+02 -0.21200896473E+02  0.33239948279E+02  0.55886195440E+02  0.00000000000E+00 0. -1.
         -5    1    5    5    0  502  0.85711281868E+02 -0.11813467039E+03 -0.54508628727E+01  0.14613016832E+03  0.47000000000E+01 0.  1.
         13    1    6    6    0    0  0.13076553155E+03 -0.12742866499E+02  0.40202795077E+02  0.13739821549E+03  0.00000000000E+00 0. -1.
        -14    1    6    6    0    0 -0.11289545398E+02  0.39133327291E+01  0.43215953731E+00  0.11956369441E+02  0.00000000000E+00 0.  1.
</event>
<event>
12    1  0.9966151E-001  0.1927188E+03  0.7818608E-02  0.1156928E+00
         21   -1    0    0  503  502  0.00000000000E+00  0.00000000000E+00  0.59674217806E+02  0.59674217806E+02  0.00000000000E+00 0.  1.
         21   -1    0    0  501  503 -0.00000000000E+00 -0.00000000000E+00 -0.60952852391E+03  0.60952852391E+03  0.00000000000E+00 0.  1.
          6    2    1    2  501    0  0.45799707800E+02 -0.64980146252E+02 -0.27889253938E+03  0.33900086260E+03  0.17555769331E+03 0.  0.
         24    2    3    3    0    0  0.11093965860E+02 -0.70055643277E+02 -0.72155017005E+02  0.12925639342E+03  0.80436307274E+02 0.  0.
         -6    2    1    2    0  502 -0.45799707800E+02  0.64980146252E+02 -0.27096176673E+03  0.33020187912E+03  0.17115188957E+03 0.  0.
        -24    2    5    5    0    0  0.37200782990E+02  0.49510958072E+02 -0.17253216862E+03  0.20043727286E+03  0.81071067083E+02 0.  0.
          5    1    3    3  501    0  0.34705741939E+02  0.50754970253E+01 -0.20673752237E+03  0.20974446918E+03  0.47000000000E+01 0. -1.
        -11    1    4    4    0    0 -0.28656743276E+02 -0.33738793204E+01 -0.26608284803E+02  0.39250386203E+02  0.00000000000E+00 0.  1.
         12    1    4    4    0    0  0.39750709137E+02 -0.66681763957E+02 -0.45546732202E+02  0.90006007219E+02  0.00000000000E+00 0. -1.
         -5    1    5    5    0  502 -0.83000490790E+02  0.15469188181E+02 -0.98429598109E+02  0.12976460626E+03  0.47000000000E+01 0.  1.
         11    1    6    6    0    0  0.79053771695E+01  0.67161291817E+02 -0.12027821842E+03  0.13798544826E+03  0.00000000000E+00 0. -1.
        -12    1    6    6    0    0  0.29295405820E+02 -0.17650333745E+02 -0.52253950200E+02  0.62451824593E+02  0.00000000000E+00 0.  1.
</event>
<event>
12    1  0.9966151E-001  0.1868705E+03  0.7818608E-02  0.1161574E+00
         21   -1    0    0  501  502  0.00000000000E+00  0.00000000000E+00  0.99783562537E+02  0.99783562537E+02  0.00000000000E+00 0. -1.
         21   -1    0    0  502  503 -0.00000000000E+00 -0.00000000000E+00 -0.43616684723E+03  0.43616684723E+03  0.00000000000E+00 0. -1.
         -6    2    1    2    0  503 -0.72370526048E+01 -0.70588060778E+02 -0.47212657282E+02  0.19165370851E+03  0.17165972073E+03 0.  0.
        -24    2    3    3    0    0 -0.52585055071E+01 -0.41754059595E+02  0.40214709417E+02  0.99453118918E+02  0.80638989553E+02 0.  0.
          6    2    1    2  501    0  0.72370526048E+01  0.70588060778E+02 -0.28917062741E+03  0.34429670126E+03  0.17287428231E+03 0.  0.
         24    2    5    5    0    0 -0.52714710738E+02  0.63207457055E+02 -0.12856200566E+03  0.17264033924E+03  0.80637919612E+02 0.  0.
          5    1    5    5  501    0  0.59951763342E+02  0.73806037226E+01 -0.16060862175E+03  0.17165636201E+03  0.47000000000E+01 0. -1.
        -11    1    6    6    0    0 -0.70077977435E+02  0.29138165523E+02 -0.96287284735E+02  0.12260178144E+03  0.00000000000E+00 0.  1.
         12    1    6    6    0    0  0.17363266698E+02  0.34069291532E+02 -0.32274720922E+02  0.50038557798E+02  0.00000000000E+00 0. -1.
         -5    1    3    3    0  503 -0.19785470976E+01 -0.28834001182E+02 -0.87427366699E+02  0.92200589590E+02  0.47000000000E+01 0.  1.
         13    1    4    4    0    0 -0.32167675897E+01  0.36339694744E+01  0.52231826262E+02  0.52456810831E+02  0.00000000000E+00 0. -1.
        -14    1    4    4    0    0 -0.20417379174E+01 -0.45388029070E+02 -0.12017116845E+02  0.46996308087E+02  0.00000000000E+00 0.  1.
</event>
<event>
12    1  0.9966151E-001  0.2595928E+03  0.7818608E-02  0.1107508E+00
         21   -1    0    0  501  502  0.00000000000E+00  0.00000000000E+00  0.33879783549E+03  0.33879783549E+03  0.00000000000E+00 0. -1.
         21   -1    0    0  502  503 -0.00000000000E+00 -0.00000000000E+00 -0.24026920903E+03  0.24026920903E+03  0.00000000000E+00 0. -1.
         -6    2    1    2    0  503  0.39877245195E+02  0.18882497813E+03 -0.71813697290E+02  0.26857564398E+03  0.17242564301E+03 0.  0.
        -24    2    3    3    0    0  0.18013256407E+02  0.15109917377E+03  0.13312621571E+02  0.17281630770E+03  0.80825816391E+02 0.  0.
          6    2    1    2  501    0 -0.39877245195E+02 -0.18882497813E+03  0.17034232375E+03  0.31049140054E+03  0.17361836165E+03 0.  0.
         24    2    5    5    0    0  0.44968113701E+02 -0.97763817342E+02  0.74337676726E+02  0.15323412033E+03  0.79841782426E+02 0.  0.
          5    1    5    5  501    0 -0.84845358896E+02 -0.91061160789E+02  0.96004647021E+02  0.15725728021E+03  0.47000000000E+01 0. -1.
        -13    1    6    6    0    0 -0.10165056940E+02 -0.55852343047E+02  0.79949517034E+01  0.57330025808E+02  0.00000000000E+00 0.  1.
         14    1    6    6    0    0  0.55133170641E+02 -0.41911474295E+02  0.66342725022E+02  0.95904094521E+02  0.00000000000E+00 0. -1.
         -5    1    3    3    0  503  0.21863988788E+02  0.37725804361E+02 -0.85126318861E+02  0.95759336272E+02  0.47000000000E+01 0.  1.
         13    1    4    4    0    0 -0.68654722779E+01  0.13107558767E+03 -0.12366982478E+02  0.13183659071E+03  0.00000000000E+00 0. -1.
        -14    1    4    4    0    0  0.24878728685E+02  0.20023586096E+02  0.25679604048E+02  0.40979716998E+02  0.00000000000E+00 0.  1.
</event>
<event>
12    1  0.9966151E-001  0.3520383E+03  0.7818608E-02  0.1061826E+00
         21   -1    0    0  501  502  0.00000000000E+00  0.00000000000E+00  0.27379336268E+04  0.27379336268E+04  0.00000000000E+00 0.  1.
         21   -1    0    0  502  503 -0.00000000000E+00 -0.00000000000E+00 -0.62490409889E+02  0.62490409889E+02  0.00000000000E+00 0.  1.
         -6    2    1    2    0  503 -0.30596645186E+03  0.21517088617E+02  0.20746730705E+04  0.21043287165E+04  0.17277888523E+03 0.  0.
        -24    2    3    3    0    0 -0.44604456689E+02  0.15512025264E+02  0.50430005200E+03  0.51233636090E+03  0.77070252149E+02 0.  0.
          6    2    1    2  501    0  0.30596645186E+03 -0.21517088617E+02  0.60077014646E+03  0.69609532016E+03  0.17188796092E+03 0.  0.
         24    2    5    5    0    0  0.22213598954E+03  0.39428157229E+02  0.48420268536E+03  0.54004426316E+03  0.79351044309E+02 0.  0.
          5    1    5    5  501    0  0.83830462317E+02 -0.60945245847E+02  0.11656746110E+03  0.15605105700E+03  0.47000000000E+01 0. -1.
        -11    1    6    6    0    0  0.16676115945E+03  0.20770863525E+02  0.27010259220E+03  0.31811338134E+03  0.00000000000E+00 0.  1.
         12    1    6    6    0    0  0.55374830086E+02  0.18657293704E+02  0.21410009316E+03  0.22193088182E+03  0.00000000000E+00 0. -1.
         -5    1    3    3    0  503 -0.26136199517E+03  0.60050633530E+01  0.15703730185E+04  0.15919923556E+04  0.47000000000E+01 0.  1.
         11    1    4    4    0    0 -0.73460707467E+01 -0.85992006866E+01  0.38309572002E+03  0.38326262759E+03  0.00000000000E+00 0. -1.
        -12    1    4    4    0    0 -0.37258385942E+02  0.24111225951E+02  0.12120433198E+03  0.12907373331E+03  0.00000000000E+00 0.  1.
</event>
<event>
12    1  0.9966151E-001  0.1879861E+03  0.7818608E-02  0.1160459E+00
         21   -1    0    0  501  502  0.00000000000E+00  0.00000000000E+00  0.67151223180E+03  0.67151223180E+03  0.00000000000E+00 0.  1.
         21   -1    0    0  502  503 -0.00000000000E+00 -0.00000000000E+00 -0.58666674107E+02  0.58666674107E+02  0.00000000000E+00 0.  1.
         -6    2    1    2    0  503  0.63601013678E+02 -0.42797031817E+02  0.42501692695E+03  0.46443771222E+03  0.17084005814E+03 0.  0.
        -24    2    3    3    0    0  0.77648709123E+02 -0.51833476765E+01  0.15187032858E+03  0.18831585292E+03  0.79637143574E+02 0.  0.
          6    2    1    2  501    0 -0.63601013678E+02  0.42797031817E+02  0.18782863074E+03  0.26574119368E+03  0.17164531052E+03 0.  0.
         24    2    5    5    0    0 -0.22408144808E+02 -0.16644469877E+02  0.28777654707E+02  0.90957191137E+02  0.81644925610E+02 0.  0.
          5    1    5    5  501    0 -0.41192868870E+02  0.59441501695E+02  0.15905097603E+03  0.17478400255E+03  0.47000000000E+01 0. -1.
        -13    1    6    6    0    0 -0.16789676378E+01  0.32634139949E+02  0.83584025224E+01  0.33729347981E+02  0.00000000000E+00 0.  1.
         14    1    6    6    0    0 -0.20729177170E+02 -0.49278609826E+02  0.20419252184E+02  0.57227843156E+02  0.00000000000E+00 0. -1.
         -5    1    3    3    0  503 -0.14047695445E+02 -0.37613684141E+02  0.27314659837E+03  0.27612185930E+03  0.47000000000E+01 0.  1.
         11    1    4    4    0    0  0.14364811886E+02  0.15551407399E+02 -0.13863197098E+01  0.21215936815E+02  0.00000000000E+00 0. -1.
        -12    1    4    4    0    0  0.63283897237E+02 -0.20734755075E+02  0.15325664829E+03  0.16709991611E+03  0.00000000000E+00 0.  1.
</event>
<event>
12    1  0.9966151E-001  0.2274073E+03  0.7818608E-02  0.1129219E+00
         21   -1    0    0  501  502  0.00000000000E+00  0.00000000000E+00  0.19986977349E+03  0.19986977349E+03  0.00000000000E+00 0.  1.
         21   -1    0    0  502  503 -0.00000000000E+00 -0.00000000000E+00 -0.42554362038E+03  0.42554362038E+03  0.00000000000E+00 0.  1.
         -6    2    1    2    0  503  0.14073623075E+03 -0.24533951034E+02  0.85038214015E+02  0.24278711334E+03  0.17693355578E+03 0.  0.
        -24    2    3    3    0    0  0.87699154274E+02  0.12107511233E+02 -0.17875475079E+02  0.12125997381E+03  0.80911773871E+02 0.  0.
          6    2    1    2  501    0 -0.14073623075E+03  0.24533951034E+02 -0.31071206090E+03  0.38262628053E+03  0.17161667856E+03 0.  0.
         24    2    5    5    0    0 -0.30349429901E+02  0.23974479839E+02 -0.22708890031E+03  0.24406047739E+03  0.80624341253E+02 0.  0.
          5    1    5    5  501    0 -0.11038680085E+03  0.55947119492E+00 -0.83623160592E+02  0.13856580313E+03  0.47000000000E+01 0. -1.
        -11    1    6    6    0    0  0.49581270622E+01  0.14738040783E+01 -0.18367340332E+03  0.18374622230E+03  0.00000000000E+00 0.  1.
         12    1    6    6    0    0 -0.35307556963E+02  0.22500675761E+02 -0.43415496987E+02  0.60314255090E+02  0.00000000000E+00 0. -1.
         -5    1    3    3    0  503  0.53037076480E+02 -0.36641462268E+02  0.10291368909E+03  0.12152713953E+03  0.47000000000E+01 0.  1.
         13    1    4    4    0    0  0.92480644067E+02 -0.13816122049E+02 -0.15621503064E+02  0.94802880302E+02  0.00000000000E+00 0. -1.
        -14    1    4    4    0    0 -0.47814897926E+01  0.25923633282E+02 -0.22539720150E+01  0.26457093511E+02  0.00000000000E+00 0.  1.
</event>
<event>
12    1  0.9966151E-001  0.3470040E+03  0.7818608E-02  0.1063949E+00
         21   -1    0    0  501  502  0.00000000000E+00  0.00000000000E+00  0.21343303098E+03  0.21343303098E+03  0.00000000000E+00 0. -1.
         21   -1    0    0  502  503 -0.00000000000E+00 -0.00000000000E+00 -0.68252931270E+03  0.68252931270E+03  0.00000000000E+00 0.  1.
         -6    2    1    2    0  503  0.26940235314E+03 -0.13323875400E+03 -0.46535348888E+02  0.34918129614E+03  0.17155712003E+03 0.  0.
        -24    2    3    3    0    0  0.19039696009E+03 -0.13811772592E+03 -0.83004076826E+02  0.26190177612E+03  0.79845819796E+02 0.  0.
          6    2    1    2  501    0 -0.26940235314E+03  0.13323875400E+03 -0.42256093282E+03  0.54678104754E+03  0.17344041787E+03 0.  0.
         24    2    5    5    0    0 -0.75212063163E+02  0.60985106808E+02 -0.86847388386E+02  0.15224824513E+03  0.79126617382E+02 0.  0.
          5    1    5    5  501    0 -0.19419028998E+03  0.72253647191E+02 -0.33571354444E+03  0.39453280241E+03  0.47000000000E+01 0. -1.
        -11    1    6    6    0    0 -0.82951232151E+02  0.22737995209E+02 -0.58653869783E+02  0.10410667501E+03  0.00000000000E+00 0.  1.
         12    1    6    6    0    0  0.77391689882E+01  0.38247111599E+02 -0.28193518603E+02  0.48141570119E+02  0.00000000000E+00 0. -1.
         -5    1    3    3    0  503  0.79005393055E+02  0.48789719218E+01  0.36468727937E+02  0.87279520027E+02  0.47000000000E+01 0.  1.
         13    1    4    4    0    0  0.99247704121E+02 -0.82190630059E+02 -0.39638995131E+01  0.12892291861E+03  0.00000000000E+00 0. -1.
        -14    1    4    4    0    0  0.91149255966E+02 -0.55927095863E+02 -0.79040177313E+02  0.13297885751E+03  0.00000000000E+00 0.  1.
</event>
<event>
12    1  0.9966151E-001  0.2047900E+03  0.7818608E-02  0.1145821E+00
         21   -1    0    0  503  502  0.00000000000E+00  0.00000000000E+00  0.33458668264E+02  0.33458668264E+02  0.00000000000E+00 0. -1.
         21   -1    0    0  501  503 -0.00000000000E+00 -0.00000000000E+00 -0.12848272809E+04  0.12848272809E+04  0.00000000000E+00 0. -1.
          6    2    1    2  501    0 -0.44761616629E+02  0.10073320143E+03 -0.51926089027E+03  0.55807501986E+03  0.17223552314E+03 0.  0.
         24    2    3    3    0    0  0.27982617757E+01 -0.26293402724E+02 -0.17291845769E+03  0.18608997876E+03  0.63478452161E+02 0.  0.
         -6    2    1    2    0  502  0.44761616629E+02 -0.10073320143E+03 -0.73210772237E+03  0.76021092930E+03  0.17259246708E+03 0.  0.
        -24    2    5    5    0    0  0.81942949294E+01 -0.11867647581E+03 -0.67438825873E+03  0.68941010591E+03  0.79595968677E+02 0.  0.
          5    1    3    3  501    0 -0.47559878405E+02  0.12702660415E+03 -0.34634243257E+03  0.37198504109E+03  0.47000000000E+01 0. -1.
        -13    1    4    4    0    0 -0.28988870752E+02 -0.22523352886E+02 -0.89004145549E+02  0.96277692003E+02  0.00000000000E+00 0.  1.
         14    1    4    4    0    0  0.31787132527E+02 -0.37700498387E+01 -0.83914312145E+02  0.89812286759E+02  0.00000000000E+00 0. -1.
         -5    1    5    5    0  502  0.36567321700E+02  0.17943274377E+02 -0.57719463630E+02  0.70800823395E+02  0.47000000000E+01 0.  1.
         13    1    6    6    0    0 -0.18027096057E+02 -0.12870012859E+02 -0.25939762273E+03  0.26034158350E+03  0.00000000000E+00 0. -1.
        -14    1    6    6    0    0  0.26221390987E+02 -0.10580646295E+03 -0.41499063600E+03  0.42906852240E+03  0.00000000000E+00 0.  1.
</event>
<event>
12    1  0.9966151E-001  0.2375092E+03  0.7818608E-02  0.1121633E+00
         21   -1    0    0  503  502  0.00000000000E+00  0.00000000000E+00  0.87221837958E+02  0.87221837958E+02  0.00000000000E+00 0.  1.
         21   -1    0    0  501  503 -0.00000000000E+00 -0.00000000000E+00 -0.70009255696E+03  0.70009255696E+03  0.00000000000E+00 0.  1.
          6    2    1    2  501    0  0.16172974832E+03  0.13237607275E+02 -0.19562869845E+03  0.30770312355E+03  0.17343263489E+03 0.  0.
         24    2    3    3    0    0  0.90351375620E+02  0.16630396309E+02 -0.20277048139E+03  0.23573453199E+03  0.77556175081E+02 0.  0.
         -6    2    1    2    0  502 -0.16172974832E+03 -0.13237607275E+02 -0.41724202055E+03  0.47961127137E+03  0.17205906594E+03 0.  0.
        -24    2    5    5    0    0 -0.85189809667E+01 -0.14145787733E+02 -0.17784739497E+03  0.19534688602E+03  0.79107734321E+02 0.  0.
          5    1    3    3  501    0  0.71378372704E+02 -0.33927890341E+01  0.71417829368E+01  0.71968591558E+02  0.47000000000E+01 0. -1.
        -11    1    4    4    0    0  0.52411823380E+02  0.45221795083E+02 -0.14692537091E+03  0.16241636186E+03  0.00000000000E+00 0.  1.
         12    1    4    4    0    0  0.37939552241E+02 -0.28591398775E+02 -0.55845110475E+02  0.73318170136E+02  0.00000000000E+00 0. -1.
         -5    1    5    5    0  502 -0.15321076736E+03  0.90818045792E+00 -0.23939462558E+03  0.28426438536E+03  0.47000000000E+01 0.  1.
         13    1    6    6    0    0 -0.16450968551E+02  0.30174303792E+02 -0.59326404369E+02  0.68561980944E+02  0.00000000000E+00 0. -1.
        -14    1    6    6    0    0  0.79319875844E+01 -0.44320091525E+02 -0.11852099061E+03  0.12678490507E+03  0.00000000000E+00 0.  1.
</event>
<event>
12    1  0.9966151E-001  0.2432481E+03  0.7818608E-02  0.1117753E+00
         21   -1    0    0  503  502  0.00000000000E+00  0.00000000000E+00  0.10097467924E+04  0.10097467924E+04  0.00000000000E+00 0.  1.
         21   -1    0    0  501  503 -0.00000000000E+00 -0.00000000000E+00 -0.59704846065E+02  0.59704846065E+02  0.00000000000E+00 0.  1.
          6    2    1    2  501    0  0.13190939050E+02  0.16986917871E+03  0.55213159693E+03  0.60308022437E+03  0.17270471316E+03 0.  0.
         24    2    3    3    0    0  0.68008127920E+02  0.10842948930E+03  0.42883490233E+03  0.45474302563E+03  0.80683246639E+02 0.  0.
         -6    2    1    2    0  502 -0.13190939050E+02 -0.16986917871E+03  0.39791034943E+03  0.46637141412E+03  0.17360907516E+03 0.  0.
        -24    2    5    5    0    0  0.52345183564E+02 -0.11789140168E+03  0.31761701684E+03  0.35032925829E+03  0.72191543774E+02 0.  0.
          5    1    3    3  501    0 -0.54817188870E+02  0.61439689414E+02  0.12329669460E+03  0.14833719874E+03  0.47000000000E+01 0. -1.
        -13    1    4    4    0    0 -0.44207155892E+01  0.22125034240E+02  0.18368439305E+02  0.29093975819E+02  0.00000000000E+00 0.  1.
         14    1    4    4    0    0  0.72428843509E+02  0.86304455057E+02  0.41046646303E+03  0.42564904981E+03  0.00000000000E+00 0. -1.
         -5    1    5    5    0  502 -0.65536122614E+02 -0.51977777032E+02  0.80293332584E+02  0.11604215583E+03  0.47000000000E+01 0.  1.
         13    1    6    6    0    0  0.27540496535E+02 -0.61743489915E+02  0.79172819926E+02  0.10411086836E+03  0.00000000000E+00 0. -1.
        -14    1    6    6    0    0  0.24804687029E+02 -0.56147911765E+02  0.23844419692E+03  0.24621838993E+03  0.00000000000E+00 0.  1.
</event>
<event>
12    1  0.9966151E-001  0.2331492E+03  0.7818608E-02  0.1124921E+00
         21   -1    0    0  501  502  0.00000000000E+00  0.00000000000E+00  0.70674177517E+03  0.70674177517E+03  0.00000000000E+00 0.  1.
         21   -1    0    0  502  503 -0.00000000000E+00 -0.00000000000E+00 -0.30116315101E+03  0.30116315101E+03  0.00000000000E+00 0.  1.
         -6    2    1    2    0  503 -0.79293607837E+02 -0.13553616747E+03  0.63883044191E+03  0.68004623259E+03  0.17233982709E+03 0.  0.
        -24    2    3    3    0    0 -0.96815253244E+02 -0.14866254208E+03  0.62274828114E+03  0.65247748827E+03  0.80235318604E+02 0.  0.
          6    2    1    2  501    0  0.79293607837E+02  0.13553616747E+03 -0.23325181776E+03  0.32785869359E+03  0.16860422159E+03 0.  0.
         24    2    5    5    0    0  0.94806609542E+02  0.13007431491E+03 -0.24673157153E+03  0.30608075023E+03  0.83074283977E+02 0.  0.
          5    1    5    5  501    0 -0.15513001705E+02  0.54618525606E+01  0.13479753772E+02  0.21777943361E+02  0.47000000000E+01 0. -1.
        -13    1    6    6    0    0 -0.10943653275E+02  0.40368982095E+02 -0.46828939628E+02  0.62788277959E+02  0.00000000000E+00 0.  1.
         14    1    6    6    0    0  0.10575026282E+03  0.89705332813E+02 -0.19990263191E+03  0.24329247227E+03  0.00000000000E+00 0. -1.
         -5    1    3    3    0  503  0.17521645408E+02  0.13126374611E+02  0.16082160775E+02  0.27568744320E+02  0.47000000000E+01 0.  1.
         13    1    4    4    0    0 -0.25620312984E+02 -0.34526476775E+02  0.59622001915E+02  0.73506878237E+02  0.00000000000E+00 0. -1.
        -14    1    4    4    0    0 -0.71194940261E+02 -0.11413606531E+03  0.56312627923E+03  0.57897061003E+03  0.00000000000E+00 0.  1.
</event>
<event>
12    1  0.9966151E-001  0.1858334E+03  0.7818608E-02  0.1163147E+00
         21   -1    0    0  503  502  0.00000000000E+00  0.00000000000E+00  0.48139871162E+02  0.48139871162E+02  0.00000000000E+00 0. -1.
         21   -1    0    0  501  503 -0.00000000000E+00 -0.00000000000E+00 -0.13441163854E+04  0.13441163854E+04  0.00000000000E+00 0. -1.
          6    2    1    2  501    0  0.62326251606E+02 -0.10075368065E+02 -0.11252906133E+04  0.11399316191E+04  0.17081878483E+03 0.  0.
         24    2    3    3    0    0  0.37508966388E+02  0.60775650103E+02 -0.66430373656E+03  0.67284837715E+03  0.79529126861E+02 0.  0.
         -6    2    1    2    0  502 -0.62326251606E+02  0.10075368065E+02 -0.17068590100E+03  0.25232463749E+03  0.17477977915E+03 0.  0.
        -24    2    5    5    0    0 -0.22290781445E+01 -0.12919820728E+02 -0.11919887331E+02  0.80950234313E+02  0.78987126574E+02 0.  0.
          5    1    3    3  501    0  0.24817285219E+02 -0.70851018168E+02 -0.46098687669E+03  0.46708324194E+03  0.47000000000E+01 0. -1.
        -13    1    4    4    0    0  0.36628772961E+02  0.44604124311E+02 -0.19742088575E+03  0.20568471271E+03  0.00000000000E+00 0.  1.
         14    1    4    4    0    0  0.88019342694E+00  0.16171525792E+02 -0.46688285081E+03  0.46716366444E+03  0.00000000000E+00 0. -1.
         -5    1    5    5    0  502 -0.60097173462E+02  0.22995188793E+02 -0.15876601367E+03  0.17137440317E+03  0.47000000000E+01 0.  1.
         13    1    6    6    0    0  0.33619001938E+02  0.49730550028E+01  0.98087448723E+01  0.35372023456E+02  0.00000000000E+00 0. -1.
        -14    1    6    6    0    0 -0.35848080083E+02 -0.17892875731E+02 -0.21728632203E+02  0.45578210858E+02  0.00000000000E+00 0.  1.
</event>
<event>
12    1  0.9966151E-001  0.1875644E+03  0.7818608E-02  0.1160685E+00
         21   -1    0    0  501  502  0.00000000000E+00  0.00000000000E+00  0.28122732097E+03  0.28122732097E+03  0.00000000000E+00 0. -1.
         21   -1    0    0  502  503 -0.00000000000E+00 -0.00000000000E+00 -0.14187262738E+03  0.14187262738E+03  0.00000000000E+00 0. -1.
         -6    2    1    2    0  503  0.45605836658E+02 -0.58288104974E+02  0.14247070672E+03  0.23550962788E+03  0.17230637549E+03 0.  0.
        -24    2    3    3    0    0  0.81998499851E+02 -0.43260836820E+02  0.47238636927E+02  0.13235206956E+03  0.81794422289E+02 0.  0.
          6    2    1    2  501    0 -0.45605836658E+02  0.58288104974E+02 -0.31160131386E+01  0.18759032047E+03  0.17234565059E+03 0.  0.
         24    2    5    5    0    0 -0.37280358597E+02  0.47896746154E+02 -0.67986817973E+02  0.12120052273E+03  0.79896407075E+02 0.  0.
          5    1    5    5  501    0 -0.83254780604E+01  0.10391358820E+02  0.64870804834E+02  0.66389797732E+02  0.47000000000E+01 0. -1.
        -13    1    6    6    0    0 -0.21093610228E+02  0.51185353252E+02 -0.44366094327E+01  0.55538853816E+02  0.00000000000E+00 0.  1.
         14    1    6    6    0    0 -0.16186748369E+02 -0.32886070982E+01 -0.63550208540E+02  0.65661668917E+02  0.00000000000E+00 0. -1.
         -5    1    3    3    0  503 -0.36392663193E+02 -0.15027268154E+02  0.95232069794E+02  0.10315755833E+03  0.47000000000E+01 0.  1.
         11    1    4    4    0    0  0.50399615454E+02 -0.46322782306E+02  0.66320529005E+02  0.95311772442E+02  0.00000000000E+00 0. -1.
        -12    1    4    4    0    0  0.31598884397E+02  0.30619454862E+01 -0.19081892078E+02  0.37040297117E+02  0.00000000000E+00 0.  1.
</event>
<event>
12    1  0.9966151E-001  0.1773192E+03  0.7818608E-02  0.1170636E+00
         21   -1    0    0  501  502  0.00000000000E+00  0.00000000000E+00  0.80556147594E+02  0.80556147594E+02  0.00000000000E+00 0.  1.
         21   -1    0    0  502  503 -0.00000000000E+00 -0.00000000000E+00 -0.39907896544E+03  0.39907896544E+03  0.00000000000E+00 0.  1.
         -6    2    1    2    0  503  0.36873259499E+02  0.27780631680E+02 -0.12044505134E+03  0.21435744546E+03  0.17120368941E+03 0.  0.
        -24    2    3    3    0    0  0.99048650303E+00  0.57098650594E+02 -0.13353363503E+03  0.16597851767E+03  0.80351724806E+02 0.  0.
          6    2    1    2  501    0 -0.36873259499E+02 -0.27780631680E+02 -0.19807776650E+03  0.26527766757E+03  0.17031159259E+03 0.  0.
         24    2    5    5    0    0  0.37912017124E+02  0.79226588013E+01 -0.13588605091E+03  0.16155948191E+03  0.78334907906E+02 0.  0.
          5    1    5    5  501    0 -0.74785276622E+02 -0.35703290481E+02 -0.62191715588E+02  0.10371818567E+03  0.47000000000E+01 0. -1.
        -13    1    6    6    0    0 -0.96292634412E+01 -0.17294074750E+02 -0.55607360012E+01  0.20560387174E+02  0.00000000000E+00 0.  1.
         14    1    6    6    0    0  0.47541280565E+02  0.25216733551E+02 -0.13032531491E+03  0.14099909473E+03  0.00000000000E+00 0. -1.
         -5    1    3    3    0  503  0.35882772996E+02 -0.29318018915E+02  0.13088583689E+02  0.48378927788E+02  0.47000000000E+01 0.  1.
         13    1    4    4    0    0  0.40230884332E+02  0.35531259819E+02 -0.76969640860E+02  0.93836667101E+02  0.00000000000E+00 0. -1.
        -14    1    4    4    0    0 -0.39240397829E+02  0.21567390775E+02 -0.56563994171E+02  0.72141850567E+02  0.00000000000E+00 0.  1.
</event>
<event>
12    1  0.9966151E-001  0.1871317E+03  0.7818608E-02  0.1161286E+00
         21   -1    0    0  501  502  0.00000000000E+00  0.00000000000E+00  0.11489705072E+03  0.11489705072E+03  0.00000000000E+00 0.  1.
         21   -1    0    0  502  503 -0.00000000000E+00 -0.00000000000E+00 -0.38466144514E+03  0.38466144514E+03  0.00000000000E+00 0.  1.
         -6    2    1    2    0  503  0.73861376263E+02  0.23410030620E+01 -0.20260024758E+02  0.18822525217E+03  0.17192234803E+03 0.  0.
        -24    2    3    3    0    0  0.56513453524E+02 -0.37120223715E+02  0.46934995747E+02  0.10825400970E+03  0.70316110191E+02 0.  0.
          6    2    1    2  501    0 -0.73861376263E+02 -0.23410030620E+01 -0.24950436966E+03  0.31133324369E+03  0.17092388641E+03 0.  0.
         24    2    5    5    0    0 -0.53810739447E+02  0.55176508912E+02 -0.99687370225E+02  0.14953857276E+03  0.80524345050E+02 0.  0.
          5    1    5    5  501    0 -0.20050636816E+02 -0.57517511974E+02 -0.14981699943E+03  0.16179467092E+03  0.47000000000E+01 0. -1.
        -13    1    6    6    0    0 -0.40668836132E+02 -0.12251980100E+02 -0.32887724885E+02  0.53718411154E+02  0.00000000000E+00 0.  1.
         14    1    6    6    0    0 -0.13141903314E+02  0.67428489012E+02 -0.66799645340E+02  0.95820161608E+02  0.00000000000E+00 0. -1.
         -5    1    3    3    0  503  0.17347922739E+02  0.39461226777E+02 -0.67195020504E+02  0.79971242473E+02  0.47000000000E+01 0.  1.
         13    1    4    4    0    0  0.43432297222E+01 -0.28178274513E+02 -0.10282267675E+02  0.30308477816E+02  0.00000000000E+00 0. -1.
        -14    1    4    4    0    0  0.52170223801E+02 -0.89419492013E+01  0.57217263422E+02  0.77945531883E+02  0.00000000000E+00 0.  1.
</event>
<event>
12    1  0.9966151E-001  0.1830191E+03  0.7818608E-02  0.1165482E+00
         21   -1    0    0  503  502  0.00000000000E+00  0.00000000000E+00  0.41921768673E+03  0.41921768673E+03  0.00000000000E+00 0. -1.
         21   -1    0    0  501  503 -0.00000000000E+00 -0.00000000000E+00 -0.80184339435E+02  0.80184339435E+02  0.00000000000E+00 0. -1.
          6    2    1    2  501    0 -0.58999914673E+02  0.79029788570E+01  0.13635199297E+03  0.22631647981E+03  0.17053983711E+03 0.  0.
         24    2    3    3    0    0  0.11319991739E+02 -0.34299429993E+02  0.10919819660E+03  0.13979855561E+03  0.79465696370E+02 0.  0.
         -6    2    1    2    0  502  0.58999914673E+02 -0.79029788570E+01  0.20268135432E+03  0.27308554635E+03  0.17306801331E+03 0.  0.
        -24    2    5    5    0    0 -0.19467421442E+02 -0.26823126826E+02  0.44767236181E+02  0.95676263777E+02  0.77790625301E+02 0.  0.
          5    1    3    3  501    0 -0.70319906411E+02  0.42202408851E+02  0.27153796373E+02  0.86517924200E+02  0.47000000000E+01 0. -1.
        -11    1    4    4    0    0 -0.20296417856E+01 -0.36283868276E+01 -0.12716127201E+02  0.13378509923E+02  0.00000000000E+00 0.  1.
         12    1    4    4    0    0  0.13349633524E+02 -0.30671043166E+02  0.12191432380E+03  0.12642004569E+03  0.00000000000E+00 0. -1.
         -5    1    5    5    0  502  0.78467336115E+02  0.18920147969E+02  0.15791411814E+03  0.17740928258E+03  0.47000000000E+01 0.  1.
         13    1    6    6    0    0 -0.25762037350E+02  0.22677031865E+02  0.14082803171E+02  0.37097920262E+02  0.00000000000E+00 0. -1.
        -14    1    6    6    0    0  0.62946159079E+01 -0.49500158690E+02  0.30684433010E+02  0.58578343515E+02  0.00000000000E+00 0.  1.
</event>
<event>
12    1  0.9966151E-001  0.1885615E+03  0.7818608E-02  0.1160704E+00
         21   -1    0    0  503  502  0.00000000000E+00  0.00000000000E+00  0.72687237572E+02  0.72687237572E+02  0.00000000000E+00 0. -1.
         21   -1    0    0  501  503 -0.00000000000E+00 -0.00000000000E+00 -0.66070494207E+03  0.66070494207E+03  0.00000000000E+00 0. -1.
          6    2    1    2  501    0 -0.23502516783E+00  0.75132997474E+02 -0.10385225614E+03  0.21526899379E+03  0.17294630970E+03 0.  0.
         24    2    3    3    0    0  0.52940965228E+01  0.82819128564E+02 -0.46031747789E+01  0.11545858377E+03  0.80140251027E+02 0.  0.
         -6    2    1    2    0  502  0.23502516783E+00 -0.75132997474E+02 -0.48416544836E+03  0.51812318585E+03  0.16849460461E+03 0.  0.
        -24    2    5    5    0    0  0.48172147441E+02 -0.15515481873E+02 -0.15367349109E+03  0.17886039733E+03  0.76250992782E+02 0.  0.
          5    1    3    3  501    0 -0.55291216906E+01 -0.76861310899E+01 -0.99249081359E+02  0.99810410020E+02  0.47000000000E+01 0. -1.
        -13    1    4    4    0    0  0.12341171317E+02  0.69945723378E+02 -0.36859282144E+02  0.80020718620E+02  0.00000000000E+00 0.  1.
         14    1    4    4    0    0 -0.70470747941E+01  0.12873405186E+02  0.32256107365E+02  0.35437865152E+02  0.00000000000E+00 0. -1.
         -5    1    5    5    0  502 -0.47937122273E+02 -0.59617515602E+02 -0.33049195727E+03  0.33926278852E+03  0.47000000000E+01 0.  1.
         11    1    6    6    0    0  0.30384393794E+02  0.61545014157E+01 -0.14674155441E+03  0.14998057562E+03  0.00000000000E+00 0. -1.
        -12    1    6    6    0    0  0.17787753646E+02 -0.21669983289E+02 -0.69319366865E+01  0.28879821705E+02  0.00000000000E+00 0.  1.
</event>
<event>
12    1  0.9966151E-001  0.5571181E+03  0.7818608E-02  0.9998854E-01
         21   -1    0    0  503  502  0.00000000000E+00  0.00000000000E+00  0.45404946036E+03  0.45404946036E+03  0.00000000000E+00 0. -1.
         21   -1    0    0  501  503 -0.00000000000E+00 -0.00000000000E+00 -0.86680832119E+03  0.86680832119E+03  0.00000000000E+00 0. -1.
          6    2    1    2  501    0 -0.42915613740E+03 -0.31080695089E+03  0.97782969702E+02  0.56519020045E+03  0.17059455597E+03 0.  0.
         24    2    3    3    0    0 -0.38342529875E+03 -0.30217724756E+03  0.12480760866E+03  0.51116981083E+03  0.85974343070E+02 0.  0.
         -6    2    1    2    0  502  0.42915613740E+03  0.31080695089E+03 -0.51054183053E+03  0.75566758110E+03  0.17205981929E+03 0.  0.
        -24    2    5    5    0    0  0.12092693050E+03  0.14005652558E+03 -0.19931917551E+03  0.28551592182E+03  0.86902560413E+02 0.  0.
          5    1    3    3  501    0 -0.45730838657E+02 -0.86297033367E+01 -0.27024638957E+02  0.54020389620E+02  0.47000000000E+01 0. -1.
        -13    1    4    4    0    0 -0.91212920203E+02 -0.83177164719E+02 -0.51860251459E+01  0.12355214446E+03  0.00000000000E+00 0.  1.
         14    1    4    4    0    0 -0.29221237854E+03 -0.21900008284E+03  0.12999363381E+03  0.38761766637E+03  0.00000000000E+00 0. -1.
         -5    1    5    5    0  502  0.30822920690E+03  0.17075042532E+03 -0.31122265502E+03  0.47015165929E+03  0.47000000000E+01 0.  1.
         11    1    6    6    0    0  0.65006099685E+02  0.35965183828E+02 -0.32504116661E+02  0.81091337663E+02  0.00000000000E+00 0. -1.
        -12    1    6    6    0    0  0.55920830812E+02  0.10409134175E+03 -0.16681505885E+03  0.20442458415E+03  0.00000000000E+00 0.  1.
</event>
<event>
12    1  0.9966151E-001  0.1796870E+03  0.7818608E-02  0.1168182E+00
         21   -1    0    0  503  502  0.00000000000E+00  0.00000000000E+00  0.40378669443E+02  0.40378669443E+02  0.00000000000E+00 0. -1.
         21   -1    0    0  501  503 -0.00000000000E+00 -0.00000000000E+00 -0.93178312840E+03  0.93178312840E+03  0.00000000000E+00 0. -1.
          6    2    1    2  501    0 -0.49214566252E+02  0.19282188601E+02 -0.26200859961E+03  0.31770415881E+03  0.17173686245E+03 0.  0.
         24    2    3    3    0    0 -0.65477179056E+01  0.10220888050E+02 -0.26165109498E+03  0.27383178795E+03  0.79844933625E+02 0.  0.
         -6    2    1    2    0  502  0.49214566252E+02 -0.19282188601E+02 -0.62939585934E+03  0.65445763903E+03  0.17141113499E+03 0.  0.
        -24    2    5    5    0    0  0.18486716833E+01 -0.37817307933E+02 -0.14865083988E+03  0.17100656357E+03  0.75581784999E+02 0.  0.
          5    1    3    3  501    0 -0.42666848346E+02  0.90613005509E+01 -0.35750463519E+00  0.43872370862E+02  0.47000000000E+01 0. -1.
        -13    1    4    4    0    0 -0.38536711564E+02  0.24033669924E+02 -0.13274104894E+03  0.14029569310E+03  0.00000000000E+00 0.  1.
         14    1    4    4    0    0  0.31988993658E+02 -0.13812781874E+02 -0.12891004604E+03  0.13353609485E+03  0.00000000000E+00 0. -1.
         -5    1    5    5    0  502  0.47365894569E+02  0.18535119332E+02 -0.48074501947E+03  0.48345107546E+03  0.47000000000E+01 0.  1.
         11    1    6    6    0    0  0.17778917686E+02  0.10008304973E+02 -0.95886434668E+02  0.98032976268E+02  0.00000000000E+00 0. -1.
        -12    1    6    6    0    0 -0.15930246003E+02 -0.47825612906E+02 -0.52764405207E+02  0.72973587307E+02  0.00000000000E+00 0.  1.
</event>
<event>
12    1  0.9966151E-001  0.3504519E+03  0.7818608E-02  0.1062456E+00
         21   -1    0    0  503  502  0.00000000000E+00  0.00000000000E+00  0.52491189893E+03  0.52491189893E+03  0.00000000000E+00 0. -1.
         21   -1    0    0  501  503 -0.00000000000E+00 -0.00000000000E+00 -0.23543223398E+03  0.23543223398E+03  0.00000000000E+00 0. -1.
          6    2    1    2  501    0  0.27978030798E+03 -0.12187283762E+03  0.17638347691E+03  0.39233617671E+03  0.17229781005E+03 0.  0.
         24    2    3    3    0    0  0.13094676405E+03 -0.11746199873E+03  0.13989286388E+03  0.23895907888E+03  0.81160654601E+02 0.  0.
         -6    2    1    2    0  502 -0.27978030798E+03  0.12187283762E+03  0.11309618804E+03  0.36800795619E+03  0.17178212591E+03 0.  0.
        -24    2    5    5    0    0 -0.19885118697E+03  0.84117309861E+02  0.14947512914E+03  0.27146511668E+03  0.68796649373E+02 0.  0.
          5    1    3    3  501    0  0.14883354394E+03 -0.44108388923E+01  0.36490613026E+02  0.15337709783E+03  0.47000000000E+01 0. -1.
        -13    1    4    4    0    0  0.13108970102E+03 -0.11228086331E+03  0.10153370110E+03  0.20025132818E+03  0.00000000000E+00 0.  1.
         14    1    4    4    0    0 -0.14293697019E+00 -0.51811354165E+01  0.38359162778E+02  0.38707750699E+02  0.00000000000E+00 0. -1.
         -5    1    5    5    0  502 -0.80929121011E+02  0.37755527762E+02 -0.36378941101E+02  0.96542839506E+02  0.47000000000E+01 0.  1.
         11    1    6    6    0    0 -0.71630462320E+02 -0.40506487657E+01  0.50620421171E+02  0.87805227219E+02  0.00000000000E+00 0. -1.
        -12    1    6    6    0    0 -0.12722072465E+03  0.88167958627E+02  0.98854707971E+02  0.18365988946E+03  0.00000000000E+00 0.  1.
</event>
<event>
12    1  0.9966151E-001  0.2499684E+03  0.7818608E-02  0.1113456E+00
         21   -1    0    0  503  502  0.00000000000E+00  0.00000000000E+00  0.13543120619E+04  0.13543120619E+04  0.00000000000E+00 0.  1.
         21   -1    0    0  501  503 -0.00000000000E+00 -0.00000000000E+00 -0.10484609172E+03  0.10484609172E+03  0.00000000000E+00 0. -1.
          6    2    1    2  501    0  0.71193211239E+02 -0.16728314196E+03  0.11709328504E+04  0.11971435758E+04  0.17034341202E+03 0.  0.
         24    2    3    3    0    0  0.98108161439E+01 -0.89059604539E+02  0.34241668985E+03  0.36266898749E+03  0.79067943737E+02 0.  0.
         -6    2    1    2    0  502 -0.71193211239E+02  0.16728314196E+03  0.78533119819E+02  0.26201457786E+03  0.17155776051E+03 0.  0.
        -24    2    5    5    0    0 -0.18697020033E+02  0.16118590470E+03  0.18183230077E+02  0.18165771390E+03  0.79614199299E+02 0.  0.
          5    1    3    3  501    0  0.61382395095E+02 -0.78223537416E+02  0.82851616056E+03  0.83447458831E+03  0.47000000000E+01 0. -1.
        -13    1    4    4    0    0 -0.29135637563E+02 -0.69581395710E+02  0.20046924409E+03  0.21419237575E+03  0.00000000000E+00 0.  1.
         14    1    4    4    0    0  0.38946453707E+02 -0.19478208829E+02  0.14194744576E+03  0.14847661174E+03  0.00000000000E+00 0. -1.
         -5    1    5    5    0  502 -0.52496191206E+02  0.60972372507E+01  0.60349889742E+02  0.80356863957E+02  0.47000000000E+01 0.  1.
         13    1    6    6    0    0 -0.37360457370E+02  0.94030612510E+02  0.39731840851E+02  0.10870224948E+03  0.00000000000E+00 0. -1.
        -14    1    6    6    0    0  0.18663437337E+02  0.67155292194E+02 -0.21548610774E+02  0.72955464423E+02  0.00000000000E+00 0.  1.
</event>
<event>
12    1  0.9966151E-001  0.1830862E+03  0.7818608E-02  0.1165006E+00
         21   -1    0    0  501  502  0.00000000000E+00  0.00000000000E+00  0.43476996789E+02  0.43476996789E+02  0.00000000000E+00 0.  1.
         21   -1    0    0  502  503 -0.00000000000E+00 -0.00000000000E+00 -0.11012428185E+04  0.11012428185E+04  0.00000000000E+00 0.  1.
         -6    2    1    2    0  503  0.30928566474E+01  0.69116235091E+02 -0.21346116911E+03  0.28079222220E+03  0.16879568008E+03 0.  0.
        -24    2    3    3    0    0 -0.49333675907E+02  0.83509610771E+02 -0.16739498496E+03  0.20937868076E+03  0.80066749008E+02 0.  0.
          6    2    1    2  501    0 -0.30928566474E+01 -0.69116235091E+02 -0.84430465256E+03  0.86392759305E+03  0.16951082556E+03 0.  0.
         24    2    5    5    0    0 -0.66682433181E+02 -0.44118576386E+02 -0.46369710109E+03  0.47720713145E+03  0.79489930611E+02 0.  0.
          5    1    5    5  501    0  0.63589576534E+02 -0.24997658705E+02 -0.38060755148E+03  0.38672046161E+03  0.47000000000E+01 0. -1.
        -13    1    6    6    0    0 -0.13153136843E+00  0.13420565048E+02 -0.15705471914E+02  0.20658913688E+02  0.00000000000E+00 0.  1.
         14    1    6    6    0    0 -0.66550901813E+02 -0.57539141434E+02 -0.44799162917E+03  0.45654821776E+03  0.00000000000E+00 0. -1.
         -5    1    3    3    0  503  0.52426532554E+02 -0.14393375680E+02 -0.46066184153E+02  0.71413541444E+02  0.47000000000E+01 0.  1.
         11    1    4    4    0    0 -0.51809855644E+02  0.15263082754E+02 -0.50198701272E+02  0.73736913730E+02  0.00000000000E+00 0. -1.
        -12    1    4    4    0    0  0.24761797371E+01  0.68246528017E+02 -0.11719628368E+03  0.13564176703E+03  0.00000000000E+00 0.  1.
</event>
<event>
12    1  0.9966151E-001  0.2376039E+03  0.7818608E-02  0.1121654E+00
         21   -1    0    0  501  502  0.00000000000E+00  0.00000000000E+00  0.17311601786E+02  0.17311601786E+02  0.00000000000E+00 0.  1.
         21   -1    0    0  502  503 -0.00000000000E+00 -0.00000000000E+00 -0.41920485842E+04  0.41920485842E+04  0.00000000000E+00 0. -1.
         -6    2    1    2    0  503 -0.65365211602E+02  0.14784744620E+03 -0.10795370696E+04  0.11050538069E+04  0.17208182144E+03 0.  0.
        -24    2    3    3    0    0  0.31946863705E+02  0.73380514775E+02 -0.55104459048E+03  0.56252145362E+03  0.79843240351E+02 0.  0.
          6    2    1    2  501    0  0.65365211602E+02 -0.14784744620E+03 -0.30951999128E+04  0.31043063791E+04  0.17413821151E+03 0.  0.
         24    2    5    5    0    0  0.81620689214E+02 -0.16987259553E+03 -0.24808152384E+04  0.24892942118E+04  0.81380527138E+02 0.  0.
          5    1    5    5  501    0 -0.16255477612E+02  0.22025149327E+02 -0.61438467444E+03  0.61501216731E+03  0.47000000000E+01 0. -1.
        -13    1    6    6    0    0  0.82970767697E+02 -0.80571006246E+02 -0.13306489228E+04  0.13356655236E+04  0.00000000000E+00 0.  1.
         14    1    6    6    0    0 -0.13500784834E+01 -0.89301589282E+02 -0.11501663156E+04  0.11536286881E+04  0.00000000000E+00 0. -1.
         -5    1    3    3    0  503 -0.97312075306E+02  0.74466931426E+02 -0.52849247912E+03  0.54253235329E+03  0.47000000000E+01 0.  1.
         13    1    4    4    0    0  0.21073090583E+02 -0.13586271636E+02 -0.14143254253E+03  0.14363782932E+03  0.00000000000E+00 0. -1.
        -14    1    4    4    0    0  0.10873773121E+02  0.86966786411E+02 -0.40961204795E+03  0.41888362430E+03  0.00000000000E+00 0.  1.
</event>
<event>
12    1  0.9966151E-001  0.2515772E+03  0.7818608E-02  0.1112333E+00
         21   -1    0    0  503  502  0.00000000000E+00  0.00000000000E+00  0.12626570408E+04  0.12626570408E+04  0.00000000000E+00 0.  1.
         21   -1    0    0  501  503 -0.00000000000E+00 -0.00000000000E+00 -0.52434806229E+02  0.52434806229E+02  0.00000000000E+00 0.  1.
          6    2    1    2  501    0 -0.13259407894E+03 -0.12612002007E+03  0.46614686394E+03  0.52963704700E+03  0.17243855009E+03 0.  0.
         24    2    3    3    0    0 -0.15783719213E+03 -0.13163163654E+03  0.44215934526E+03  0.49406903142E+03  0.79748694331E+02 0.  0.
         -6    2    1    2    0  502  0.13259407894E+03  0.12612002007E+03  0.74407537064E+03  0.78545480004E+03  0.17263729749E+03 0.  0.
        -24    2    5    5    0    0  0.31335034703E+02  0.26383587673E+02  0.14656186033E+03  0.17125187349E+03  0.78542008957E+02 0.  0.
          5    1    3    3  501    0  0.25243113193E+02  0.55116164651E+01  0.23987518677E+02  0.35568015576E+02  0.47000000000E+01 0. -1.
        -11    1    4    4    0    0  0.13274418020E+01 -0.30982926541E+02  0.46678952391E+02  0.56041310077E+02  0.00000000000E+00 0.  1.
         12    1    4    4    0    0 -0.15916463393E+03 -0.10064871000E+03  0.39548039287E+03  0.43802772134E+03  0.00000000000E+00 0. -1.
         -5    1    5    5    0  502  0.10125904423E+03  0.99736432401E+02  0.59751351030E+03  0.61420292655E+03  0.47000000000E+01 0.  1.
         11    1    6    6    0    0  0.36689773191E+02  0.11818944113E+02  0.15040449463E+03  0.15526538217E+03  0.00000000000E+00 0. -1.
        -12    1    6    6    0    0 -0.53547384883E+01  0.14564643560E+02 -0.38426342952E+01  0.15986491317E+02  0.00000000000E+00 0.  1.
</event>
<event>
12    1  0.9966151E-001  0.3148397E+03  0.7818608E-02  0.1078200E+00
         21   -1    0    0  503  502  0.00000000000E+00  0.00000000000E+00  0.96496293172E+02  0.96496293172E+02  0.00000000000E+00 0. -1.
         21   -1    0    0  501  503 -0.00000000000E+00 -0.00000000000E+00 -0.10764981986E+04  0.10764981986E+04  0.00000000000E+00 0. -1.
          6    2    1    2  501    0 -0.39675869843E+02 -0.26059707556E+03 -0.35834976885E+03  0.47616209277E+03  0.16979626414E+03 0.  0.
         24    2    3    3    0    0 -0.22284313439E+02 -0.26651601928E+03 -0.36155861161E+03  0.45692965140E+03  0.80825104616E+02 0.  0.
         -6    2    1    2    0  502  0.39675869843E+02  0.26059707556E+03 -0.62165213659E+03  0.69683239902E+03  0.17215981806E+03 0.  0.
        -24    2    5    5    0    0 -0.23253521751E+02  0.77536758229E+02 -0.15220033258E+03  0.18901523271E+03  0.77518654585E+02 0.  0.
          5    1    3    3  501    0 -0.17391556404E+02  0.59189437255E+01  0.32088427661E+01  0.19232441365E+02  0.47000000000E+01 0. -1.
        -11    1    4    4    0    0 -0.35611326519E+02 -0.10436402871E+03 -0.99802467312E+02  0.14872978702E+03  0.00000000000E+00 0.  1.
         12    1    4    4    0    0  0.13327013080E+02 -0.16215199057E+03 -0.26175614430E+03  0.30819986438E+03  0.00000000000E+00 0. -1.
         -5    1    5    5    0  502  0.62929391594E+02  0.18306031733E+03 -0.46945180401E+03  0.50781716630E+03  0.47000000000E+01 0.  1.
         11    1    6    6    0    0  0.17153100226E+02 -0.64949320424E+01 -0.18860942117E+02  0.26308708200E+02  0.00000000000E+00 0. -1.
        -12    1    6    6    0    0 -0.40406621977E+02  0.84031690272E+02 -0.13333939047E+03  0.16270652451E+03  0.00000000000E+00 0.  1.
</event>
<event>
12    1  0.9966151E-001  0.2511116E+03  0.7818608E-02  0.1112617E+00
         21   -1    0    0  503  502  0.00000000000E+00  0.00000000000E+00  0.12399176299E+04  0.12399176299E+04  0.00000000000E+00 0.  1.
         21   -1    0    0  501  503 -0.00000000000E+00 -0.00000000000E+00 -0.54632549447E+02  0.54632549447E+02  0.00000000000E+00 0.  1.
          6    2    1    2  501    0 -0.15467286336E+03  0.96413342678E+02  0.76328270360E+03  0.80352817612E+03  0.17273626403E+03 0.  0.
         24    2    3    3    0    0 -0.13902272515E+03  0.11102946050E+02  0.52882338862E+03  0.55349607623E+03  0.85165348177E+02 0.  0.
         -6    2    1    2    0  502  0.15467286336E+03 -0.96413342678E+02  0.42200237687E+03  0.49102200323E+03  0.17261915963E+03 0.  0.
        -24    2    5    5    0    0  0.88342581642E+02 -0.13479075125E+03  0.30009358180E+03  0.34695127034E+03  0.65924713099E+02 0.  0.
          5    1    3    3  501    0 -0.15650138211E+02  0.85310396628E+02  0.23445931498E+03  0.25003209990E+03  0.47000000000E+01 0. -1.
        -11    1    4    4    0    0 -0.37510746054E+02 -0.32932716882E+02  0.12011707942E+03  0.13007587278E+03  0.00000000000E+00 0.  1.
         12    1    4    4    0    0 -0.10151197910E+03  0.44035662932E+02  0.40870630920E+03  0.42342020345E+03  0.00000000000E+00 0. -1.
         -5    1    5    5    0  502  0.66330281720E+02  0.38377408576E+02  0.12190879507E+03  0.14407073290E+03  0.47000000000E+01 0.  1.
         11    1    6    6    0    0  0.75557698906E+02 -0.61375054649E+02  0.19707151809E+03  0.21980228943E+03  0.00000000000E+00 0. -1.
        -12    1    6    6    0    0  0.12784882736E+02 -0.73415696606E+02  0.10302206371E+03  0.12714898091E+03  0.00000000000E+00 0.  1.
</event>
<event>
12    1  0.9966151E-001  0.2328330E+03  0.7818608E-02  0.1124679E+00
         21   -1    0    0  501  502  0.00000000000E+00  0.00000000000E+00  0.39042376088E+03  0.39042376088E+03  0.00000000000E+00 0.  1.
         21   -1    0    0  502  503 -0.00000000000E+00 -0.00000000000E+00 -0.17143157931E+03  0.17143157931E+03  0.00000000000E+00 0.  1.
         -6    2    1    2    0  503  0.37956057256E+02  0.15353654371E+03 -0.13067475018E+02  0.23319945931E+03  0.17087157862E+03 0.  0.
        -24    2    3    3    0    0  0.49776359936E+02  0.43642900484E+02  0.39823579218E+02  0.11057855572E+03  0.79115805962E+02 0.  0.
          6    2    1    2  501    0 -0.37956057256E+02 -0.15353654371E+03  0.23205965659E+03  0.32865588088E+03  0.17073040527E+03 0.  0.
         24    2    5    5    0    0 -0.62692268974E+02 -0.95959125041E+02  0.22612995450E+03  0.26553464295E+03  0.78964650433E+02 0.  0.
          5    1    5    5  501    0  0.24736211718E+02 -0.57577418672E+02  0.59297020937E+01  0.63121237932E+02  0.47000000000E+01 0. -1.
        -11    1    6    6    0    0 -0.28758508847E+02 -0.47737499003E+02  0.18610090736E+03  0.19426648801E+03  0.00000000000E+00 0.  1.
         12    1    6    6    0    0 -0.33933760127E+02 -0.48221626038E+02  0.40029047133E+02  0.71268154940E+02  0.00000000000E+00 0. -1.
         -5    1    3    3    0  503 -0.11820302679E+02  0.10989364323E+03 -0.52891054236E+02  0.12262090358E+03  0.47000000000E+01 0.  1.
         11    1    4    4    0    0  0.12245844095E+02  0.57716206600E+01  0.53785558610E+02  0.55463128452E+02  0.00000000000E+00 0. -1.
        -12    1    4    4    0    0  0.37530515840E+02  0.37871279824E+02 -0.13961979393E+02  0.55115427272E+02  0.00000000000E+00 0.  1.
</event>
<event>
12    1  0.9966151E-001  0.1823272E+03  0.7818608E-02  0.1165629E+00
         21   -1    0    0  501  502  0.00000000000E+00  0.00000000000E+00  0.24740167469E+03  0.24740167469E+03  0.00000000000E+00 0. -1.
         21   -1    0    0  502  503 -0.00000000000E+00 -0.00000000000E+00 -0.13799329861E+03  0.13799329861E+03  0.00000000000E+00 0. -1.
         -6    2    1    2    0  503  0.59920251240E+02  0.48059829642E+01  0.22654305767E+02  0.18348048384E+03  0.17186720571E+03 0.  0.
        -24    2    3    3    0    0  0.29684632113E+01 -0.22570805683E+02 -0.43533957149E+02  0.91850953316E+02  0.77608885812E+02 0.  0.
          6    2    1    2  501    0 -0.59920251240E+02 -0.48059829642E+01  0.86754070316E+02  0.20191448946E+03  0.17213267661E+03 0.  0.
         24    2    5    5    0    0 -0.86688139806E+02  0.38773888241E+02  0.87659535056E+02  0.15054684499E+03  0.77213408530E+02 0.  0.
          5    1    5    5  501    0  0.26767888566E+02 -0.43579871205E+02 -0.90546473944E+00  0.51367644475E+02  0.47000000000E+01 0. -1.
        -11    1    6    6    0    0 -0.28929031609E+02 -0.21625990551E+02  0.12710942424E+02  0.38290212776E+02  0.00000000000E+00 0.  1.
         12    1    6    6    0    0 -0.57759108197E+02  0.60399878791E+02  0.74948592631E+02  0.11225663221E+03  0.00000000000E+00 0. -1.
         -5    1    3    3    0  503  0.56951788029E+02  0.27376788647E+02  0.66188262916E+02  0.91629530525E+02  0.47000000000E+01 0.  1.
         11    1    4    4    0    0 -0.24572882224E+02  0.18955771495E+02 -0.15857488159E+02  0.34851222999E+02  0.00000000000E+00 0. -1.
        -12    1    4    4    0    0  0.27541345436E+02 -0.41526577178E+02 -0.27676468990E+02  0.56999730317E+02  0.00000000000E+00 0.  1.
</event>
<event>
12    1  0.9966151E-001  0.2449816E+03  0.7818608E-02  0.1116907E+00
         21   -1    0    0  501  502  0.00000000000E+00  0.00000000000E+00  0.54464293818E+03  0.54464293818E+03  0.00000000000E+00 0.  1.
         21   -1    0    0  502  503 -0.00000000000E+00 -0.00000000000E+00 -0.30676506032E+03  0.30676506032E+03  0.00000000000E+00 0.  1.
         -6    2    1    2    0  503  0.16009607271E+03  0.61059377053E+02 -0.22296649407E+03  0.32949469422E+03  0.17173728780E+03 0.  0.
        -24    2    3    3    0    0  0.13970070737E+03 -0.14041824534E+02 -0.17626880012E+03  0.23861606072E+03  0.78444082402E+02 0.  0.
          6    2    1    2  501    0 -0.16009607271E+03 -0.61059377053E+02  0.46084437192E+03  0.52191330427E+03  0.17509129626E+03 0.  0.
         24    2    5    5    0    0 -0.15946486189E+03 -0.87613153560E+02  0.45164657480E+03  0.49341434033E+03  0.79799598142E+02 0.  0.
          5    1    5    5  501    0 -0.63121081565E+00  0.26553776507E+02  0.91977971236E+01  0.28498963942E+02  0.47000000000E+01 0. -1.
        -13    1    6    6    0    0 -0.70112528058E+02 -0.64382528005E+02  0.14736097662E+03  0.17543127981E+03  0.00000000000E+00 0.  1.
         14    1    6    6    0    0 -0.89352333836E+02 -0.23230625555E+02  0.30428559817E+03  0.31798306052E+03  0.00000000000E+00 0. -1.
         -5    1    3    3    0  503  0.20395365344E+02  0.75101201586E+02 -0.46697693949E+02  0.90878633503E+02  0.47000000000E+01 0.  1.
         13    1    4    4    0    0  0.82010119302E+02 -0.93186015174E+01 -0.15741150610E+03  0.17773822958E+03  0.00000000000E+00 0. -1.
        -14    1    4    4    0    0  0.57690588064E+02 -0.47232230163E+01 -0.18857294023E+02  0.60877831143E+02  0.00000000000E+00 0.  1.
</event>
<event>
12    1  0.9966151E-001  0.2248134E+03  0.7818608E-02  0.1130395E+00
         21   -1    0    0  501  502  0.00000000000E+00  0.00000000000E+00  0.97108680498E+03  0.97108680498E+03  0.00000000000E+00 0. -1.
         21   -1    0    0  502  503 -0.00000000000E+00 -0.00000000000E+00 -0.58359923836E+02  0.58359923836E+02  0.00000000000E+00 0. -1.
         -6    2    1    2    0  503  0.42826954693E+02  0.13845730771E+03  0.62678534338E+03  0.66588357865E+03  0.17186186179E+03 0.  0.
        -24    2    3    3    0    0  0.46043159451E+01  0.35070729301E+00  0.23571675860E+03  0.24936091277E+03  0.81222852770E+02 0.  0.
          6    2    1    2  501    0 -0.42826954693E+02 -0.13845730771E+03  0.28594153776E+03  0.36356315016E+03  0.17149643445E+03 0.  0.
         24    2    5    5    0    0 -0.39908308886E+02 -0.11592044867E+02  0.99344322477E+02  0.13785554249E+03  0.86068621248E+02 0.  0.
          5    1    5    5  501    0 -0.29186458068E+01 -0.12686526284E+03  0.18659721529E+03  0.22570760768E+03  0.47000000000E+01 0. -1.
        -13    1    6    6    0    0 -0.57303198447E+02  0.18940907892E+02  0.65545309558E+02  0.89098833601E+02  0.00000000000E+00 0.  1.
         14    1    6    6    0    0  0.17394889561E+02 -0.30532952759E+02  0.33799012918E+02  0.48756708885E+02  0.00000000000E+00 0. -1.
         -5    1    3    3    0  503  0.38222638748E+02  0.13810660042E+03  0.39106858478E+03  0.41652266588E+03  0.47000000000E+01 0.  1.
         11    1    4    4    0    0 -0.27346464706E+02  0.27958455631E+02  0.11064616257E+03  0.11735449572E+03  0.00000000000E+00 0. -1.
        -12    1    4    4    0    0  0.31950780651E+02 -0.27607748338E+02  0.12507059603E+03  0.13200641706E+03  0.00000000000E+00 0.  1.
</event>
<event>
12    1  0.9966151E-001  0.2243130E+03  0.7818608E-02  0.1131324E+00
         21   -1    0    0  501  502  0.00000000000E+00  0.00000000000E+00  0.46873070051E+03  0.46873070051E+03  0.00000000000E+00 0.  1.
         21   -1    0    0  502  503 -0.00000000000E+00 -0.00000000000E+00 -0.14049615201E+03  0.14049615201E+03  0.00000000000E+00 0. -1.
         -6    2    1    2    0  503 -0.51104314417E+02  0.13403170582E+03  0.11685186277E+02  0.22125804029E+03  0.16805483540E+03 0.  0.
        -24    2    3    3    0    0 -0.62253368772E+02  0.10410558812E+03 -0.49095604095E+02  0.15243748804E+03  0.78187940366E+02 0.  0.
          6    2    1    2  501    0  0.51104314417E+02 -0.13403170582E+03  0.31654936222E+03  0.38796881224E+03  0.17245333116E+03 0.  0.
         24    2    5    5    0    0 -0.28060110636E+02 -0.11197946450E+03  0.17356015802E+03  0.22297999425E+03  0.79184462540E+02 0.  0.
          5    1    5    5  501    0  0.79164425053E+02 -0.22052241319E+02  0.14298920420E+03  0.16498881798E+03  0.47000000000E+01 0. -1.
        -11    1    6    6    0    0 -0.17814490134E+02 -0.11511004572E+03  0.17685880305E+03  0.21177042971E+03  0.00000000000E+00 0.  1.
         12    1    6    6    0    0 -0.10245620501E+02  0.31305812236E+01 -0.32986450265E+01  0.11209564544E+02  0.00000000000E+00 0. -1.
         -5    1    3    3    0  503  0.11149054356E+02  0.29926117698E+02  0.60780790372E+02  0.68820552248E+02  0.47000000000E+01 0.  1.
         11    1    4    4    0    0  0.12763685969E+02  0.34665308885E+02 -0.31839621941E+02  0.48768400066E+02  0.00000000000E+00 0. -1.
        -12    1    4    4    0    0 -0.75017054742E+02  0.69440279233E+02 -0.17255982154E+02  0.10366908798E+03  0.00000000000E+00 0.  1.
</event>
<event>
12    1  0.9966151E-001  0.1756253E+03  0.7818608E-02  0.1172129E+00
         21   -1    0    0  501  502  0.00000000000E+00  0.00000000000E+00  0.23071072918E+03  0.23071072918E+03  0.00000000000E+00 0. -1.
         21   -1    0    0  502  503 -0.00000000000E+00 -0.00000000000E+00 -0.14007618446E+03  0.14007618446E+03  0.00000000000E+00 0. -1.
         -6    2    1    2    0  503  0.33487469108E+02  0.36921654734E+01  0.55060289494E+01  0.17561743467E+03  0.17226759513E+03 0.  0.
        -24    2    3    3    0    0  0.78981383202E+02  0.24818440867E+02 -0.29668364826E+02  0.11417360903E+03  0.72810625791E+02 0.  0.
          6    2    1    2  501    0 -0.33487469108E+02 -0.36921654734E+01  0.85128515775E+02  0.19516947897E+03  0.17236362334E+03 0.  0.
         24    2    5    5    0    0  0.25227427640E+02  0.48435491664E+02  0.45020075452E+02  0.10687730081E+03  0.80084519587E+02 0.  0.
          5    1    5    5  501    0 -0.58714896748E+02 -0.52127657138E+02  0.40108440323E+02  0.88292178158E+02  0.47000000000E+01 0. -1.
        -13    1    6    6    0    0  0.32744324498E+02 -0.86030947939E+01  0.50596232971E-01  0.33855672890E+02  0.00000000000E+00 0.  1.
         14    1    6    6    0    0 -0.75168968577E+01  0.57038586458E+02  0.44969479219E+02  0.73021627924E+02  0.00000000000E+00 0. -1.
         -5    1    3    3    0  503 -0.45493914094E+02 -0.21126275393E+02  0.35174393776E+02  0.61443825638E+02  0.47000000000E+01 0.  1.
         11    1    4    4    0    0  0.31163459147E+02 -0.24860495625E+01  0.22345297388E+02  0.38427255221E+02  0.00000000000E+00 0. -1.
        -12    1    4    4    0    0  0.47817924055E+02  0.27304490429E+02 -0.52013662215E+02  0.75746353810E+02  0.00000000000E+00 0.  1.
</event>
<event>
12    1  0.9966151E-001  0.1948165E+03  0.7818608E-02  0.1154411E+00
         21   -1    0    0  501  502  0.00000000000E+00  0.00000000000E+00  0.11274699337E+04  0.11274699337E+04  0.00000000000E+00 0.  1.
         21   -1    0    0  502  503 -0.00000000000E+00 -0.00000000000E+00 -0.33491587129E+02  0.33491587129E+02  0.00000000000E+00 0.  1.
         -6    2    1    2    0  503 -0.83249012838E+02 -0.37185902577E+02  0.53799985364E+03  0.57183882475E+03  0.17100470605E+03 0.  0.
        -24    2    3    3    0    0 -0.43793394126E+02  0.36697657957E+02  0.38319936955E+03  0.39576836659E+03  0.80785293827E+02 0.  0.
          6    2    1    2  501    0  0.83249012838E+02  0.37185902577E+02  0.55597849292E+03  0.58912269606E+03  0.17216351802E+03 0.  0.
         24    2    5    5    0    0  0.30425133033E+02  0.45235189983E+02  0.13879996196E+03  0.16850984557E+03  0.78474374678E+02 0.  0.
          5    1    5    5  501    0  0.52823879805E+02 -0.80492874058E+01  0.41717853096E+03  0.42061285049E+03  0.47000000000E+01 0. -1.
        -13    1    6    6    0    0  0.28641442479E+02  0.12980289909E+02  0.62248070660E+01  0.32055707392E+02  0.00000000000E+00 0.  1.
         14    1    6    6    0    0  0.17836905544E+01  0.32254900074E+02  0.13257515489E+03  0.13645413818E+03  0.00000000000E+00 0. -1.
         -5    1    3    3    0  503 -0.39455618712E+02 -0.73883560534E+02  0.15480048408E+03  0.17607045816E+03  0.47000000000E+01 0.  1.
         11    1    4    4    0    0 -0.23017415924E+02  0.58557294900E+02  0.18790321879E+03  0.19815745723E+03  0.00000000000E+00 0. -1.
        -12    1    4    4    0    0 -0.20775978202E+02 -0.21859636943E+02  0.19529615076E+03  0.19761090937E+03  0.00000000000E+00 0.  1.
</event>
<event>
12    1  0.9966151E-001  0.2115219E+03  0.7818608E-02  0.1140976E+00
         21   -1    0    0  503  502  0.00000000000E+00  0.00000000000E+00  0.29603761958E+02  0.29603761958E+02  0.00000000000E+00 0. -1.
         21   -1    0    0  501  503 -0.00000000000E+00 -0.00000000000E+00 -0.20456828651E+04  0.20456828651E+04  0.00000000000E+00 0. -1.
          6    2    1    2  501    0 -0.38659888527E+02 -0.11396240095E+03 -0.15437429090E+04  0.15577511087E+04  0.17018910630E+03 0.  0.
         24    2    3    3    0    0 -0.24395134481E+02 -0.80960768710E+01 -0.42441975642E+03  0.43333233814E+03  0.83571027247E+02 0.  0.
         -6    2    1    2    0  502  0.38659888527E+02  0.11396240095E+03 -0.47233619411E+03  0.51753551828E+03  0.17395262747E+03 0.  0.
        -24    2    5    5    0    0  0.20758104350E+02  0.34689943009E+02 -0.91897436287E+02  0.12848496254E+03  0.80180769274E+02 0.  0.
          5    1    3    3  501    0 -0.14264754046E+02 -0.10586632407E+03 -0.11193231526E+04  0.11244187706E+04  0.47000000000E+01 0. -1.
        -11    1    4    4    0    0 -0.92668960115E+01 -0.42808548238E+02 -0.14844563804E+03  0.15477259001E+03  0.00000000000E+00 0.  1.
         12    1    4    4    0    0 -0.15128238469E+02  0.34712471367E+02 -0.27597411837E+03  0.27855974813E+03  0.00000000000E+00 0. -1.
         -5    1    5    5    0  502  0.17901784177E+02  0.79272457937E+02 -0.38043875783E+03  0.38905055574E+03  0.47000000000E+01 0.  1.
         13    1    6    6    0    0  0.48543858257E+02  0.21571016134E+02 -0.78913957912E+02  0.95127428563E+02  0.00000000000E+00 0. -1.
        -14    1    6    6    0    0 -0.27785753908E+02  0.13118926875E+02 -0.12983478375E+02  0.33357533981E+02  0.00000000000E+00 0.  1.
</event>
<event>
12    1  0.9966151E-001  0.1747240E+03  0.7818608E-02  0.1173690E+00
         21   -1    0    0  503  502  0.00000000000E+00  0.00000000000E+00  0.30904229497E+03  0.30904229497E+03  0.00000000000E+00 0. -1.
         21   -1    0    0  501  503 -0.00000000000E+00 -0.00000000000E+00 -0.10536872172E+03  0.10536872172E+03  0.00000000000E+00 0. -1.
          6    2    1    2  501    0  0.11052605780E+00  0.35853129016E+02  0.43669442877E+02  0.17749370815E+03  0.16826032543E+03 0.  0.
         24    2    3    3    0    0 -0.61685149294E+02  0.59391578418E+01  0.14822401923E+02  0.10287606321E+03  0.80767874458E+02 0.  0.
         -6    2    1    2    0  502 -0.11052605780E+00 -0.35853129016E+02  0.16000413037E+03  0.23691730854E+03  0.17100593638E+03 0.  0.
        -24    2    5    5    0    0 -0.57023436747E+02 -0.60270463236E+02  0.12410819295E+03  0.16518242208E+03  0.70697863675E+02 0.  0.
          5    1    3    3  501    0  0.61795675352E+02  0.29913971174E+02  0.28847040954E+02  0.74617644933E+02  0.47000000000E+01 0. -1.
        -11    1    4    4    0    0 -0.25915546521E+02 -0.31626079551E+02 -0.14388201381E+02  0.43345643359E+02  0.00000000000E+00 0.  1.
         12    1    4    4    0    0 -0.35769602772E+02  0.37565237392E+02  0.29210603303E+02  0.59530419856E+02  0.00000000000E+00 0. -1.
         -5    1    5    5    0  502  0.56912910689E+02  0.24417334220E+02  0.35895937419E+02  0.71734886469E+02  0.47000000000E+01 0.  1.
         13    1    6    6    0    0 -0.30589876814E+02 -0.73081873398E+02  0.83992465816E+02  0.11546183394E+03  0.00000000000E+00 0. -1.
        -14    1    6    6    0    0 -0.26433559933E+02  0.12811410162E+02  0.40115727135E+02  0.49720588136E+02  0.00000000000E+00 0.  1.
</event>
<event>
12    1  0.9966151E-001  0.2384962E+03  0.7818608E-02  0.1121135E+00
         21   -1    0    0  503  502  0.00000000000E+00  0.00000000000E+00  0.72376174789E+02  0.72376174789E+02  0.00000000000E+00 0. -1.
         21   -1    0    0  501  503 -0.00000000000E+00 -0.00000000000E+00 -0.87046233890E+03  0.87046233890E+03  0.00000000000E+00 0. -1.
          6    2    1    2  501    0 -0.33878672126E+02 -0.15951780286E+03 -0.55006910399E+03  0.59875583793E+03  0.17128584423E+03 0.  0.
         24    2    3    3    0    0  0.31359407311E+01 -0.17298781971E+03 -0.50265121681E+03  0.53693295427E+03  0.75525702460E+02 0.  0.
         -6    2    1    2    0  502  0.33878672126E+02  0.15951780286E+03 -0.24801706012E+03  0.34408267576E+03  0.17403083575E+03 0.  0.
        -24    2    5    5    0    0 -0.21598352857E+02  0.12311952681E+03 -0.23113020419E+03  0.27545476086E+03  0.82639259835E+02 0.  0.
          5    1    3    3  501    0 -0.37014612857E+02  0.13470016847E+02 -0.47417887175E+02  0.61822883651E+02  0.47000000000E+01 0. -1.
        -13    1    4    4    0    0 -0.14962587075E+02 -0.13812037522E+03 -0.30132873761E+03  0.33181338908E+03  0.00000000000E+00 0.  1.
         14    1    4    4    0    0  0.18098527806E+02 -0.34867444488E+02 -0.20132247920E+03  0.20511956519E+03  0.00000000000E+00 0. -1.
         -5    1    5    5    0  502  0.55477024983E+02  0.36398276051E+02 -0.16886855939E+02  0.68627914903E+02  0.47000000000E+01 0.  1.
         11    1    6    6    0    0 -0.32414526457E+02  0.22042405986E+02 -0.27569409020E+02  0.47923287667E+02  0.00000000000E+00 0. -1.
        -12    1    6    6    0    0  0.10816173600E+02  0.10107712082E+03 -0.20356079517E+03  0.22753147319E+03  0.00000000000E+00 0.  1.
</event>
<event>
12    1  0.9966151E-001  0.2259377E+03  0.7818608E-02  0.1129544E+00
         21   -1    0    0  503  502  0.00000000000E+00  0.00000000000E+00  0.23595320048E+04  0.23595320048E+04  0.00000000000E+00 0.  1.
         21   -1    0    0  501  503 -0.00000000000E+00 -0.00000000000E+00 -0.24067535099E+02  0.24067535099E+02  0.00000000000E+00 0.  1.
          6    2    1    2  501    0 -0.11937792906E+03  0.84913026781E+02  0.78818361484E+03  0.81990971038E+03  0.17192210566E+03 0.  0.
         24    2    3    3    0    0 -0.17148605094E+02  0.69357797450E+02  0.54873404076E+03  0.55904386676E+03  0.79475900486E+02 0.  0.
         -6    2    1    2    0  502  0.11937792906E+03 -0.84913026781E+02  0.15472808549E+04  0.15636898295E+04  0.17200734591E+03 0.  0.
        -24    2    5    5    0    0  0.12576474657E+03 -0.12006712902E+03  0.12802913092E+04  0.12942791582E+04  0.76025100546E+02 0.  0.
          5    1    3    3  501    0 -0.10222932397E+03  0.15555229331E+02  0.23944957408E+03  0.26086584362E+03  0.47000000000E+01 0. -1.
        -11    1    4    4    0    0  0.30532058961E+02  0.30462016854E+02  0.17243029787E+03  0.17774236614E+03  0.00000000000E+00 0.  1.
         12    1    4    4    0    0 -0.47680664055E+02  0.38895780595E+02  0.37630374288E+03  0.38130150063E+03  0.00000000000E+00 0. -1.
         -5    1    5    5    0  502 -0.63868175048E+01  0.35154102238E+02  0.26698954569E+03  0.26941067137E+03  0.47000000000E+01 0.  1.
         11    1    6    6    0    0  0.11992731049E+03 -0.11107481050E+03  0.96064966725E+03  0.97445777565E+03  0.00000000000E+00 0. -1.
        -12    1    6    6    0    0  0.58374360768E+01 -0.89923185236E+01  0.31964164193E+03  0.31982138251E+03  0.00000000000E+00 0.  1.
</event>
<event>
12    1  0.9966151E-001  0.1794495E+03  0.7818608E-02  0.1168477E+00
         21   -1    0    0  503  502  0.00000000000E+00  0.00000000000E+00  0.62707139253E+03  0.62707139253E+03  0.00000000000E+00 0. -1.
         21   -1    0    0  501  503 -0.00000000000E+00 -0.00000000000E+00 -0.59076116611E+02  0.59076116611E+02  0.00000000000E+00 0. -1.
          6    2    1    2  501    0  0.47857261176E+02  0.87332010019E+01  0.15824064929E+03  0.23882103964E+03  0.17213018225E+03 0.  0.
         24    2    3    3    0    0  0.74619638881E+02  0.49204612351E+02  0.76938092924E+02  0.14402464905E+03  0.82670702239E+02 0.  0.
         -6    2    1    2    0  502 -0.47857261176E+02 -0.87332010019E+01  0.40975462662E+03  0.44732646949E+03  0.17272964431E+03 0.  0.
        -24    2    5    5    0    0  0.42154868211E+02 -0.50116795450E+01  0.21345910719E+03  0.23129393928E+03  0.78293972066E+02 0.  0.
          5    1    3    3  501    0 -0.26762377705E+02 -0.40471411349E+02  0.81302556369E+02  0.94796390591E+02  0.47000000000E+01 0. -1.
        -13    1    4    4    0    0  0.47767975606E+02  0.40262041157E+02  0.45605272641E+00  0.62474150140E+02  0.00000000000E+00 0.  1.
         14    1    4    4    0    0  0.26851663275E+02  0.89425711945E+01  0.76482040197E+02  0.81550498913E+02  0.00000000000E+00 0. -1.
         -5    1    5    5    0  502 -0.90012129387E+02 -0.37215214569E+01  0.19629551944E+03  0.21603253021E+03  0.47000000000E+01 0.  1.
         11    1    6    6    0    0  0.85512011717E+00  0.12155243555E+02 -0.99477380611E+00  0.12225823130E+02  0.00000000000E+00 0. -1.
        -12    1    6    6    0    0  0.41299748093E+02 -0.17166923100E+02  0.21445388099E+03  0.21906811615E+03  0.00000000000E+00 0.  1.
</event>
<event>
12    1  0.9966151E-001  0.1822096E+03  0.7818608E-02  0.1166171E+00
         21   -1    0    0  501  502  0.00000000000E+00  0.00000000000E+00  0.40273538220E+03  0.40273538220E+03  0.00000000000E+00 0.  1.
         21   -1    0    0  502  503 -0.00000000000E+00 -0.00000000000E+00 -0.84413513491E+02  0.84413513491E+02  0.00000000000E+00 0.  1.
         -6    2    1    2    0  503  0.44565049156E+02  0.40074014744E+02  0.11489530190E+03  0.21540957433E+03  0.17207086927E+03 0.  0.
        -24    2    3    3    0    0  0.51054836016E+02 -0.36710639275E+02  0.85553831398E+02  0.13282015420E+03  0.79796415821E+02 0.  0.
          6    2    1    2  501    0 -0.44565049156E+02 -0.40074014744E+02  0.20342656681E+03  0.27173932136E+03  0.16990562212E+03 0.  0.
         24    2    5    5    0    0 -0.94494865759E+02 -0.36262140379E+02  0.15504196761E+03  0.20194908987E+03  0.80630023560E+02 0.  0.
          5    1    5    5  501    0  0.49929816603E+02 -0.38118743656E+01  0.48384599193E+02  0.69790231489E+02  0.47000000000E+01 0. -1.
        -13    1    6    6    0    0  0.12622654771E+02  0.32873317985E+01  0.29448687804E+02  0.32208122845E+02  0.00000000000E+00 0.  1.
         14    1    6    6    0    0 -0.10711752053E+03 -0.39549472177E+02  0.12559327981E+03  0.16974096703E+03  0.00000000000E+00 0. -1.
         -5    1    3    3    0  503 -0.64897868597E+01  0.76784654019E+02  0.29341470506E+02  0.82589420132E+02  0.47000000000E+01 0.  1.
         11    1    4    4    0    0  0.37766844566E+02 -0.58649883127E+02  0.39656642661E+02  0.80242087750E+02  0.00000000000E+00 0. -1.
        -12    1    4    4    0    0  0.13287991450E+02  0.21939243852E+02  0.45897188737E+02  0.52578066449E+02  0.00000000000E+00 0.  1.
</event>
<event>
12    1  0.9966151E-001  0.2450689E+03  0.7818608E-02  0.1116683E+00
         21   -1    0    0  503  502  0.00000000000E+00  0.00000000000E+00  0.17325430092E+03  0.17325430092E+03  0.00000000000E+00 0.  1.
         21   -1    0    0  501  503 -0.00000000000E+00 -0.00000000000E+00 -0.35218303972E+03  0.35218303972E+03  0.00000000000E+00 0.  1.
          6    2    1    2  501    0  0.15540321812E+03  0.73987560290E+02 -0.12745546199E+03  0.27502120570E+03  0.17253245930E+03 0.  0.
         24    2    3    3    0    0  0.25343146896E+02  0.71581125007E+02 -0.82880185496E+02  0.13743320356E+03  0.79073559044E+02 0.  0.
         -6    2    1    2    0  502 -0.15540321812E+03 -0.73987560290E+02 -0.51473276805E+02  0.25041613494E+03  0.17445464492E+03 0.  0.
        -24    2    5    5    0    0 -0.66279500388E+02  0.16897455705E+02 -0.67339077476E+02  0.12205361383E+03  0.75392553428E+02 0.  0.
          5    1    3    3  501    0  0.13006007123E+03  0.24064352830E+01 -0.44575276495E+02  0.13758800214E+03  0.47000000000E+01 0. -1.
        -11    1    4    4    0    0 -0.22406141204E+02  0.39359276780E+02 -0.13505874308E+02  0.47260940248E+02  0.00000000000E+00 0.  1.
         12    1    4    4    0    0  0.47749288100E+02  0.32221848227E+02 -0.69374311188E+02  0.90172263308E+02  0.00000000000E+00 0. -1.
         -5    1    5    5    0  502 -0.89123717736E+02 -0.90885015995E+02  0.15865800671E+02  0.12836252111E+03  0.47000000000E+01 0.  1.
         13    1    6    6    0    0  0.20446865824E+01  0.20999779278E+02 -0.45587413387E+02  0.50233293066E+02  0.00000000000E+00 0. -1.
        -14    1    6    6    0    0 -0.68324186971E+02 -0.41023235732E+01 -0.21751664089E+02  0.71820320763E+02  0.00000000000E+00 0.  1.
</event>
<event>
12    1  0.9966151E-001  0.2305733E+03  0.7818608E-02  0.1126760E+00
         21   -1    0    0  501  502  0.00000000000E+00  0.00000000000E+00  0.58943680398E+02  0.58943680398E+02  0.00000000000E+00 0.  1.
         21   -1    0    0  502  503 -0.00000000000E+00 -0.00000000000E+00 -0.98710286011E+03  0.98710286011E+03  0.00000000000E+00 0. -1.
         -6    2    1    2    0  503 -0.12773662008E+03 -0.79542203406E+02 -0.30308610419E+03  0.38082178477E+03  0.17470099877E+03 0.  0.
        -24    2    3    3    0    0 -0.20741642236E+02 -0.20523220993E+02 -0.52517247415E+02  0.10200642014E+03  0.82436825210E+02 0.  0.
          6    2    1    2  501    0  0.12773662008E+03  0.79542203406E+02 -0.62507307552E+03  0.66522475574E+03  0.17077476298E+03 0.  0.
         24    2    5    5    0    0  0.79403433251E+02  0.23373522967E+00 -0.20943084159E+03  0.23930635193E+03  0.84269168859E+02 0.  0.
          5    1    5    5  501    0  0.48333186833E+02  0.79308468176E+02 -0.41564223394E+03  0.42591840381E+03  0.47000000000E+01 0. -1.
        -11    1    6    6    0    0  0.42634284911E+02  0.31327955264E+02 -0.16681162045E+03  0.17500068500E+03  0.00000000000E+00 0.  1.
         12    1    6    6    0    0  0.36769148340E+02 -0.31094220035E+02 -0.42619221132E+02  0.64305666929E+02  0.00000000000E+00 0. -1.
         -5    1    3    3    0  503 -0.10699497785E+03 -0.59018982413E+02 -0.25056885677E+03  0.27881536463E+03  0.47000000000E+01 0.  1.
         13    1    4    4    0    0  0.29582098835E+02 -0.28687350275E+01 -0.34901931709E+02  0.45841848231E+02  0.00000000000E+00 0. -1.
        -14    1    4    4    0    0 -0.50323741071E+02 -0.17654485966E+02 -0.17615315705E+02  0.56164571907E+02  0.00000000000E+00 0.  1.
</event>
<event>
12    1  0.9966151E-001  0.2794319E+03  0.7818608E-02  0.1096070E+00
         21   -1    0    0  503  502  0.00000000000E+00  0.00000000000E+00  0.57733673756E+03  0.57733673756E+03  0.00000000000E+00 0.  1.
         21   -1    0    0  501  503 -0.00000000000E+00 -0.00000000000E+00 -0.13499961372E+03  0.13499961372E+03  0.00000000000E+00 0.  1.
          6    2    1    2  501    0 -0.77585235750E+02 -0.20529521365E+03  0.22230939699E+03  0.35667582706E+03  0.17213536554E+03 0.  0.
         24    2    3    3    0    0 -0.48569996283E+02 -0.41284172963E+02  0.37946273037E+02  0.10817359959E+03  0.78728524270E+02 0.  0.
         -6    2    1    2    0  502  0.77585235750E+02  0.20529521365E+03  0.22002772686E+03  0.35566052422E+03  0.17296419962E+03 0.  0.
        -24    2    5    5    0    0  0.10867357511E+03  0.18590277867E+03  0.22078049387E+03  0.31871180250E+03  0.80395258166E+02 0.  0.
          5    1    3    3  501    0 -0.29015239467E+02 -0.16401104068E+03  0.18436312395E+03  0.24850222748E+03  0.47000000000E+01 0. -1.
        -11    1    4    4    0    0 -0.38195623769E+02  0.16593810667E+02  0.88769531623E+01  0.42580048438E+02  0.00000000000E+00 0.  1.
         12    1    4    4    0    0 -0.10374372514E+02 -0.57877983630E+02  0.29069319874E+02  0.65593551147E+02  0.00000000000E+00 0. -1.
         -5    1    5    5    0  502 -0.31088339359E+02  0.19392434975E+02 -0.75276701144E+00  0.36948721717E+02  0.47000000000E+01 0.  1.
         13    1    6    6    0    0  0.57728311664E+02  0.94090614218E+02  0.57189166615E+02  0.12432297627E+03  0.00000000000E+00 0. -1.
        -14    1    6    6    0    0  0.50945263445E+02  0.91812164452E+02  0.16359132725E+03  0.19438882623E+03  0.00000000000E+00 0.  1.
</event>
<event>
12    1  0.9966151E-001  0.1830433E+03  0.7818608E-02  0.1165134E+00
         21   -1    0    0  501  502  0.00000000000E+00  0.00000000000E+00  0.16316820948E+02  0.16316820948E+02  0.00000000000E+00 0.  1.
         21   -1    0    0  502  503 -0.00000000000E+00 -0.00000000000E+00 -0.21644758829E+04  0.21644758829E+04  0.00000000000E+00 0.  1.
         -6    2    1    2    0  503 -0.38711074395E+02  0.47513039691E+02 -0.81742295648E+03  0.83766647852E+03  0.17247841383E+03 0.  0.
        -24    2    3    3    0    0 -0.28525734271E+01  0.82823748898E+02 -0.70449322413E+03  0.71394140942E+03  0.80831446100E+02 0.  0.
          6    2    1    2  501    0  0.38711074395E+02 -0.47513039691E+02 -0.13307361055E+04  0.13431262254E+04  0.17138680968E+03 0.  0.
         24    2    5    5    0    0  0.52499553070E+02 -0.82615172285E+02 -0.11939557422E+04  0.12011641190E+04  0.87655328816E+02 0.  0.
          5    1    5    5  501    0 -0.13788478675E+02  0.35102132595E+02 -0.13678036331E+03  0.14196210637E+03  0.47000000000E+01 0. -1.
        -13    1    6    6    0    0 -0.24403101799E+02 -0.15703528362E+02 -0.22595458487E+03  0.22781041812E+03  0.00000000000E+00 0.  1.
         14    1    6    6    0    0  0.76902654869E+02 -0.66911643923E+02 -0.96800115734E+03  0.97335370088E+03  0.00000000000E+00 0. -1.
         -5    1    3    3    0  503 -0.35858500968E+02 -0.35310709207E+02 -0.11292973234E+03  0.12372506910E+03  0.47000000000E+01 0.  1.
         11    1    4    4    0    0  0.16444176450E+02  0.42003783960E+02 -0.57567421134E+03  0.57743876421E+03  0.00000000000E+00 0. -1.
        -12    1    4    4    0    0 -0.19296749877E+02  0.40819964938E+02 -0.12881901279E+03  0.13650264521E+03  0.00000000000E+00 0.  1.
</event>
<event>
12    1  0.9966151E-001  0.1767099E+03  0.7818608E-02  0.1171462E+00
         21   -1    0    0  503  502  0.00000000000E+00  0.00000000000E+00  0.32552253162E+03  0.32552253162E+03  0.00000000000E+00 0.  1.
         21   -1    0    0  501  503 -0.00000000000E+00 -0.00000000000E+00 -0.99766886326E+02  0.99766886326E+02  0.00000000000E+00 0.  1.
          6    2    1    2  501    0 -0.27579453231E+02 -0.12886258896E+02  0.15892207645E+03  0.23636317322E+03  0.17229231370E+03 0.  0.
         24    2    3    3    0    0  0.44962383217E+02  0.15702110581E+02  0.11180874636E+03  0.14514163641E+03  0.79351916648E+02 0.  0.
         -6    2    1    2    0  502  0.27579453231E+02  0.12886258896E+02  0.66833568843E+02  0.18892624473E+03  0.17406814216E+03 0.  0.
        -24    2    5    5    0    0 -0.29285698462E+02 -0.29138025782E+02  0.16615804472E+02  0.10207234535E+03  0.91847711165E+02 0.  0.
          5    1    3    3  501    0 -0.72541836448E+02 -0.28588369477E+02  0.47113330096E+02  0.91221536807E+02  0.47000000000E+01 0. -1.
        -11    1    4    4    0    0 -0.12864164535E+02 -0.10369976962E+02 -0.79301566522E-01  0.16523602516E+02  0.00000000000E+00 0.  1.
         12    1    4    4    0    0  0.57826547752E+02  0.26072087543E+02  0.11188804793E+03  0.12861803389E+03  0.00000000000E+00 0. -1.
         -5    1    5    5    0  502  0.56865151693E+02  0.42024284679E+02  0.50217764372E+02  0.86853899385E+02  0.47000000000E+01 0.  1.
         13    1    6    6    0    0  0.31312082252E+02 -0.64858922655E+01  0.19252887063E+02  0.37325419672E+02  0.00000000000E+00 0. -1.
        -14    1    6    6    0    0 -0.60597780713E+02 -0.22652133517E+02 -0.26370825915E+01  0.64746925679E+02  0.00000000000E+00 0.  1.
</event>
<event>
12    1  0.9966151E-001  0.1828402E+03  0.7818608E-02  0.1165167E+00
         21   -1    0    0  503  502  0.00000000000E+00  0.00000000000E+00  0.26361605679E+03  0.26361605679E+03  0.00000000000E+00 0. -1.
         21   -1    0    0  501  503 -0.00000000000E+00 -0.00000000000E+00 -0.24640464197E+03  0.24640464197E+03  0.00000000000E+00 0. -1.
          6    2    1    2  501    0  0.22542545481E+01 -0.59384168275E+02  0.18644096787E+03  0.26088384429E+03  0.17253574877E+03 0.  0.
         24    2    3    3    0    0  0.52218536494E+02 -0.79302200000E+02  0.96314903358E+02  0.15582217210E+03  0.77384586524E+02 0.  0.
         -6    2    1    2    0  502 -0.22542545481E+01  0.59384168275E+02 -0.16922955306E+03  0.24913685447E+03  0.17291318493E+03 0.  0.
        -24    2    5    5    0    0 -0.64528429866E+02  0.48431629327E+02 -0.74295497334E+02  0.13497645872E+03  0.78671993143E+02 0.  0.
          5    1    3    3  501    0 -0.49964281946E+02  0.19918031725E+02  0.90126064513E+02  0.10506167219E+03  0.47000000000E+01 0. -1.
        -13    1    4    4    0    0  0.35200168204E+01 -0.13666139545E+02  0.67813013767E+02  0.69265855402E+02  0.00000000000E+00 0.  1.
         14    1    4    4    0    0  0.48698519674E+02 -0.65636060455E+02  0.28501889591E+02  0.86556316700E+02  0.00000000000E+00 0. -1.
         -5    1    5    5    0  502  0.62274175318E+02  0.10952538948E+02 -0.94934055724E+02  0.11416039575E+03  0.47000000000E+01 0.  1.
         11    1    6    6    0    0 -0.10769605063E+02  0.33483263884E+02  0.74981707041E+01  0.35962979818E+02  0.00000000000E+00 0. -1.
        -12    1    6    6    0    0 -0.53758824804E+02  0.14948365444E+02 -0.81793668039E+02  0.99013478905E+02  0.00000000000E+00 0.  1.
</event>
<event>
12    1  0.9966151E-001  0.3020640E+03  0.7818608E-02  0.1084545E+00
         21   -1    0    0  501  502  0.00000000000E+00  0.00000000000E+00  0.97082536185E+03  0.97082536185E+03  0.00000000000E+00 0.  1.
         21   -1    0    0  502  503 -0.00000000000E+00 -0.00000000000E+00 -0.97178988733E+02  0.97178988733E+02  0.00000000000E+00 0. -1.
         -6    2    1    2    0  503 -0.14303243339E+03  0.19981614984E+03  0.54359307218E+03  0.62059197914E+03  0.17104445535E+03 0.  0.
        -24    2    3    3    0    0 -0.12981986587E+03  0.16455714783E+03  0.53693833752E+03  0.58206738106E+03  0.81039529397E+02 0.  0.
          6    2    1    2  501    0  0.14303243339E+03 -0.19981614984E+03  0.33005330093E+03  0.44741237144E+03  0.17566410540E+03 0.  0.
         24    2    5    5    0    0  0.99567985425E+02 -0.15867848732E+03  0.32951656414E+03  0.38738034998E+03  0.79935745742E+02 0.  0.
          5    1    5    5  501    0  0.43464447964E+02 -0.41137662520E+02  0.53673678985E+00  0.60032021462E+02  0.47000000000E+01 0. -1.
        -13    1    6    6    0    0  0.20842194835E+02 -0.92242121175E+02  0.11115208246E+03  0.14593762860E+03  0.00000000000E+00 0.  1.
         14    1    6    6    0    0  0.78725790589E+02 -0.66436366146E+02  0.21836448168E+03  0.24144272139E+03  0.00000000000E+00 0. -1.
         -5    1    3    3    0  503 -0.13212567517E+02  0.35259002014E+02  0.66547346679E+01  0.38524598076E+02  0.47000000000E+01 0.  1.
         13    1    4    4    0    0 -0.56823030178E+02  0.12621374709E+03  0.28221655387E+03  0.31433254682E+03  0.00000000000E+00 0. -1.
        -14    1    4    4    0    0 -0.72996835694E+02  0.38343400737E+02  0.25472178364E+03  0.26773483424E+03  0.00000000000E+00 0.  1.
</event>
<event>
12    1  0.9966151E-001  0.2266018E+03  0.7818608E-02  0.1129158E+00
         21   -1    0    0  503  502  0.00000000000E+00  0.00000000000E+00  0.70061837275E+02  0.70061837275E+02  0.00000000000E+00 0.  1.
         21   -1    0    0  501  503 -0.00000000000E+00 -0.00000000000E+00 -0.75558330828E+03  0.75558330828E+03  0.00000000000E+00 0.  1.
          6    2    1    2  501    0 -0.12200102743E+03  0.77692221357E+02 -0.41674992619E+03  0.47409639604E+03  0.17368523195E+03 0.  0.
         24    2    3    3    0    0 -0.10869617478E+03 -0.96390828208E+01 -0.21383582619E+03  0.25273696485E+03  0.79009129279E+02 0.  0.
         -6    2    1    2    0  502  0.12200102743E+03 -0.77692221357E+02 -0.26877154481E+03  0.35154874952E+03  0.17443637246E+03 0.  0.
        -24    2    5    5    0    0  0.10989219602E+03 -0.34253397251E+02 -0.84724203765E+02  0.16199910171E+03  0.76262233662E+02 0.  0.
          5    1    3    3  501    0 -0.13304852648E+02  0.87331304178E+02 -0.20291410001E+03  0.22135943119E+03  0.47000000000E+01 0. -1.
        -11    1    4    4    0    0 -0.87880337446E+02  0.24445530602E+02 -0.11982188417E+03  0.15059157215E+03  0.00000000000E+00 0.  1.
         12    1    4    4    0    0 -0.20815837337E+02 -0.34084613422E+02 -0.94013942019E+02  0.10214539270E+03  0.00000000000E+00 0. -1.
         -5    1    5    5    0  502  0.12108831412E+02 -0.43438824106E+02 -0.18404734105E+03  0.18954964781E+03  0.47000000000E+01 0.  1.
         11    1    6    6    0    0  0.25465034627E+02 -0.41102921992E+02 -0.10733217326E+02  0.49528982818E+02  0.00000000000E+00 0. -1.
        -12    1    6    6    0    0  0.84427161393E+02  0.68495247418E+01 -0.73990986439E+02  0.11247011890E+03  0.00000000000E+00 0.  1.
</event>
<event>
12    1  0.9966151E-001  0.1760778E+03  0.7818608E-02  0.1171800E+00
         21   -1    0    0  503  502  0.00000000000E+00  0.00000000000E+00  0.17990703012E+03  0.17990703012E+03  0.00000000000E+00 0.  1.
         21   -1    0    0  501  503 -0.00000000000E+00 -0.00000000000E+00 -0.32877158070E+03  0.32877158070E+03  0.00000000000E+00 0.  1.
          6    2    1    2  501    0  0.82691597281E+01  0.34812481945E+02  0.10139796928E+03  0.20268068772E+03  0.17180694136E+03 0.  0.
         24    2    3    3    0    0  0.48334219413E+02  0.46269739513E+02  0.11753535906E+03  0.15774759182E+03  0.81195175558E+02 0.  0.
         -6    2    1    2    0  502 -0.82691597281E+01 -0.34812481945E+02 -0.25026251987E+03  0.30599792310E+03  0.17240392162E+03 0.  0.
        -24    2    5    5    0    0  0.45084302688E+02  0.20419308850E+02 -0.10531510115E+03  0.14189738422E+03  0.81203784379E+02 0.  0.
          5    1    3    3  501    0 -0.40065059685E+02 -0.11457257568E+02 -0.16137389781E+02  0.44933095903E+02  0.47000000000E+01 0. -1.
        -13    1    4    4    0    0 -0.97573632741E+01  0.45056313349E+02  0.62947160415E+02  0.78023217794E+02  0.00000000000E+00 0.  1.
         14    1    4    4    0    0  0.58091582687E+02  0.12134261640E+01  0.54588198650E+02  0.79724374027E+02  0.00000000000E+00 0. -1.
         -5    1    5    5    0  502 -0.53353462416E+02 -0.55231790795E+02 -0.14494741872E+03  0.16410053888E+03  0.47000000000E+01 0.  1.
         11    1    6    6    0    0  0.38038719318E+02 -0.26570778265E+02 -0.40894229408E+02  0.61848916109E+02  0.00000000000E+00 0. -1.
        -12    1    6    6    0    0  0.70455833704E+01  0.46990087115E+02 -0.64420871738E+02  0.80048468115E+02  0.00000000000E+00 0.  1.
</event>
<event>
12    1  0.9966151E-001  0.2341943E+03  0.7818608E-02  0.1123732E+00
         21   -1    0    0  503  502  0.00000000000E+00  0.00000000000E+00  0.14565556401E+04  0.14565556401E+04  0.00000000000E+00 0.  1.
         21   -1    0    0  501  503 -0.00000000000E+00 -0.00000000000E+00 -0.82969366484E+02  0.82969366484E+02  0.00000000000E+00 0.  1.
          6    2    1    2  501    0 -0.15930667865E+03 -0.22498187610E+01  0.11781901583E+03  0.26210637264E+03  0.17156558669E+03 0.  0.
         24    2    3    3    0    0 -0.75224439125E+02 -0.54374224434E+02  0.21964917667E+02  0.12427722185E+03  0.79668674767E+02 0.  0.
         -6    2    1    2    0  502  0.15930667865E+03  0.22498187610E+01  0.12557672578E+04  0.12774186339E+04  0.17164871418E+03 0.  0.
        -24    2    5    5    0    0  0.17677089648E+03 -0.30625863464E+02  0.10355942980E+04  0.10540713000E+04  0.80155236619E+02 0.  0.
          5    1    3    3  501    0 -0.84082239527E+02  0.52124405673E+02  0.95854098162E+02  0.13782915078E+03  0.47000000000E+01 0. -1.
        -11    1    4    4    0    0 -0.33944034807E+02  0.91116500092E+01 -0.17081230745E+02  0.39076695211E+02  0.00000000000E+00 0.  1.
         12    1    4    4    0    0 -0.41280404318E+02 -0.63485874443E+02  0.39046148412E+02  0.85200526643E+02  0.00000000000E+00 0. -1.
         -5    1    5    5    0  502 -0.17464217827E+02  0.32875682225E+02  0.22017295977E+03  0.22334733399E+03  0.47000000000E+01 0.  1.
         13    1    6    6    0    0  0.16660782702E+03 -0.49250804485E+02  0.87497129118E+03  0.89205300860E+03  0.00000000000E+00 0. -1.
        -14    1    6    6    0    0  0.10163069458E+02  0.18624941021E+02  0.16062300684E+03  0.16201829136E+03  0.00000000000E+00 0.  1.
</event>
<event>
12    1  0.9966151E-001  0.1895992E+03  0.7818608E-02  0.1158888E+00
         21   -1    0    0  501  502  0.00000000000E+00  0.00000000000E+00  0.19287980722E+04  0.19287980722E+04  0.00000000000E+00 0.  1.
         21   -1    0    0  502  503 -0.00000000000E+00 -0.00000000000E+00 -0.91714026861E+02  0.91714026861E+02  0.00000000000E+00 0.  1.
         -6    2    1    2    0  503 -0.34769321092E+02  0.70761328893E+02  0.18203592354E+04  0.18301766476E+04  0.17211259152E+03 0.  0.
        -24    2    3    3    0    0  0.29934009456E+02  0.10450964722E+02  0.12531560499E+04  0.12560987742E+04  0.79867250651E+02 0.  0.
          6    2    1    2  501    0  0.34769321092E+02 -0.70761328893E+02  0.16724809953E+02  0.19033545148E+03  0.17242909692E+03 0.  0.
         24    2    5    5    0    0  0.84369373035E+02 -0.21874283446E+02  0.18721760142E+02  0.12050575740E+03  0.81083030778E+02 0.  0.
          5    1    5    5  501    0 -0.49600051942E+02 -0.48887045446E+02 -0.19969501888E+01  0.69829694079E+02  0.47000000000E+01 0. -1.
        -13    1    6    6    0    0  0.48650656123E+02 -0.26196290790E+02  0.48715934617E+02  0.73663927929E+02  0.00000000000E+00 0.  1.
         14    1    6    6    0    0  0.35718716912E+02  0.43220073432E+01 -0.29994174476E+02  0.46841829467E+02  0.00000000000E+00 0. -1.
         -5    1    3    3    0  503 -0.64703330549E+02  0.60310364171E+02  0.56720318556E+03  0.57407787339E+03  0.47000000000E+01 0.  1.
         11    1    4    4    0    0  0.54361518439E+02  0.17314144782E+02  0.68311219641E+03  0.68549050116E+03  0.00000000000E+00 0. -1.
        -12    1    4    4    0    0 -0.24427508983E+02 -0.68631800605E+01  0.57004385345E+03  0.57060827307E+03  0.00000000000E+00 0.  1.
</event>
<event>
12    1  0.9966151E-001  0.1816326E+03  0.7818608E-02  0.1166717E+00
         21   -1    0    0  501  502  0.00000000000E+00  0.00000000000E+00  0.36383975837E+02  0.36383975837E+02  0.00000000000E+00 0. -1.
         21   -1    0    0  502  503 -0.00000000000E+00 -0.00000000000E+00 -0.95438290945E+03  0.95438290945E+03  0.00000000000E+00 0. -1.
         -6    2    1    2    0  503  0.32140237577E+02 -0.46945853566E+02 -0.57839030165E+03  0.60563780088E+03  0.17036694742E+03 0.  0.
        -24    2    3    3    0    0  0.86993632529E+01 -0.32833900004E+02 -0.57000383072E+03  0.57663702991E+03  0.80325296875E+02 0.  0.
          6    2    1    2  501    0 -0.32140237577E+02  0.46945853566E+02 -0.33960863196E+03  0.38512908441E+03  0.17249197289E+03 0.  0.
         24    2    5    5    0    0 -0.76182078580E+02 -0.18323068775E+00 -0.15992060036E+03  0.19415601552E+03  0.79487214503E+02 0.  0.
          5    1    5    5  501    0  0.44041841003E+02  0.47129084254E+02 -0.17968803160E+03  0.19097306889E+03  0.47000000000E+01 0. -1.
        -11    1    6    6    0    0 -0.56677051986E+02 -0.31276943410E+02 -0.13521151767E+03  0.14990893877E+03  0.00000000000E+00 0.  1.
         12    1    6    6    0    0 -0.19505026594E+02  0.31093712723E+02 -0.24709082693E+02  0.44247076749E+02  0.00000000000E+00 0. -1.
         -5    1    3    3    0  503  0.23440874324E+02 -0.14111953562E+02 -0.83864709346E+01  0.29000770975E+02  0.47000000000E+01 0.  1.
         11    1    4    4    0    0 -0.17160499149E+02 -0.35781339768E+02 -0.13139923155E+03  0.13726086499E+03  0.00000000000E+00 0. -1.
        -12    1    4    4    0    0  0.25859862402E+02  0.29474397639E+01 -0.43860459917E+03  0.43937616492E+03  0.00000000000E+00 0.  1.
</event>
<event>
12    1  0.9966151E-001  0.5149570E+03  0.7818608E-02  0.1009979E+00
         21   -1    0    0  503  502  0.00000000000E+00  0.00000000000E+00  0.78676002418E+03  0.78676002418E+03  0.00000000000E+00 0. -1.
         21   -1    0    0  501  503 -0.00000000000E+00 -0.00000000000E+00 -0.34137052927E+03  0.34137052927E+03  0.00000000000E+00 0.  1.
          6    2    1    2  501    0  0.22712957061E+02 -0.48500176613E+03  0.15676736985E+03  0.53780566148E+03  0.17004802176E+03 0.  0.
         24    2    3    3    0    0  0.78310312786E+02 -0.26763770996E+03  0.90829884119E+02  0.30390816064E+03  0.79672161824E+02 0.  0.
         -6    2    1    2    0  502 -0.22712957061E+02  0.48500176613E+03  0.28862212506E+03  0.59032489197E+03  0.17157550943E+03 0.  0.
        -24    2    5    5    0    0  0.35450562642E+02  0.19750572860E+03  0.68764479382E+02  0.22372369041E+03  0.71122997724E+02 0.  0.
          5    1    3    3  501    0 -0.55597355725E+02 -0.21736405617E+03  0.65937485732E+02  0.23389750085E+03  0.47000000000E+01 0. -1.
        -13    1    4    4    0    0  0.58740073189E+02 -0.21475435374E+03  0.10440777383E+03  0.24590813709E+03  0.00000000000E+00 0.  1.
         14    1    4    4    0    0  0.19570239597E+02 -0.52883356220E+02 -0.13577889707E+02  0.58000023550E+02  0.00000000000E+00 0. -1.
         -5    1    5    5    0  502 -0.58163519703E+02  0.28749603753E+03  0.21985764568E+03  0.36660120155E+03  0.47000000000E+01 0.  1.
         13    1    6    6    0    0  0.93560795587E+00  0.39307826246E+02 -0.14177919612E+02  0.41797056965E+02  0.00000000000E+00 0. -1.
        -14    1    6    6    0    0  0.34514954687E+02  0.15819790236E+03  0.82942398994E+02  0.18192663345E+03  0.00000000000E+00 0.  1.
</event>
<event>
12    1  0.9966151E-001  0.2740718E+03  0.7818608E-02  0.1099220E+00
         21   -1    0    0  503  502  0.00000000000E+00  0.00000000000E+00  0.79221185745E+02  0.79221185745E+02  0.00000000000E+00 0. -1.
         21   -1    0    0  501  503 -0.00000000000E+00 -0.00000000000E+00 -0.18998235216E+04  0.18998235216E+04  0.00000000000E+00 0. -1.
          6    2    1    2  501    0 -0.16869972164E+03 -0.12692723214E+03 -0.16114196289E+04  0.16342654043E+04  0.17198858338E+03 0.  0.
         24    2    3    3    0    0 -0.10946056546E+03 -0.14306477296E+03 -0.14092346502E+04  0.14229113093E+04  0.79278938733E+02 0.  0.
         -6    2    1    2    0  502  0.16869972164E+03  0.12692723214E+03 -0.20918270688E+03  0.34477930301E+03  0.17477197884E+03 0.  0.
        -24    2    5    5    0    0  0.48669302803E+02 -0.83554568665E+01 -0.77976528995E+02  0.12129360211E+03  0.78697421459E+02 0.  0.
          5    1    3    3  501    0 -0.59239156175E+02  0.16137540817E+02 -0.20218497867E+03  0.21135409494E+03  0.47000000000E+01 0. -1.
        -13    1    4    4    0    0 -0.37171738902E+02 -0.35692200503E+02 -0.19136425701E+03  0.19818160917E+03  0.00000000000E+00 0.  1.
         14    1    4    4    0    0 -0.72288826561E+02 -0.10737257246E+03 -0.12178703932E+04  0.12247297002E+04  0.00000000000E+00 0. -1.
         -5    1    5    5    0  502  0.12003041884E+03  0.13528268901E+03 -0.13120617789E+03  0.22348570090E+03  0.47000000000E+01 0.  1.
         11    1    6    6    0    0  0.63718338456E+02 -0.73724185966E+01 -0.83446944167E+02  0.10525099383E+03  0.00000000000E+00 0. -1.
        -12    1    6    6    0    0 -0.15049035652E+02 -0.98303826989E+00  0.54704151721E+01  0.16042608281E+02  0.00000000000E+00 0.  1.
</event>
<event>
12    1  0.9966151E-001  0.4657250E+03  0.7818608E-02  0.1023135E+00
         21   -1    0    0  503  502  0.00000000000E+00  0.00000000000E+00  0.86679059341E+03  0.86679059341E+03  0.00000000000E+00 0.  1.
         21   -1    0    0  501  503 -0.00000000000E+00 -0.00000000000E+00 -0.26879545007E+03  0.26879545007E+03  0.00000000000E+00 0.  1.
          6    2    1    2  501    0  0.42354883111E+03 -0.87709684773E+02  0.44824478410E+03  0.64637757932E+03  0.17260934919E+03 0.  0.
         24    2    3    3    0    0  0.39748184021E+03 -0.38080271190E+02  0.41257208882E+03  0.57976528393E+03  0.80437153325E+02 0.  0.
         -6    2    1    2    0  502 -0.42354883111E+03  0.87709684773E+02  0.14975035924E+03  0.48920846416E+03  0.17266484926E+03 0.  0.
        -24    2    5    5    0    0 -0.26030317630E+03  0.83823743470E+02  0.30189929740E+02  0.28677074372E+03  0.80881790479E+02 0.  0.
          5    1    3    3  501    0  0.26066990908E+02 -0.49629413583E+02  0.35672695284E+02  0.66612295384E+02  0.47000000000E+01 0. -1.
        -11    1    4    4    0    0  0.61732591486E+02  0.22129308196E+02  0.78918359922E+02  0.10260958369E+03  0.00000000000E+00 0.  1.
         12    1    4    4    0    0  0.33574924872E+03 -0.60209579386E+02  0.33365372890E+03  0.47715570024E+03  0.00000000000E+00 0. -1.
         -5    1    5    5    0  502 -0.16324565481E+03  0.38859413030E+01  0.11956042950E+03  0.20243772044E+03  0.47000000000E+01 0.  1.
         13    1    6    6    0    0 -0.15696260741E+03  0.92761106657E+01  0.25258802520E+02  0.15925235778E+03  0.00000000000E+00 0. -1.
        -14    1    6    6    0    0 -0.10334056889E+03  0.74547632804E+02  0.49311272199E+01  0.12751838593E+03  0.00000000000E+00 0.  1.
</event>
<event>
12    1  0.9966151E-001  0.1745581E+03  0.7818608E-02  0.1173760E+00
         21   -1    0    0  503  502  0.00000000000E+00  0.00000000000E+00  0.17335348779E+03  0.17335348779E+03  0.00000000000E+00 0. -1.
         21   -1    0    0  501  503 -0.00000000000E+00 -0.00000000000E+00 -0.25610162357E+03  0.25610162357E+03  0.00000000000E+00 0. -1.
          6    2    1    2  501    0 -0.17311316943E+02 -0.17306480212E+02  0.80416042885E+02  0.19219073599E+03  0.17283328122E+03 0.  0.
         24    2    3    3    0    0 -0.33558579039E+02 -0.59197716227E+02  0.98107933011E+02  0.14367329421E+03  0.79914336116E+02 0.  0.
         -6    2    1    2    0  502  0.17311316943E+02  0.17306480212E+02 -0.16316417867E+03  0.23726437536E+03  0.17050700474E+03 0.  0.
        -24    2    5    5    0    0 -0.86213241642E+01 -0.37212291566E+02 -0.33563924008E+02  0.94215032970E+02  0.79314901303E+02 0.  0.
          5    1    3    3  501    0  0.16247262095E+02  0.41891236015E+02 -0.17691890126E+02  0.48517441778E+02  0.47000000000E+01 0. -1.
        -11    1    4    4    0    0  0.12765357244E+02 -0.50574280497E+02  0.27995997276E+02  0.59198716682E+02  0.00000000000E+00 0.  1.
         12    1    4    4    0    0 -0.46323936283E+02 -0.86234357302E+01  0.70111935735E+02  0.84474577531E+02  0.00000000000E+00 0. -1.
         -5    1    5    5    0  502  0.25932641108E+02  0.54518771778E+02 -0.12960025466E+03  0.14304934239E+03  0.47000000000E+01 0.  1.
         13    1    6    6    0    0  0.29844193848E+02 -0.34550919971E+02 -0.31758817689E+02  0.55615325930E+02  0.00000000000E+00 0. -1.
        -14    1    6    6    0    0 -0.38465518013E+02 -0.26613715953E+01 -0.18051063194E+01  0.38599707040E+02  0.00000000000E+00 0.  1.
</event>
<event>
12    1  0.9966151E-001  0.3528357E+03  0.7818608E-02  0.1061500E+00
         21   -1    0    0  503  502  0.00000000000E+00  0.00000000000E+00  0.63051035017E+03  0.63051035017E+03  0.00000000000E+00 0. -1.
         21   -1    0    0  501  503 -0.00000000000E+00 -0.00000000000E+00 -0.20330079489E+03  0.20330079489E+03  0.00000000000E+00 0.  1.
          6    2    1    2  501    0  0.30818746738E+03 -0.37719835764E+01  0.28562181102E+03  0.45362680119E+03  0.17089093866E+03 0.  0.
         24    2    3    3    0    0  0.10698256721E+03  0.48926680139E+02  0.10827746563E+03  0.18025220864E+03  0.83233163103E+02 0.  0.
         -6    2    1    2    0  502 -0.30818746738E+03  0.37719835764E+01  0.14158774425E+03  0.38018434387E+03  0.17175361158E+03 0.  0.
        -24    2    5    5    0    0 -0.27538846060E+03 -0.37494521526E+02  0.82150673756E+02  0.30060071089E+03  0.79796057619E+02 0.  0.
          5    1    3    3  501    0  0.20120490017E+03 -0.52698663715E+02  0.17734434539E+03  0.27337459255E+03  0.47000000000E+01 0. -1.
        -13    1    4    4    0    0  0.63235838978E+01  0.54129574398E+01 -0.13823011337E+02  0.16135782100E+02  0.00000000000E+00 0.  1.
         14    1    4    4    0    0  0.10065898331E+03  0.43513722699E+02  0.12210047697E+03  0.16411642654E+03  0.00000000000E+00 0. -1.
         -5    1    5    5    0  502 -0.32799006780E+02  0.41266505102E+02  0.59437070496E+02  0.79583632980E+02  0.47000000000E+01 0.  1.
         13    1    6    6    0    0 -0.20639777906E+02 -0.78910198873E+00  0.32450938878E+02  0.38466694009E+02  0.00000000000E+00 0. -1.
        -14    1    6    6    0    0 -0.25474868269E+03 -0.36705419537E+02  0.49699734878E+02  0.26213401688E+03  0.00000000000E+00 0.  1.
</event>
<event>
12    1  0.9966151E-001  0.2080624E+03  0.7818608E-02  0.1144955E+00
         21   -1    0    0  503  502  0.00000000000E+00  0.00000000000E+00  0.60603272381E+03  0.60603272381E+03  0.00000000000E+00 0. -1.
         21   -1    0    0  501  503 -0.00000000000E+00 -0.00000000000E+00 -0.10609564029E+03  0.10609564029E+03  0.00000000000E+00 0. -1.
          6    2    1    2  501    0  0.10871894772E+03 -0.44788273071E+02  0.41256945286E+02  0.21211343167E+03  0.17165131331E+03 0.  0.
         24    2    3    3    0    0  0.28565767088E+02 -0.84042832269E+01  0.78676660458E+02  0.11634990956E+03  0.80378165747E+02 0.  0.
         -6    2    1    2    0  502 -0.10871894772E+03  0.44788273071E+02  0.45868013822E+03  0.50001493243E+03  0.16062896516E+03 0.  0.
        -24    2    5    5    0    0 -0.25800715627E+02 -0.24154427256E+02  0.24554715106E+03  0.26110848764E+03  0.81456280556E+02 0.  0.
          5    1    3    3  501    0  0.80153180636E+02 -0.36383989844E+02 -0.37419715172E+02  0.95763522108E+02  0.47000000000E+01 0. -1.
        -11    1    4    4    0    0  0.37250738591E+02 -0.38830091769E+02  0.53906987774E+02  0.76166638912E+02  0.00000000000E+00 0.  1.
         12    1    4    4    0    0 -0.86849715023E+01  0.30425808542E+02  0.24769672684E+02  0.40183270652E+02  0.00000000000E+00 0. -1.
         -5    1    5    5    0  502 -0.82918232097E+02  0.68942700327E+02  0.21313298717E+03  0.23890644479E+03  0.47000000000E+01 0.  1.
         13    1    6    6    0    0  0.15130399085E+02 -0.70154483331E-01  0.50258523115E+01  0.15943434059E+02  0.00000000000E+00 0. -1.
        -14    1    6    6    0    0 -0.40931114712E+02 -0.24084272773E+02  0.24052129875E+03  0.24516505358E+03  0.00000000000E+00 0.  1.
</event>
<event>
12    1  0.9966151E-001  0.2118120E+03  0.7818608E-02  0.1141509E+00
         21   -1    0    0  503  502  0.00000000000E+00  0.00000000000E+00  0.39070124902E+03  0.39070124902E+03  0.00000000000E+00 0.  1.
         21   -1    0    0  501  503 -0.00000000000E+00 -0.00000000000E+00 -0.11113391135E+03  0.11113391135E+03  0.00000000000E+00 0.  1.
          6    2    1    2  501    0 -0.10321048445E+03 -0.35327774816E+02  0.14143454213E+03  0.25469205058E+03  0.18155950855E+03 0.  0.
         24    2    3    3    0    0 -0.34310603431E+02 -0.76104655214E+02  0.35651220929E+02  0.12194360944E+03  0.81425415425E+02 0.  0.
         -6    2    1    2    0  502  0.10321048445E+03  0.35327774816E+02  0.13813279554E+03  0.24714310979E+03  0.17348945714E+03 0.  0.
        -24    2    5    5    0    0  0.74251117487E+01  0.24197190844E+02  0.66234749306E+01  0.84000476090E+02  0.79822134987E+02 0.  0.
          5    1    3    3  501    0 -0.68899881015E+02  0.40776880398E+02  0.10578332120E+03  0.13274844113E+03  0.47000000000E+01 0. -1.
        -11    1    4    4    0    0 -0.38224975537E+01 -0.83883540391E+02  0.33496576512E+02  0.90405090975E+02  0.00000000000E+00 0.  1.
         12    1    4    4    0    0 -0.30488105877E+02  0.77788851774E+01  0.21546444174E+01  0.31538518468E+02  0.00000000000E+00 0. -1.
         -5    1    5    5    0  502  0.95785372697E+02  0.11130583972E+02  0.13150932061E+03  0.16314263370E+03  0.47000000000E+01 0.  1.
         11    1    6    6    0    0  0.42390390959E+02  0.22535512846E+01  0.27770425374E+01  0.42540988520E+02  0.00000000000E+00 0. -1.
        -12    1    6    6    0    0 -0.34965279210E+02  0.21943639559E+02  0.38464323933E+01  0.41459487569E+02  0.00000000000E+00 0.  1.
</event>
<event>
12    1  0.9966151E-001  0.2394746E+03  0.7818608E-02  0.1120311E+00
         21   -1    0    0  503  502  0.00000000000E+00  0.00000000000E+00  0.42167489790E+03  0.42167489790E+03  0.00000000000E+00 0.  1.
         21   -1    0    0  501  503 -0.00000000000E+00 -0.00000000000E+00 -0.14224499628E+03  0.14224499628E+03  0.00000000000E+00 0.  1.
          6    2    1    2  501    0  0.13687944398E+03  0.95811300155E+02  0.20169238173E+03  0.31309409653E+03  0.17155847110E+03 0.  0.
         24    2    3    3    0    0  0.56790286481E+02 -0.95596215842E+01  0.12744620780E+03  0.16126561224E+03  0.80296567822E+02 0.  0.
         -6    2    1    2    0  502 -0.13687944398E+03 -0.95811300155E+02  0.77737519884E+02  0.25082579765E+03  0.17016072211E+03 0.  0.
        -24    2    5    5    0    0 -0.14230137739E+03 -0.56069975089E+02  0.12179691944E+02  0.17382781661E+03  0.81696026947E+02 0.  0.
          5    1    3    3  501    0  0.80089157501E+02  0.10537092174E+03  0.74246173932E+02  0.15182848429E+03  0.47000000000E+01 0. -1.
        -11    1    4    4    0    0  0.24760510757E+02 -0.31948471273E+02  0.16535540852E+02  0.43671636344E+02  0.00000000000E+00 0.  1.
         12    1    4    4    0    0  0.32029775724E+02  0.22388849689E+02  0.11091066695E+03  0.11759397589E+03  0.00000000000E+00 0. -1.
         -5    1    5    5    0  502  0.54219334066E+01 -0.39741325066E+02  0.65557827940E+02  0.76997981039E+02  0.47000000000E+01 0.  1.
         13    1    6    6    0    0 -0.12300476407E+03 -0.70218472731E+02  0.29006400595E+02  0.14457585266E+03  0.00000000000E+00 0. -1.
        -14    1    6    6    0    0 -0.19296613324E+02  0.14148497642E+02 -0.16826708652E+02  0.29251963957E+02  0.00000000000E+00 0.  1.
</event>
<event>
12    1  0.9966151E-001  0.1850763E+03  0.7818608E-02  0.1163374E+00
         21   -1    0    0  501  502  0.00000000000E+00  0.00000000000E+00  0.97258339417E+03  0.97258339417E+03  0.00000000000E+00 0.  1.
         21   -1    0    0  502  503 -0.00000000000E+00 -0.00000000000E+00 -0.37761192887E+02  0.37761192887E+02  0.00000000000E+00 0.  1.
         -6    2    1    2    0  503 -0.24128123321E+02  0.60111061066E+02  0.32634651282E+03  0.37434467973E+03  0.17157035527E+03 0.  0.
        -24    2    3    3    0    0 -0.51755645114E+02  0.97842747168E+02  0.24193999056E+03  0.27773458140E+03  0.79684933970E+02 0.  0.
          6    2    1    2  501    0  0.24128123321E+02 -0.60111061066E+02  0.60847568846E+03  0.63599990734E+03  0.17337160287E+03 0.  0.
         24    2    5    5    0    0  0.36073114193E+01  0.35414485804E+02  0.29297447669E+03  0.30568288014E+03  0.79629019319E+02 0.  0.
          5    1    5    5  501    0  0.20520811901E+02 -0.95525546870E+02  0.31550121177E+03  0.33031702720E+03  0.47000000000E+01 0. -1.
        -13    1    6    6    0    0 -0.69222241093E+01 -0.47666424029E+01  0.23054005982E+03  0.23069321024E+03  0.00000000000E+00 0.  1.
         14    1    6    6    0    0  0.10529535529E+02  0.40181128207E+02  0.62434416868E+02  0.74989669903E+02  0.00000000000E+00 0. -1.
         -5    1    3    3    0  503  0.27627521793E+02 -0.37731686102E+02  0.84406522267E+02  0.96610098322E+02  0.47000000000E+01 0.  1.
         11    1    4    4    0    0  0.15902343514E+02  0.42538743800E+02  0.54613363304E+02  0.71028506282E+02  0.00000000000E+00 0. -1.
        -12    1    4    4    0    0 -0.67657988628E+02  0.55304003368E+02  0.18732662725E+03  0.20670607512E+03  0.00000000000E+00 0.  1.
</event>
<event>
12    1  0.9966151E-001  0.2317464E+03  0.7818608E-02  0.1125540E+00
         21   -1    0    0  501  502  0.00000000000E+00  0.00000000000E+00  0.31646658421E+02  0.31646658421E+02  0.00000000000E+00 0.  1.
         21   -1    0    0  502  503 -0.00000000000E+00 -0.00000000000E+00 -0.18417075853E+04  0.18417075853E+04  0.00000000000E+00 0.  1.
         -6    2    1    2    0  503 -0.12953531054E+03  0.85646154542E+02 -0.11709027364E+04  0.11934795572E+04  0.17107184110E+03 0.  0.
        -24    2    3    3    0    0 -0.79046401357E+02  0.49946181586E+02 -0.35165693823E+03  0.37189000890E+03  0.76789464701E+02 0.  0.
          6    2    1    2  501    0  0.12953531054E+03 -0.85646154542E+02 -0.63915819048E+03  0.67987468655E+03  0.17202248832E+03 0.  0.
         24    2    5    5    0    0  0.97982268678E+02 -0.75277276454E+02 -0.25732274395E+03  0.29656866480E+03  0.80441190073E+02 0.  0.
          5    1    5    5  501    0  0.31553041866E+02 -0.10368878088E+02 -0.38183544653E+03  0.38330602175E+03  0.47000000000E+01 0. -1.
        -11    1    6    6    0    0  0.23584989342E+02  0.27960880232E+01 -0.82354270809E+01  0.25137463867E+02  0.00000000000E+00 0.  1.
         12    1    6    6    0    0  0.74397279336E+02 -0.78073364477E+02 -0.24908731687E+03  0.27143120093E+03  0.00000000000E+00 0. -1.
         -5    1    3    3    0  503 -0.50488909187E+02  0.35699972956E+02 -0.81924579817E+03  0.82158954828E+03  0.47000000000E+01 0.  1.
         11    1    4    4    0    0 -0.75307422935E+02  0.68604731492E+02 -0.30143614303E+03  0.31818479765E+03  0.00000000000E+00 0. -1.
        -12    1    4    4    0    0 -0.37389784214E+01 -0.18658549906E+02 -0.50220795200E+02  0.53705211244E+02  0.00000000000E+00 0.  1.
</event>
<event>
12    1  0.9966151E-001  0.2216176E+03  0.7818608E-02  0.1132894E+00
         21   -1    0    0  503  502  0.00000000000E+00  0.00000000000E+00  0.28072086161E+03  0.28072086161E+03  0.00000000000E+00 0.  1.
         21   -1    0    0  501  503 -0.00000000000E+00 -0.00000000000E+00 -0.23438832896E+03  0.23438832896E+03  0.00000000000E+00 0.  1.
          6    2    1    2  501    0  0.12083440041E+03 -0.66884449651E+02 -0.10754475758E+03  0.24530816931E+03  0.17185965530E+03 0.  0.
         24    2    3    3    0    0  0.94950535569E+01 -0.24083962083E+01 -0.21579004281E+01  0.78928809757E+02  0.78288850170E+02 0.  0.
         -6    2    1    2    0  502 -0.12083440041E+03  0.66884449651E+02  0.15387729024E+03  0.26980102125E+03  0.17332019124E+03 0.  0.
        -24    2    5    5    0    0 -0.10241223169E+03  0.21846196310E+02  0.26635602260E+02  0.13349123538E+03  0.78389623820E+02 0.  0.
          5    1    3    3  501    0  0.11133934685E+03 -0.64476053442E+02 -0.10538685716E+03  0.16637935956E+03  0.47000000000E+01 0. -1.
        -11    1    4    4    0    0 -0.11102221227E+02  0.19911757713E+02 -0.30032077876E+02  0.37704948123E+02  0.00000000000E+00 0.  1.
         12    1    4    4    0    0  0.20597274784E+02 -0.22320153922E+02  0.27874177448E+02  0.41223861634E+02  0.00000000000E+00 0. -1.
         -5    1    5    5    0  502 -0.18422168719E+02  0.45038253341E+02  0.12724168798E+03  0.13630978587E+03  0.47000000000E+01 0.  1.
         13    1    6    6    0    0 -0.10923256216E+03  0.13186055465E+02  0.39178374616E+02  0.11679284967E+03  0.00000000000E+00 0. -1.
        -14    1    6    6    0    0  0.68203304702E+01  0.86601408444E+01 -0.12542772356E+02  0.16698385717E+02  0.00000000000E+00 0.  1.
</event>
<event>
12    1  0.9966151E-001  0.2335509E+03  0.7818608E-02  0.1124465E+00
         21   -1    0    0  503  502  0.00000000000E+00  0.00000000000E+00  0.13710132460E+03  0.13710132460E+03  0.00000000000E+00 0.  1.
         21   -1    0    0  501  503 -0.00000000000E+00 -0.00000000000E+00 -0.54297909729E+03  0.54297909729E+03  0.00000000000E+00 0.  1.
          6    2    1    2  501    0 -0.10093375373E+03  0.11846141878E+03 -0.24815890212E+02  0.23314175296E+03  0.17180954044E+03 0.  0.
         24    2    3    3    0    0 -0.43099726187E+02  0.13438956586E+03 -0.48065071907E+02  0.16863520244E+03  0.78799990829E+02 0.  0.
         -6    2    1    2    0  502  0.10093375373E+03 -0.11846141878E+03 -0.38106188247E+03  0.44693866893E+03  0.17414156636E+03 0.  0.
        -24    2    5    5    0    0  0.11059176960E+03 -0.51485768622E+02 -0.33446184617E+03  0.36464244564E+03  0.78854693857E+02 0.  0.
          5    1    3    3  501    0 -0.57834027540E+02 -0.15928147081E+02  0.23249181695E+02  0.64506550523E+02  0.47000000000E+01 0. -1.
        -13    1    4    4    0    0 -0.64565021526E+01  0.10015771780E+03 -0.17608178513E+01  0.10038105068E+03  0.00000000000E+00 0.  1.
         14    1    4    4    0    0 -0.36643224034E+02  0.34231848058E+02 -0.46304254056E+02  0.68254151762E+02  0.00000000000E+00 0. -1.
         -5    1    5    5    0  502 -0.96580158753E+01 -0.66975650157E+02 -0.46600036295E+02  0.82296223287E+02  0.47000000000E+01 0.  1.
         13    1    6    6    0    0 -0.69531190549E+01 -0.22492863310E+02 -0.68175886368E+02  0.72126460100E+02  0.00000000000E+00 0. -1.
        -14    1    6    6    0    0  0.11754488866E+03 -0.28992905311E+02 -0.26628595981E+03  0.29251598554E+03  0.00000000000E+00 0.  1.
</event>
<event>
12    1  0.9966151E-001  0.2330923E+03  0.7818608E-02  0.1124893E+00
         21   -1    0    0  503  502  0.00000000000E+00  0.00000000000E+00  0.26948962729E+03  0.26948962729E+03  0.00000000000E+00 0. -1.
         21   -1    0    0  501  503 -0.00000000000E+00 -0.00000000000E+00 -0.38811370603E+03  0.38811370603E+03  0.00000000000E+00 0. -1.
          6    2    1    2  501    0  0.65276627076E+02 -0.13856043328E+03 -0.28863471632E+03  0.37100139398E+03  0.17570430603E+03 0.  0.
         24    2    3    3    0    0  0.79112106156E+02 -0.13717380902E+03 -0.30292095677E+03  0.35051896555E+03  0.77634141572E+02 0.  0.
         -6    2    1    2    0  502 -0.65276627076E+02  0.13856043328E+03  0.17001063758E+03  0.28660193934E+03  0.17256020117E+03 0.  0.
        -24    2    5    5    0    0 -0.23395284699E+02  0.61704406830E+01  0.24718042791E+02  0.85571630480E+02  0.78269461601E+02 0.  0.
          5    1    3    3  501    0 -0.13835479079E+02 -0.13866242662E+01  0.14286240453E+02  0.20482428432E+02  0.47000000000E+01 0. -1.
        -11    1    4    4    0    0  0.32531448624E+02 -0.84861453392E+02 -0.23898074133E+03  0.25567861887E+03  0.00000000000E+00 0.  1.
         12    1    4    4    0    0  0.46580657532E+02 -0.52312355626E+02 -0.63940215440E+02  0.94840346677E+02  0.00000000000E+00 0. -1.
         -5    1    5    5    0  502 -0.41881342378E+02  0.13238999260E+03  0.14529259478E+03  0.20103030886E+03  0.47000000000E+01 0.  1.
         13    1    6    6    0    0 -0.26634216369E+02  0.77054441903E+01  0.51532875302E+02  0.58518309858E+02  0.00000000000E+00 0. -1.
        -14    1    6    6    0    0  0.32389316703E+01 -0.15350035073E+01 -0.26814832510E+02  0.27053320622E+02  0.00000000000E+00 0.  1.
</event>
<event>
12    1  0.9966151E-001  0.2092025E+03  0.7818608E-02  0.1142565E+00
         21   -1    0    0  503  502  0.00000000000E+00  0.00000000000E+00  0.23158209727E+03  0.23158209727E+03  0.00000000000E+00 0.  1.
         21   -1    0    0  501  503 -0.00000000000E+00 -0.00000000000E+00 -0.19201022334E+03  0.19201022334E+03  0.00000000000E+00 0.  1.
          6    2    1    2  501    0  0.76081633853E+02 -0.85711154815E+02  0.52917582347E+02  0.21579149660E+03  0.17501680609E+03 0.  0.
         24    2    3    3    0    0 -0.57782353078E+01 -0.62250885358E+02 -0.20798047287E+02  0.10306392023E+03  0.79253089221E+02 0.  0.
         -6    2    1    2    0  502 -0.76081633853E+02  0.85711154815E+02 -0.13345708413E+02  0.20780082400E+03  0.17282435434E+03 0.  0.
        -24    2    5    5    0    0 -0.58506827988E+02  0.11140770914E+03 -0.52063110107E+02  0.15789777901E+03  0.79915046171E+02 0.  0.
          5    1    3    3  501    0  0.81859869161E+02 -0.23460269457E+02  0.73715629635E+02  0.11272757637E+03  0.47000000000E+01 0. -1.
        -13    1    4    4    0    0  0.58695090559E+01  0.49789176376E+01 -0.32881992168E+02  0.33770788655E+02  0.00000000000E+00 0.  1.
         14    1    4    4    0    0 -0.11647744364E+02 -0.67229802996E+02  0.12083944881E+02  0.69293131575E+02  0.00000000000E+00 0. -1.
         -5    1    5    5    0  502 -0.17574805865E+02 -0.25696554329E+02  0.38717401694E+02  0.49903044993E+02  0.47000000000E+01 0.  1.
         11    1    6    6    0    0 -0.60030669401E+02  0.45345283021E+02 -0.24607912689E+01  0.75272381753E+02  0.00000000000E+00 0. -1.
        -12    1    6    6    0    0  0.15238414135E+01  0.66062426123E+02 -0.49602318838E+02  0.82625397258E+02  0.00000000000E+00 0.  1.
</event>
<event>
12    1  0.9966151E-001  0.1828798E+03  0.7818608E-02  0.1166634E+00
         21   -1    0    0  503  502  0.00000000000E+00  0.00000000000E+00  0.23791149386E+03  0.23791149386E+03  0.00000000000E+00 0.  1.
         21   -1    0    0  501  503 -0.00000000000E+00 -0.00000000000E+00 -0.26269357583E+03  0.26269357583E+03  0.00000000000E+00 0.  1.
          6    2    1    2  501    0  0.26311355594E+02  0.27658577669E+02  0.16159989078E+03  0.24404822333E+03  0.17885112876E+03 0.  0.
         24    2    3    3    0    0 -0.10736643195E+02  0.55564184033E+02  0.23488147705E+02  0.98280529185E+02  0.76842145206E+02 0.  0.
         -6    2    1    2    0  502 -0.26311355594E+02 -0.27658577669E+02 -0.18638197275E+03  0.25655684636E+03  0.17212173395E+03 0.  0.
        -24    2    5    5    0    0  0.40493782036E+02 -0.39018490759E+01 -0.15399701226E+03  0.17846597473E+03  0.80498779746E+02 0.  0.
          5    1    3    3  501    0  0.37047998789E+02 -0.27905606365E+02  0.13811174308E+03  0.14576769415E+03  0.47000000000E+01 0. -1.
        -13    1    4    4    0    0 -0.62239178688E+01  0.17216724688E+02 -0.28286152329E+02  0.33693607349E+02  0.00000000000E+00 0.  1.
         14    1    4    4    0    0 -0.45127253267E+01  0.38347459346E+02  0.51774300034E+02  0.64586921836E+02  0.00000000000E+00 0. -1.
         -5    1    5    5    0  502 -0.66805137630E+02 -0.23756728593E+02 -0.32384960489E+02  0.78090871637E+02  0.47000000000E+01 0.  1.
         13    1    6    6    0    0  0.55532159588E+02 -0.10309374279E+02 -0.57521115132E+02  0.80615027337E+02  0.00000000000E+00 0. -1.
        -14    1    6    6    0    0 -0.15038377552E+02  0.64075252028E+01 -0.96475897126E+02  0.97850947389E+02  0.00000000000E+00 0.  1.
</event>
<event>
12    1  0.9966151E-001  0.1762104E+03  0.7818608E-02  0.1171709E+00
         21   -1    0    0  501  502  0.00000000000E+00  0.00000000000E+00  0.86531528506E+03  0.86531528506E+03  0.00000000000E+00 0.  1.
         21   -1    0    0  502  503 -0.00000000000E+00 -0.00000000000E+00 -0.68225603942E+02  0.68225603942E+02  0.00000000000E+00 0.  1.
         -6    2    1    2    0  503 -0.66478493463E+01  0.33713376686E+02  0.75961783099E+02  0.19119625187E+03  0.17206111871E+03 0.  0.
        -24    2    3    3    0    0  0.42082012696E+01 -0.26671827864E+02 -0.13314409011E+02  0.82768602073E+02  0.77099109218E+02 0.  0.
          6    2    1    2  501    0  0.66478493463E+01 -0.33713376686E+02  0.72112789802E+03  0.74234463713E+03  0.17282745530E+03 0.  0.
         24    2    5    5    0    0  0.62143319810E+01 -0.76203039293E+02  0.31107905002E+03  0.33007323731E+03  0.79577920972E+02 0.  0.
          5    1    5    5  501    0  0.43351736533E+00  0.42489662606E+02  0.41004884800E+03  0.41227139983E+03  0.47000000000E+01 0. -1.
        -11    1    6    6    0    0 -0.16234995581E+01 -0.33244282427E+02  0.27565954166E+02  0.43216893618E+02  0.00000000000E+00 0.  1.
         12    1    6    6    0    0  0.78378315390E+01 -0.42958756866E+02  0.28351309585E+03  0.28685634369E+03  0.00000000000E+00 0. -1.
         -5    1    3    3    0  503 -0.10856050616E+02  0.60385204550E+02  0.89276192109E+02  0.10842764980E+03  0.47000000000E+01 0.  1.
         11    1    4    4    0    0  0.23473365530E+02 -0.46634550956E+02 -0.50492548436E+00  0.52211446848E+02  0.00000000000E+00 0. -1.
        -12    1    4    4    0    0 -0.19265164261E+02  0.19962723092E+02 -0.12809483526E+02  0.30557155225E+02  0.00000000000E+00 0.  1.
</event>
<event>
12    1  0.9966151E-001  0.2489930E+03  0.7818608E-02  0.1113969E+00
         21   -1    0    0  501  502  0.00000000000E+00  0.00000000000E+00  0.27889601068E+03  0.27889601068E+03  0.00000000000E+00 0. -1.
         21   -1    0    0  502  503 -0.00000000000E+00 -0.00000000000E+00 -0.22513486892E+03  0.22513486892E+03  0.00000000000E+00 0. -1.
         -6    2    1    2    0  503  0.13421053729E+03  0.11986587062E+03  0.55890485587E+02  0.25502877990E+03  0.17185935221E+03 0.  0.
        -24    2    3    3    0    0  0.61910191929E+02  0.13791987591E+03  0.17425377498E+02  0.17103508022E+03  0.78067860541E+02 0.  0.
          6    2    1    2  501    0 -0.13421053729E+03 -0.11986587062E+03 -0.21293438328E+01  0.24900209969E+03  0.17209653188E+03 0.  0.
         24    2    5    5    0    0 -0.15755737280E+03 -0.13089498257E+03 -0.13022343913E+02  0.22058619764E+03  0.80813779520E+02 0.  0.
          5    1    5    5  501    0  0.23346835510E+02  0.11029111955E+02  0.10893000080E+02  0.28415902055E+02  0.47000000000E+01 0. -1.
        -13    1    6    6    0    0 -0.69561332701E+02 -0.32452147029E+02  0.28949919015E+02  0.82036690968E+02  0.00000000000E+00 0.  1.
         14    1    6    6    0    0 -0.87996040102E+02 -0.98442835542E+02 -0.41972262928E+02  0.13854950667E+03  0.00000000000E+00 0. -1.
         -5    1    3    3    0  503  0.72300345365E+02 -0.18054005289E+02  0.38465108088E+02  0.83993699687E+02  0.47000000000E+01 0.  1.
         13    1    4    4    0    0 -0.14272377713E+02  0.50467210511E+02 -0.57493528754E+01  0.52760735029E+02  0.00000000000E+00 0. -1.
        -14    1    4    4    0    0  0.76182569641E+02  0.87452665395E+02  0.23174730374E+02  0.11827434519E+03  0.00000000000E+00 0.  1.
</event>
<event>
12    1  0.9966151E-001  0.2484663E+03  0.7818608E-02  0.1114400E+00
         21   -1    0    0  503  502  0.00000000000E+00  0.00000000000E+00  0.83188038294E+03  0.83188038294E+03  0.00000000000E+00 0.  1.
         21   -1    0    0  501  503 -0.00000000000E+00 -0.00000000000E+00 -0.58000179749E+03  0.58000179749E+03  0.00000000000E+00 0. -1.
          6    2    1    2  501    0 -0.17866862820E+03 -0.17613250721E+02  0.78534619784E+03  0.82371364517E+03  0.17176383051E+03 0.  0.
         24    2    3    3    0    0 -0.13250399922E+03  0.53417926010E+02  0.51343804970E+03  0.53887556474E+03  0.79733673981E+02 0.  0.
         -6    2    1    2    0  502  0.17866862820E+03  0.17613250721E+02 -0.53346761239E+03  0.58816853526E+03  0.17065118545E+03 0.  0.
        -24    2    5    5    0    0  0.11928395534E+03 -0.48781533243E+02 -0.40318592710E+03  0.43027548845E+03  0.77264507786E+02 0.  0.
          5    1    3    3  501    0 -0.46164628985E+02 -0.71031176731E+02  0.27190814814E+03  0.28483808043E+03  0.47000000000E+01 0. -1.
        -13    1    4    4    0    0 -0.64536426121E+02  0.54649317609E+02  0.18408596817E+03  0.20258119826E+03  0.00000000000E+00 0.  1.
         14    1    4    4    0    0 -0.67967573097E+02 -0.12313915989E+01  0.32935208153E+03  0.33629436648E+03  0.00000000000E+00 0. -1.
         -5    1    5    5    0  502  0.59384672867E+02  0.66394783963E+02 -0.13028168529E+03  0.15789304681E+03  0.47000000000E+01 0.  1.
         13    1    6    6    0    0  0.11335647252E+03 -0.65752435352E+02 -0.33389166998E+03  0.35868749616E+03  0.00000000000E+00 0. -1.
        -14    1    6    6    0    0  0.59274828186E+01  0.16970902109E+02 -0.69294257118E+02  0.71587992293E+02  0.00000000000E+00 0.  1.
</event>
<event>
12    1  0.9966151E-001  0.1772597E+03  0.7818608E-02  0.1171869E+00
         21   -1    0    0  503  502  0.00000000000E+00  0.00000000000E+00  0.50347822445E+03  0.50347822445E+03  0.00000000000E+00 0. -1.
         21   -1    0    0  501  503 -0.00000000000E+00 -0.00000000000E+00 -0.11917475961E+03  0.11917475961E+03  0.00000000000E+00 0. -1.
          6    2    1    2  501    0  0.89482912669E+01  0.21136385979E+02 -0.24780712453E+02  0.17898351352E+03  0.17576744771E+03 0.  0.
         24    2    3    3    0    0  0.49366296230E+01  0.82078495655E+02 -0.24442444657E+02  0.11772799470E+03  0.80630006046E+02 0.  0.
         -6    2    1    2    0  502 -0.89482912669E+01 -0.21136385979E+02  0.40908417729E+03  0.44366947053E+03  0.17019376088E+03 0.  0.
        -24    2    5    5    0    0 -0.48049656104E+02  0.34578184385E+02  0.20379159749E+03  0.22733601634E+03  0.81524406337E+02 0.  0.
          5    1    3    3  501    0  0.40116616439E+01 -0.60942109675E+02 -0.33826779609E+00  0.61255518820E+02  0.47000000000E+01 0. -1.
        -13    1    4    4    0    0  0.21689989922E+02  0.51496723803E+02 -0.49611001138E+02  0.74723621829E+02  0.00000000000E+00 0.  1.
         14    1    4    4    0    0 -0.16753360299E+02  0.30581771851E+02  0.25168556482E+02  0.43004372874E+02  0.00000000000E+00 0. -1.
         -5    1    5    5    0  502  0.39101364837E+02 -0.55714570364E+02  0.20529257980E+03  0.21633345419E+03  0.47000000000E+01 0.  1.
         13    1    6    6    0    0 -0.13470708778E+02  0.35768037671E+02  0.26039638056E+02  0.46247975782E+02  0.00000000000E+00 0. -1.
        -14    1    6    6    0    0 -0.34578947326E+02 -0.11898532855E+01  0.17775195944E+03  0.18108804056E+03  0.00000000000E+00 0.  1.
</event>
<event>
12    1  0.9966151E-001  0.3622799E+03  0.7818608E-02  0.1057717E+00
         21   -1    0    0  501  502  0.00000000000E+00  0.00000000000E+00  0.52911222763E+03  0.52911222763E+03  0.00000000000E+00 0.  1.
         21   -1    0    0  502  503 -0.00000000000E+00 -0.00000000000E+00 -0.35867154940E+03  0.35867154940E+03  0.00000000000E+00 0.  1.
         -6    2    1    2    0  503  0.44992629121E+02 -0.31532456459E+03 -0.16157587690E+03  0.39637588861E+03  0.17191033524E+03 0.  0.
        -24    2    3    3    0    0  0.47056086584E+02 -0.10731542420E+03 -0.11670527977E+03  0.18352025483E+03  0.79553039238E+02 0.  0.
          6    2    1    2  501    0 -0.44992629121E+02  0.31532456459E+03  0.33201655514E+03  0.49140788842E+03  0.17260591589E+03 0.  0.
         24    2    5    5    0    0 -0.33146309506E+02  0.12337459499E+03  0.69918352448E+02  0.16628839658E+03  0.80270083499E+02 0.  0.
          5    1    5    5  501    0 -0.11846319616E+02  0.19194996960E+03  0.26209820269E+03  0.32511949184E+03  0.47000000000E+01 0. -1.
        -13    1    6    6    0    0 -0.32808242862E+02  0.64661565567E+01  0.21468039253E+02  0.39737497274E+02  0.00000000000E+00 0.  1.
         14    1    6    6    0    0 -0.33806664412E+00  0.11690843844E+03  0.48450313195E+02  0.12655089931E+03  0.00000000000E+00 0. -1.
         -5    1    3    3    0  503 -0.20634574627E+01 -0.20800914039E+03 -0.44870597135E+02  0.21285563378E+03  0.47000000000E+01 0.  1.
         13    1    4    4    0    0  0.65085834400E+02 -0.87260800054E+02 -0.69498710843E+02  0.12915372188E+03  0.00000000000E+00 0. -1.
        -14    1    4    4    0    0 -0.18029747816E+02 -0.20054624145E+02 -0.47206568927E+02  0.54366532957E+02  0.00000000000E+00 0.  1.
</event>
<event>
12    1  0.9966151E-001  0.5889371E+03  0.7818608E-02  0.9928685E-01
         21   -1    0    0  501  502  0.00000000000E+00  0.00000000000E+00  0.11203447237E+03  0.11203447237E+03  0.00000000000E+00 0.  1.
         21   -1    0    0  502  503 -0.00000000000E+00 -0.00000000000E+00 -0.34500195435E+04  0.34500195435E+04  0.00000000000E+00 0.  1.
         -6    2    1    2    0  503 -0.37826337328E+03  0.41714910633E+03 -0.10977922017E+04  0.12457399255E+04  0.17211533177E+03 0.  0.
        -24    2    3    3    0    0 -0.38540985636E+03  0.41562956102E+03 -0.10481353423E+04  0.11953288660E+04  0.94523609217E+02 0.  0.
          6    2    1    2  501    0  0.37826337328E+03 -0.41714910633E+03 -0.22401928695E+04  0.23163140904E+04  0.17248280033E+03 0.  0.
         24    2    5    5    0    0  0.85358669500E+02 -0.16304498971E+03 -0.74757119213E+03  0.77413912325E+03  0.80987182445E+02 0.  0.
          5    1    5    5  501    0  0.29290470378E+03 -0.25410411662E+03 -0.14926216773E+04  0.15421749671E+04  0.47000000000E+01 0. -1.
        -11    1    6    6    0    0  0.39004561152E+02 -0.26074063661E+02 -0.30384128746E+03  0.30744225564E+03  0.00000000000E+00 0.  1.
         12    1    6    6    0    0  0.46354108348E+02 -0.13697092605E+03 -0.44372990467E+03  0.46669686761E+03  0.00000000000E+00 0. -1.
         -5    1    3    3    0  503  0.71464830840E+01  0.15195453083E+01 -0.49656859316E+02  0.50411059457E+02  0.47000000000E+01 0.  1.
         11    1    4    4    0    0 -0.11065494744E+03  0.17575013242E+03 -0.43200249636E+03  0.47933160057E+03  0.00000000000E+00 0. -1.
        -12    1    4    4    0    0 -0.27475490892E+03  0.23987942860E+03 -0.61613284598E+03  0.71599726545E+03  0.00000000000E+00 0.  1.
</event>
<event>
12    1  0.9966151E-001  0.2960946E+03  0.7818608E-02  0.1087365E+00
         21   -1    0    0  503  502  0.00000000000E+00  0.00000000000E+00  0.99952974298E+03  0.99952974298E+03  0.00000000000E+00 0.  1.
         21   -1    0    0  501  503 -0.00000000000E+00 -0.00000000000E+00 -0.89551648134E+02  0.89551648134E+02  0.00000000000E+00 0.  1.
          6    2    1    2  501    0 -0.15893797399E+03 -0.18145204944E+03  0.54125904519E+03  0.61695489914E+03  0.17171449489E+03 0.  0.
         24    2    3    3    0    0 -0.55629695602E+02 -0.74367728398E+01  0.10068173875E+03  0.13209990038E+03  0.64525983453E+02 0.  0.
         -6    2    1    2    0  502  0.15893797399E+03  0.18145204944E+03  0.36871904966E+03  0.47212649197E+03  0.16959823412E+03 0.  0.
        -24    2    5    5    0    0  0.16548226883E+03  0.10736780908E+03  0.22134117815E+03  0.30697919567E+03  0.79574378462E+02 0.  0.
          5    1    3    3  501    0 -0.10330827839E+03 -0.17401527660E+03  0.44057730644E+03  0.48485499876E+03  0.47000000000E+01 0. -1.
        -13    1    4    4    0    0 -0.33140653741E+02 -0.24188051342E+02  0.18020936053E+02  0.44812039614E+02  0.00000000000E+00 0.  1.
         14    1    4    4    0    0 -0.22489041861E+02  0.16751278502E+02  0.82660802695E+02  0.87287860768E+02  0.00000000000E+00 0. -1.
         -5    1    5    5    0  502 -0.65442948342E+01  0.74084240356E+02  0.14737787152E+03  0.16514729630E+03  0.47000000000E+01 0.  1.
         13    1    6    6    0    0  0.48585916040E+02  0.22478733798E+02  0.15932661086E+02  0.55854582622E+02  0.00000000000E+00 0. -1.
        -14    1    6    6    0    0  0.11689635279E+03  0.84889075285E+02  0.20540851706E+03  0.25112461305E+03  0.00000000000E+00 0.  1.
</event>
<event>
12    1  0.9966151E-001  0.2103829E+03  0.7818608E-02  0.1141438E+00
         21   -1    0    0  501  502  0.00000000000E+00  0.00000000000E+00  0.81772996161E+03  0.81772996161E+03  0.00000000000E+00 0.  1.
         21   -1    0    0  502  503 -0.00000000000E+00 -0.00000000000E+00 -0.55530681815E+02  0.55530681815E+02  0.00000000000E+00 0.  1.
         -6    2    1    2    0  503  0.11026490366E+03 -0.47790014053E+02  0.45514789360E+03  0.50104898883E+03  0.17160492339E+03 0.  0.
        -24    2    3    3    0    0  0.83337499658E+02  0.11702458380E+02  0.39937510747E+03  0.41504240166E+03  0.75350065241E+02 0.  0.
          6    2    1    2  501    0 -0.11026490366E+03  0.47790014053E+02  0.30705138619E+03  0.37221165459E+03  0.17268099963E+03 0.  0.
         24    2    5    5    0    0 -0.38219777647E+02 -0.57673020721E+01  0.58281668870E+02  0.10769823613E+03  0.81903259778E+02 0.  0.
          5    1    5    5  501    0 -0.72045126013E+02  0.53557316125E+02  0.24876971732E+03  0.26451341846E+03  0.47000000000E+01 0. -1.
        -11    1    6    6    0    0 -0.12504424685E+02  0.37681236608E+02  0.20819273087E+02  0.44829436321E+02  0.00000000000E+00 0.  1.
         12    1    6    6    0    0 -0.25715352963E+02 -0.43448538680E+02  0.37462395783E+02  0.62868799807E+02  0.00000000000E+00 0. -1.
         -5    1    3    3    0  503  0.26927404003E+02 -0.59492472433E+02  0.55772786133E+02  0.86006587164E+02  0.47000000000E+01 0.  1.
         11    1    4    4    0    0  0.83020705743E+02 -0.15289573224E+02  0.27032238903E+03  0.28319675606E+03  0.00000000000E+00 0. -1.
        -12    1    4    4    0    0  0.31679391468E+00  0.26992031604E+02  0.12905271844E+03  0.13184564561E+03  0.00000000000E+00 0.  1.
</event>
<event>
12    1  0.9966151E-001  0.1837443E+03  0.7818608E-02  0.1164366E+00
         21   -1    0    0  503  502  0.00000000000E+00  0.00000000000E+00  0.88513888605E+02  0.88513888605E+02  0.00000000000E+00 0. -1.
         21   -1    0    0  501  503 -0.00000000000E+00 -0.00000000000E+00 -0.74045065398E+03  0.74045065398E+03  0.00000000000E+00 0. -1.
          6    2    1    2  501    0  0.60499504146E+02  0.23892645962E+02 -0.36598538838E+02  0.18677833973E+03  0.17121812584E+03 0.  0.
         24    2    3    3    0    0  0.10464351499E+03  0.48791541691E+02 -0.35764951676E+02  0.13587221466E+03  0.62058417460E+02 0.  0.
         -6    2    1    2    0  502 -0.60499504146E+02 -0.23892645962E+02 -0.61533822654E+03  0.64218620285E+03  0.17184567950E+03 0.  0.
        -24    2    5    5    0    0 -0.88166646994E+02  0.16546010692E+02 -0.53307199859E+03  0.54631870051E+03  0.79064775535E+02 0.  0.
          5    1    3    3  501    0 -0.44144010848E+02 -0.24898895729E+02 -0.83358716197E+00  0.50906125071E+02  0.47000000000E+01 0. -1.
        -11    1    4    4    0    0  0.88400344105E+02  0.28553966000E+02 -0.50801288438E+02  0.10588069096E+03  0.00000000000E+00 0.  1.
         12    1    4    4    0    0  0.16243170889E+02  0.20237575691E+02  0.15036336762E+02  0.29991523696E+02  0.00000000000E+00 0. -1.
         -5    1    5    5    0  502  0.27667142848E+02 -0.40438656655E+02 -0.82266227943E+02  0.95867502343E+02  0.47000000000E+01 0.  1.
         11    1    6    6    0    0 -0.26231767290E+02 -0.81883855713E+00 -0.33177013385E+02  0.42302367887E+02  0.00000000000E+00 0. -1.
        -12    1    6    6    0    0 -0.61934879704E+02  0.17364849249E+02 -0.49989498521E+03  0.50401633262E+03  0.00000000000E+00 0.  1.
</event>
<event>
12    1  0.9966151E-001  0.4172904E+03  0.7818608E-02  0.1038109E+00
         21   -1    0    0  501  502  0.00000000000E+00  0.00000000000E+00  0.18792513892E+03  0.18792513892E+03  0.00000000000E+00 0.  1.
         21   -1    0    0  502  503 -0.00000000000E+00 -0.00000000000E+00 -0.10304130194E+04  0.10304130194E+04  0.00000000000E+00 0.  1.
         -6    2    1    2    0  503  0.35725431193E+03  0.12669919361E+03 -0.22310965256E+03  0.47150438649E+03  0.16986800863E+03 0.  0.
        -24    2    3    3    0    0  0.29759686091E+03  0.15663680679E+03 -0.20604286960E+03  0.40244906644E+03  0.80078749381E+02 0.  0.
          6    2    1    2  501    0 -0.35725431193E+03 -0.12669919361E+03 -0.61937822794E+03  0.74683377184E+03  0.17449345105E+03 0.  0.
         24    2    5    5    0    0 -0.11313590410E+03 -0.10115987503E+03 -0.23229167523E+03  0.28846258696E+03  0.78855491785E+02 0.  0.
          5    1    5    5  501    0 -0.24411840783E+03 -0.25539318578E+02 -0.38708655271E+03  0.45837118488E+03  0.47000000000E+01 0. -1.
        -11    1    6    6    0    0 -0.10592944392E+00 -0.34446095546E+02 -0.81920858309E+02  0.88868283124E+02  0.00000000000E+00 0.  1.
         12    1    6    6    0    0 -0.11302997466E+03 -0.66713779484E+02 -0.15037081692E+03  0.19959430384E+03  0.00000000000E+00 0. -1.
         -5    1    3    3    0  503  0.59657451023E+02 -0.29937613186E+02 -0.17066782957E+02  0.69055320043E+02  0.47000000000E+01 0.  1.
         13    1    4    4    0    0  0.20936404562E+02  0.21949501281E+02 -0.47352057162E+02  0.56234606426E+02  0.00000000000E+00 0. -1.
        -14    1    4    4    0    0  0.27666045635E+03  0.13468730551E+03 -0.15869081244E+03  0.34621446002E+03  0.00000000000E+00 0.  1.
</event>
<event>
12    1  0.9966151E-001  0.2522734E+03  0.7818608E-02  0.1111922E+00
         21   -1    0    0  501  502  0.00000000000E+00  0.00000000000E+00  0.94237839284E+03  0.94237839284E+03  0.00000000000E+00 0.  1.
         21   -1    0    0  502  503 -0.00000000000E+00 -0.00000000000E+00 -0.74138760614E+02  0.74138760614E+02  0.00000000000E+00 0.  1.
         -6    2    1    2    0  503 -0.11674902182E+03  0.14227896454E+03  0.28174166521E+03  0.37818013052E+03  0.17253465552E+03 0.  0.
        -24    2    3    3    0    0 -0.15517863053E+02  0.10923071872E+03  0.20966617307E+03  0.24950650997E+03  0.78239634480E+02 0.  0.
          6    2    1    2  501    0  0.11674902182E+03 -0.14227896454E+03  0.58649796702E+03  0.63833702294E+03  0.17210651263E+03 0.  0.
         24    2    5    5    0    0  0.90423238670E+01 -0.96017641777E+01  0.18298124383E+03  0.20009986320E+03  0.79899074860E+02 0.  0.
          5    1    5    5  501    0  0.10770669795E+03 -0.13267720037E+03  0.40351672319E+03  0.43823715974E+03  0.47000000000E+01 0. -1.
        -13    1    6    6    0    0 -0.82881529915E+01 -0.18673078225E+02  0.17896937269E+03  0.18013165655E+03  0.00000000000E+00 0.  1.
         14    1    6    6    0    0  0.17330476858E+02  0.90713140474E+01  0.40118711351E+01  0.19968206647E+02  0.00000000000E+00 0. -1.
         -5    1    3    3    0  503 -0.10123115877E+03  0.33048245825E+02  0.72075492144E+02  0.12867362055E+03  0.47000000000E+01 0.  1.
         11    1    4    4    0    0 -0.44256903192E+02  0.67330883289E+02  0.15615086228E+03  0.17571344034E+03  0.00000000000E+00 0. -1.
        -12    1    4    4    0    0  0.28739040139E+02  0.41899835429E+02  0.53515310786E+02  0.73793069631E+02  0.00000000000E+00 0.  1.
</event>
<event>
12    1  0.9966151E-001  0.2372170E+03  0.7818608E-02  0.1121769E+00
         21   -1    0    0  501  502  0.00000000000E+00  0.00000000000E+00  0.77015934240E+02  0.77015934240E+02  0.00000000000E+00 0. -1.
         21   -1    0    0  502  503 -0.00000000000E+00 -0.00000000000E+00 -0.73970219481E+03  0.73970219481E+03  0.00000000000E+00 0. -1.
         -6    2    1    2    0  503  0.14297818751E+03 -0.80302418795E+02 -0.28193577119E+03  0.36845580444E+03  0.17140787667E+03 0.  0.
        -24    2    3    3    0    0  0.10514174317E+03 -0.11842012025E+03 -0.17713915278E+03  0.25060430078E+03  0.79662570165E+02 0.  0.
          6    2    1    2  501    0 -0.14297818751E+03  0.80302418795E+02 -0.38075048938E+03  0.44826232460E+03  0.17051960571E+03 0.  0.
         24    2    5    5    0    0 -0.72830227102E+02 -0.35683601005E+01 -0.27617653608E+03  0.29689242796E+03  0.80960851813E+02 0.  0.
          5    1    5    5  501    0 -0.70147960406E+02  0.83870778895E+02 -0.10457395330E+03  0.15136989665E+03  0.47000000000E+01 0. -1.
        -11    1    6    6    0    0 -0.50636828270E+02  0.35296198216E+02 -0.19019883613E+03  0.19996376485E+03  0.00000000000E+00 0.  1.
         12    1    6    6    0    0 -0.22193398832E+02 -0.38864558317E+02 -0.85977699944E+02  0.96928663111E+02  0.00000000000E+00 0. -1.
         -5    1    3    3    0  503  0.37836444338E+02  0.38117701459E+02 -0.10479661841E+03  0.11785150366E+03  0.47000000000E+01 0.  1.
         11    1    4    4    0    0  0.15854070417E+01  0.89585515612E+01 -0.59556756544E-02  0.90977578025E+01  0.00000000000E+00 0. -1.
        -12    1    4    4    0    0  0.10355633613E+03 -0.12737867181E+03 -0.17713319710E+03  0.24150654298E+03  0.00000000000E+00 0.  1.
</event>
<event>
12    1  0.9966151E-001  0.1778047E+03  0.7818608E-02  0.1170083E+00
         21   -1    0    0  501  502  0.00000000000E+00  0.00000000000E+00  0.16419072722E+03  0.16419072722E+03  0.00000000000E+00 0.  1.
         21   -1    0    0  502  503 -0.00000000000E+00 -0.00000000000E+00 -0.21484562429E+03  0.21484562429E+03  0.00000000000E+00 0.  1.
         -6    2    1    2    0  503  0.23677989377E+02  0.35448258354E+02  0.36591854298E+02  0.18097952945E+03  0.17203894930E+03 0.  0.
        -24    2    3    3    0    0 -0.18236265617E+02  0.48529002133E+02  0.75231505893E+02  0.12230224845E+03  0.81304582069E+02 0.  0.
          6    2    1    2  501    0 -0.23677989377E+02 -0.35448258354E+02 -0.87246751374E+02  0.19805682207E+03  0.17261889509E+03 0.  0.
         24    2    5    5    0    0  0.25900220894E+02  0.24545774032E+01  0.13064401931E+02  0.79823825957E+02  0.74325757312E+02 0.  0.
          5    1    5    5  501    0 -0.49578210271E+02 -0.37902835757E+02 -0.10031115331E+03  0.11823299611E+03  0.47000000000E+01 0. -1.
        -11    1    6    6    0    0  0.34161669875E+02 -0.64611508653E+01 -0.23053123172E+02  0.41715856064E+02  0.00000000000E+00 0.  1.
         12    1    6    6    0    0 -0.82614489811E+01  0.89157282685E+01  0.36117525103E+02  0.38107969893E+02  0.00000000000E+00 0. -1.
         -5    1    3    3    0  503  0.41914254994E+02 -0.13080743780E+02 -0.38639651595E+02  0.58677280995E+02  0.47000000000E+01 0.  1.
         11    1    4    4    0    0  0.16593866625E+02  0.52154483514E+02  0.22885029143E+02  0.59322602093E+02  0.00000000000E+00 0. -1.
        -12    1    4    4    0    0 -0.34830132242E+02 -0.36254813809E+01  0.52346476749E+02  0.62979646358E+02  0.00000000000E+00 0.  1.
</event>
<event>
12    1  0.9966151E-001  0.2388663E+03  0.7818608E-02  0.1120635E+00
         21   -1    0    0  501  502  0.00000000000E+00  0.00000000000E+00  0.47863254989E+03  0.47863254989E+03  0.00000000000E+00 0. -1.
         21   -1    0    0  502  503 -0.00000000000E+00 -0.00000000000E+00 -0.15847685470E+03  0.15847685470E+03  0.00000000000E+00 0. -1.
         -6    2    1    2    0  503 -0.12233156966E+03  0.11057175897E+03  0.11284833574E+01  0.23886897071E+03  0.17281777940E+03 0.  0.
        -24    2    3    3    0    0 -0.57345094403E+02 -0.13502925448E+02  0.44474754586E+01  0.98687392074E+02  0.79048292003E+02 0.  0.
          6    2    1    2  501    0  0.12233156966E+03 -0.11057175897E+03  0.31902721184E+03  0.39824043388E+03  0.17212191745E+03 0.  0.
         24    2    5    5    0    0  0.15534944446E+03 -0.10609992515E+03  0.26575854557E+03  0.33523394088E+03  0.79771840651E+02 0.  0.
          5    1    5    5  501    0 -0.33017874806E+02 -0.44718338208E+01  0.53268666265E+02  0.63006492999E+02  0.47000000000E+01 0. -1.
        -13    1    6    6    0    0  0.55684016928E+02 -0.79601934840E+02  0.16232125601E+03  0.18917020887E+03  0.00000000000E+00 0.  1.
         14    1    6    6    0    0  0.99665427536E+02 -0.26497990314E+02  0.10343728956E+03  0.14606373201E+03  0.00000000000E+00 0. -1.
         -5    1    3    3    0  503 -0.64986475254E+02  0.12407468442E+03 -0.33189921012E+01  0.14018157864E+03  0.47000000000E+01 0.  1.
         13    1    4    4    0    0  0.32777468984E+01  0.26015104019E+02  0.13329948708E+01  0.26254640298E+02  0.00000000000E+00 0. -1.
        -14    1    4    4    0    0 -0.60622841302E+02 -0.39518029467E+02  0.31144805878E+01  0.72432751776E+02  0.00000000000E+00 0.  1.
</event>
<event>
12    1  0.9966151E-001  0.1770055E+03  0.7818608E-02  0.1171029E+00
         21   -1    0    0  501  502  0.00000000000E+00  0.00000000000E+00  0.55613732576E+03  0.55613732576E+03  0.00000000000E+00 0.  1.
         21   -1    0    0  502  503 -0.00000000000E+00 -0.00000000000E+00 -0.57079786637E+02  0.57079786637E+02  0.00000000000E+00 0.  1.
         -6    2    1    2    0  503 -0.27848434995E+02  0.29988110866E+02  0.29335405996E+03  0.34261867921E+03  0.17220956048E+03 0.  0.
        -24    2    3    3    0    0 -0.35198571980E+02  0.35074206811E+02  0.30969240056E+03  0.32341127805E+03  0.78843721060E+02 0.  0.
          6    2    1    2  501    0  0.27848434995E+02 -0.29988110866E+02  0.20570347917E+03  0.27059843319E+03  0.17098177850E+03 0.  0.
         24    2    5    5    0    0  0.11021226324E+02 -0.71051308641E+02  0.19647446750E+03  0.22502864255E+03  0.82860833323E+02 0.  0.
          5    1    5    5  501    0  0.16827208670E+02  0.41063197775E+02  0.92290116691E+01  0.45569790646E+02  0.47000000000E+01 0. -1.
        -13    1    6    6    0    0 -0.23802105420E+02 -0.69867094154E+02  0.14733603211E+03  0.16479034385E+03  0.00000000000E+00 0.  1.
         14    1    6    6    0    0  0.34823331744E+02 -0.11842144864E+01  0.49138435387E+02  0.60238298698E+02  0.00000000000E+00 0. -1.
         -5    1    3    3    0  503  0.73501369858E+01 -0.50860959447E+01 -0.16338340602E+02  0.19207401159E+02  0.47000000000E+01 0.  1.
         11    1    4    4    0    0 -0.16328011190E+02 -0.24185667196E+02  0.13083253529E+03  0.13404738990E+03  0.00000000000E+00 0. -1.
        -12    1    4    4    0    0 -0.18870560790E+02  0.59259874007E+02  0.17885986527E+03  0.18936388815E+03  0.00000000000E+00 0.  1.
</event>
<event>
12    1  0.9966151E-001  0.1899020E+03  0.7818608E-02  0.1161548E+00
         21   -1    0    0  503  502  0.00000000000E+00  0.00000000000E+00  0.15932283219E+03  0.15932283219E+03  0.00000000000E+00 0. -1.
         21   -1    0    0  501  503 -0.00000000000E+00 -0.00000000000E+00 -0.22299594554E+03  0.22299594554E+03  0.00000000000E+00 0. -1.
          6    2    1    2  501    0  0.43692697696E+02 -0.67750935914E+02 -0.74445174773E+02  0.19211152450E+03  0.15768802316E+03 0.  0.
         24    2    3    3    0    0  0.27797035037E+02  0.85179431053E+01 -0.72708988690E+02  0.11404284742E+03  0.82909248583E+02 0.  0.
         -6    2    1    2    0  502 -0.43692697696E+02  0.67750935914E+02  0.10772061425E+02  0.19020725323E+03  0.17194045692E+03 0.  0.
        -24    2    5    5    0    0  0.23794028486E+01 -0.26302019387E+02  0.87558609801E+01  0.85351390671E+02  0.80689138093E+02 0.  0.
          5    1    3    3  501    0  0.15895662659E+02 -0.76268879019E+02 -0.17361860827E+01  0.78068677075E+02  0.47000000000E+01 0. -1.
        -11    1    4    4    0    0 -0.16401969460E+00 -0.30438470063E+02 -0.46567785605E+01  0.30793066570E+02  0.00000000000E+00 0.  1.
         12    1    4    4    0    0  0.27961054732E+02  0.38956413168E+02 -0.68052210130E+02  0.83249780854E+02  0.00000000000E+00 0. -1.
         -5    1    5    5    0  502 -0.46072100544E+02  0.94052955301E+02  0.20162004446E+01  0.10485586256E+03  0.47000000000E+01 0.  1.
         11    1    6    6    0    0 -0.20771208811E+02 -0.13506393020E+02  0.38351029383E+02  0.45658156145E+02  0.00000000000E+00 0. -1.
        -12    1    6    6    0    0  0.23150611659E+02 -0.12795626368E+02 -0.29595168403E+02  0.39693234526E+02  0.00000000000E+00 0.  1.
</event>
<event>
12    1  0.9966151E-001  0.2161520E+03  0.7818608E-02  0.1136816E+00
         21   -1    0    0  503  502  0.00000000000E+00  0.00000000000E+00  0.74713104530E+03  0.74713104530E+03  0.00000000000E+00 0. -1.
         21   -1    0    0  501  503 -0.00000000000E+00 -0.00000000000E+00 -0.75725872502E+02  0.75725872502E+02  0.00000000000E+00 0. -1.
          6    2    1    2  501    0  0.99162816903E+02 -0.87042856105E+02  0.50783598630E+03  0.55192305823E+03  0.17120733095E+03 0.  0.
         24    2    3    3    0    0  0.89294656082E+02 -0.61747788658E+02  0.19009311781E+03  0.23298757649E+03  0.79758964091E+02 0.  0.
         -6    2    1    2    0  502 -0.99162816903E+02  0.87042856105E+02  0.16356918650E+03  0.27093385958E+03  0.17099869718E+03 0.  0.
        -24    2    5    5    0    0 -0.75530705397E+02  0.50172224135E+02  0.18572467685E+03  0.22162994544E+03  0.80025230981E+02 0.  0.
          5    1    3    3  501    0  0.98681608215E+01 -0.25295067447E+02  0.31774286849E+03  0.31893548174E+03  0.47000000000E+01 0. -1.
        -11    1    4    4    0    0  0.43311793814E+02 -0.32385304408E+02  0.25890850743E+02  0.59958782319E+02  0.00000000000E+00 0.  1.
         12    1    4    4    0    0  0.45982862268E+02 -0.29362484250E+02  0.16420226707E+03  0.17302879417E+03  0.00000000000E+00 0. -1.
         -5    1    5    5    0  502 -0.23632111507E+02  0.36870631970E+02 -0.22155490349E+02  0.49303914132E+02  0.47000000000E+01 0.  1.
         11    1    6    6    0    0 -0.58854002142E+02  0.72243863922E+02  0.13948456958E+03  0.16774657849E+03  0.00000000000E+00 0. -1.
        -12    1    6    6    0    0 -0.16676703255E+02 -0.22071639787E+02  0.46240107269E+02  0.53883366957E+02  0.00000000000E+00 0.  1.
</event>
<event>
12    1  0.9966151E-001  0.2211095E+03  0.7818608E-02  0.1133790E+00
         21   -1    0    0  503  502  0.00000000000E+00  0.00000000000E+00  0.21300030130E+03  0.21300030130E+03  0.00000000000E+00 0.  1.
         21   -1    0    0  501  503 -0.00000000000E+00 -0.00000000000E+00 -0.26682612677E+03  0.26682612677E+03  0.00000000000E+00 0.  1.
          6    2    1    2  501    0  0.13691287732E+03 -0.80583913466E+01  0.67720447216E+02  0.22751131315E+03  0.16841990676E+03 0.  0.
         24    2    3    3    0    0  0.98566886568E+01  0.17442831700E+02  0.22924996274E+01  0.82264992092E+02  0.79755041724E+02 0.  0.
         -6    2    1    2    0  502 -0.13691287732E+03  0.80583913466E+01 -0.12154627269E+03  0.25231511492E+03  0.17343398504E+03 0.  0.
        -24    2    5    5    0    0 -0.25392879464E+02  0.10834370730E+02  0.38828158031E+01  0.84389648647E+02  0.79651457134E+02 0.  0.
          5    1    3    3  501    0  0.12705618867E+03 -0.25501223046E+02  0.65427947588E+02  0.14524632106E+03  0.47000000000E+01 0. -1.
        -13    1    4    4    0    0 -0.28386358216E+01 -0.42486286411E+01  0.38142054757E+02  0.38482788877E+02  0.00000000000E+00 0.  1.
         14    1    4    4    0    0  0.12695324478E+02  0.21691460341E+02 -0.35849555130E+02  0.43782203215E+02  0.00000000000E+00 0. -1.
         -5    1    5    5    0  502 -0.11151999786E+03 -0.27759793838E+01 -0.12542908849E+03  0.16792546627E+03  0.47000000000E+01 0.  1.
         13    1    6    6    0    0 -0.41248869810E+02 -0.21135231949E+02 -0.74595833856E+01  0.46944783250E+02  0.00000000000E+00 0. -1.
        -14    1    6    6    0    0  0.15855990345E+02  0.31969602679E+02  0.11342399189E+02  0.37444865397E+02  0.00000000000E+00 0.  1.
</event>
<event>
12    1  0.9966151E-001  0.3403135E+03  0.7818608E-02  0.1066687E+00
         21   -1    0    0  503  502  0.00000000000E+00  0.00000000000E+00  0.13434962908E+04  0.13434962908E+04  0.00000000000E+00 0. -1.
         21   -1    0    0  501  503 -0.00000000000E+00 -0.00000000000E+00 -0.86476370422E+02  0.86476370422E+02  0.00000000000E+00 0. -1.
          6    2    1    2  501    0 -0.25200793776E+03  0.15069536830E+03  0.58437182099E+03  0.67624233203E+03  0.17203537929E+03 0.  0.
         24    2    3    3    0    0 -0.71632739285E+02  0.56210614265E+01  0.21561487194E+03  0.24082811061E+03  0.79659024513E+02 0.  0.
         -6    2    1    2    0  502  0.25200793776E+03 -0.15069536830E+03  0.67264809934E+03  0.75373032916E+03  0.17157170168E+03 0.  0.
        -24    2    5    5    0    0  0.18017721800E+03 -0.53818669700E+02  0.52304377343E+03  0.56151094573E+03  0.79746311241E+02 0.  0.
          5    1    3    3  501    0 -0.18037519848E+03  0.14507430687E+03  0.36875694905E+03  0.43541422142E+03  0.47000000000E+01 0. -1.
        -11    1    4    4    0    0 -0.64769953403E+02 -0.12204410092E+02  0.78997720404E+02  0.10288213800E+03  0.00000000000E+00 0.  1.
         12    1    4    4    0    0 -0.68627858819E+01  0.17825471519E+02  0.13661715154E+03  0.13794597261E+03  0.00000000000E+00 0. -1.
         -5    1    5    5    0  502  0.71830719766E+02 -0.96876698597E+02  0.14960432592E+03  0.19221938343E+03  0.47000000000E+01 0.  1.
         13    1    6    6    0    0  0.10169021378E+03 -0.59709415875E+02  0.38442775790E+03  0.40210796432E+03  0.00000000000E+00 0. -1.
        -14    1    6    6    0    0  0.78487004221E+02  0.58907461749E+01  0.13861601553E+03  0.15940298141E+03  0.00000000000E+00 0.  1.
</event>
<event>
12    1  0.9966151E-001  0.1779736E+03  0.7818608E-02  0.1170051E+00
         21   -1    0    0  503  502  0.00000000000E+00  0.00000000000E+00  0.18171308969E+03  0.18171308969E+03  0.00000000000E+00 0.  1.
         21   -1    0    0  501  503 -0.00000000000E+00 -0.00000000000E+00 -0.34982098584E+03  0.34982098584E+03  0.00000000000E+00 0.  1.
          6    2    1    2  501    0  0.43349744472E+02 -0.16392060197E+02  0.10490003674E+03  0.20563848956E+03  0.17069057003E+03 0.  0.
         24    2    3    3    0    0 -0.15481741398E+02  0.41017834852E+02  0.17652623238E+02  0.85674991185E+02  0.71459372476E+02 0.  0.
         -6    2    1    2    0  502 -0.43349744472E+02  0.16392060197E+02 -0.27300793289E+03  0.32589558597E+03  0.17183335401E+03 0.  0.
        -24    2    5    5    0    0 -0.82438620859E+01  0.73407648658E+02 -0.16939023610E+03  0.20243742547E+03  0.82651164550E+02 0.  0.
          5    1    3    3  501    0  0.58831485870E+02 -0.57409895049E+02  0.87247413502E+02  0.11996349837E+03  0.47000000000E+01 0. -1.
        -13    1    4    4    0    0  0.77072914022E+01 -0.14717057158E+02 -0.98770842464E+01  0.19327465053E+02  0.00000000000E+00 0.  1.
         14    1    4    4    0    0 -0.23189032801E+02  0.55734892010E+02  0.27529707484E+02  0.66347526132E+02  0.00000000000E+00 0. -1.
         -5    1    5    5    0  502 -0.35105882386E+02 -0.57015588461E+02 -0.10361769678E+03  0.12345816049E+03  0.47000000000E+01 0.  1.
         13    1    6    6    0    0  0.34510592112E+02  0.46156533010E+02 -0.68460081998E+02  0.89488487162E+02  0.00000000000E+00 0. -1.
        -14    1    6    6    0    0 -0.42754454198E+02  0.27251115648E+02 -0.10093015411E+03  0.11294893831E+03  0.00000000000E+00 0.  1.
</event>
<event>
12    1  0.9966151E-001  0.2848742E+03  0.7818608E-02  0.1093071E+00
         21   -1    0    0  501  502  0.00000000000E+00  0.00000000000E+00  0.25679963995E+02  0.25679963995E+02  0.00000000000E+00 0.  1.
         21   -1    0    0  502  503 -0.00000000000E+00 -0.00000000000E+00 -0.37002040499E+04  0.37002040499E+04  0.00000000000E+00 0. -1.
         -6    2    1    2    0  503  0.94459411491E+02 -0.20603066279E+03 -0.11244346809E+04  0.11599320898E+04  0.17238876689E+03 0.  0.
        -24    2    3    3    0    0 -0.94636885616E+01 -0.61430689550E+02 -0.37016505756E+03  0.38491343348E+03  0.85281243024E+02 0.  0.
          6    2    1    2  501    0 -0.94459411491E+02  0.20603066279E+03 -0.25500894050E+04  0.25659519240E+04  0.17257487861E+03 0.  0.
         24    2    5    5    0    0 -0.12447905106E+03  0.17027612757E+03 -0.17389315009E+04  0.17534380467E+04  0.78569873356E+02 0.  0.
          5    1    5    5  501    0  0.30019639566E+02  0.35754535220E+02 -0.81115790410E+03  0.81251387738E+03  0.47000000000E+01 0. -1.
        -13    1    6    6    0    0 -0.10176140816E+03  0.14394806282E+03 -0.16189312193E+04  0.16285007589E+04  0.00000000000E+00 0.  1.
         14    1    6    6    0    0 -0.22717642898E+02  0.26328064745E+02 -0.12000028160E+03  0.12493728777E+03  0.00000000000E+00 0. -1.
         -5    1    3    3    0  503  0.10392310005E+03 -0.14459997324E+03 -0.75426962333E+03  0.77501865633E+03  0.47000000000E+01 0.  1.
         11    1    4    4    0    0 -0.18097664079E+02 -0.35093290631E+02 -0.34568888161E+03  0.34793658525E+03  0.00000000000E+00 0. -1.
        -12    1    4    4    0    0  0.86339755172E+01 -0.26337398919E+02 -0.24476175954E+02  0.36976848221E+02  0.00000000000E+00 0.  1.
</event>
<event>
12    1  0.9966151E-001  0.2031306E+03  0.7818608E-02  0.1147153E+00
         21   -1    0    0  501  502  0.00000000000E+00  0.00000000000E+00  0.78550662097E+02  0.78550662097E+02  0.00000000000E+00 0. -1.
         21   -1    0    0  502  503 -0.00000000000E+00 -0.00000000000E+00 -0.52678879754E+03  0.52678879754E+03  0.00000000000E+00 0. -1.
         -6    2    1    2    0  503 -0.62211697184E+02  0.88432805891E+02 -0.24213151115E+03  0.31605335397E+03  0.17196336074E+03 0.  0.
        -24    2    3    3    0    0 -0.29761042081E+02 -0.16287268416E+02 -0.53115352841E+02  0.97493208742E+02  0.74382056338E+02 0.  0.
          6    2    1    2  501    0  0.62211697184E+02 -0.88432805891E+02 -0.20610662429E+03  0.28928610567E+03  0.17180178675E+03 0.  0.
         24    2    5    5    0    0  0.92378428146E+02 -0.75505039690E+02 -0.21178662502E+03  0.25564816274E+03  0.79168324301E+02 0.  0.
          5    1    5    5  501    0 -0.30166730962E+02 -0.12927766201E+02  0.56800007267E+01  0.33637942924E+02  0.47000000000E+01 0. -1.
        -13    1    6    6    0    0 -0.39021560856E+01  0.11968676742E+02 -0.25502861725E+02  0.28440675119E+02  0.00000000000E+00 0.  1.
         14    1    6    6    0    0  0.96280584231E+02 -0.87473716431E+02 -0.18628376329E+03  0.22720748763E+03  0.00000000000E+00 0. -1.
         -5    1    3    3    0  503 -0.32450655103E+02  0.10472007431E+03 -0.18901615831E+03  0.21856014522E+03  0.47000000000E+01 0.  1.
         13    1    4    4    0    0 -0.54274187249E+02 -0.14798458488E+02 -0.29941849660E+02  0.63727514750E+02  0.00000000000E+00 0. -1.
        -14    1    4    4    0    0  0.24513145168E+02 -0.14888099278E+01 -0.23173503182E+02  0.33765693992E+02  0.00000000000E+00 0.  1.
</event>
<event>
12    1  0.9966151E-001  0.1909382E+03  0.7818608E-02  0.1157709E+00
         21   -1    0    0  501  502  0.00000000000E+00  0.00000000000E+00  0.10804875603E+03  0.10804875603E+03  0.00000000000E+00 0.  1.
         21   -1    0    0  502  503 -0.00000000000E+00 -0.00000000000E+00 -0.58675657022E+03  0.58675657022E+03  0.00000000000E+00 0.  1.
         -6    2    1    2    0  503 -0.31836203153E+02  0.74790167364E+02 -0.12710629279E+02  0.19136079372E+03  0.17277233665E+03 0.  0.
        -24    2    3    3    0    0 -0.27112472150E+02  0.49378288900E+02  0.59082691716E+02  0.11491180327E+03  0.80874325399E+02 0.  0.
          6    2    1    2  501    0  0.31836203153E+02 -0.74790167364E+02 -0.46599718491E+03  0.50344453254E+03  0.17232500699E+03 0.  0.
         24    2    5    5    0    0  0.53121672816E+02 -0.57749870065E+02 -0.15510128743E+03  0.19131989073E+03  0.79937047815E+02 0.  0.
          5    1    5    5  501    0 -0.21285469662E+02 -0.17040297299E+02 -0.31089589748E+03  0.31212464180E+03  0.47000000000E+01 0. -1.
        -11    1    6    6    0    0  0.13768006614E+02 -0.23613664997E+02  0.38630644517E+00  0.27337015444E+02  0.00000000000E+00 0.  1.
         12    1    6    6    0    0  0.39353666202E+02 -0.34136205069E+02 -0.15548759387E+03  0.16398287529E+03  0.00000000000E+00 0. -1.
         -5    1    3    3    0  503 -0.47237310037E+01  0.25411878465E+02 -0.71793320995E+02  0.76448990453E+02  0.47000000000E+01 0.  1.
         11    1    4    4    0    0 -0.13621578315E+02  0.70842416849E+02  0.35990727956E+02  0.80619649712E+02  0.00000000000E+00 0. -1.
        -12    1    4    4    0    0 -0.13490893834E+02 -0.21464127950E+02  0.23091963761E+02  0.34292153554E+02  0.00000000000E+00 0.  1.
</event>
<event>
12    1  0.9966151E-001  0.4294967E+03  0.7818608E-02  0.1034022E+00
         21   -1    0    0  501  502  0.00000000000E+00  0.00000000000E+00  0.38279506634E+03  0.38279506634E+03  0.00000000000E+00 0. -1.
         21   -1    0    0  502  503 -0.00000000000E+00 -0.00000000000E+00 -0.58028597375E+03  0.58028597375E+03  0.00000000000E+00 0.  1.
         -6    2    1    2    0  503  0.29823358008E+03  0.25676952971E+03 -0.29707213868E+03  0.52222534438E+03  0.17202789033E+03 0.  0.
        -24    2    3    3    0    0  0.27820647578E+03  0.24224879942E+03 -0.20753215819E+03  0.42921225593E+03  0.71205617568E+02 0.  0.
          6    2    1    2  501    0 -0.29823358008E+03 -0.25676952971E+03  0.99581231271E+02  0.44085569572E+03  0.17194028948E+03 0.  0.
         24    2    5    5    0    0 -0.18514484003E+03 -0.80969940353E+02  0.71365531904E+02  0.22987518847E+03  0.83155397308E+02 0.  0.
          5    1    5    5  501    0 -0.11308874005E+03 -0.17579958936E+03  0.28215699367E+02  0.21098050724E+03  0.47000000000E+01 0. -1.
        -11    1    6    6    0    0 -0.50520969805E+02 -0.61937325890E+02  0.94732028317E+01  0.80488150061E+02  0.00000000000E+00 0.  1.
         12    1    6    6    0    0 -0.13462387023E+03 -0.19032614463E+02  0.61892329073E+02  0.14938703841E+03  0.00000000000E+00 0. -1.
         -5    1    3    3    0  503  0.20027104301E+02  0.14520730294E+02 -0.89539980496E+02  0.93013088446E+02  0.47000000000E+01 0.  1.
         11    1    4    4    0    0  0.66219632070E+02  0.95196663192E+02 -0.45601683608E+02  0.12460721449E+03  0.00000000000E+00 0. -1.
        -12    1    4    4    0    0  0.21198684371E+03  0.14705213623E+03 -0.16193047458E+03  0.30460504144E+03  0.00000000000E+00 0.  1.
</event>
<event>
12    1  0.9966151E-001  0.2919302E+03  0.7818608E-02  0.1089360E+00
         21   -1    0    0  501  502  0.00000000000E+00  0.00000000000E+00  0.15377872684E+04  0.15377872684E+04  0.00000000000E+00 0. -1.
         21   -1    0    0  502  503 -0.00000000000E+00 -0.00000000000E+00 -0.61960226003E+02  0.61960226003E+02  0.00000000000E+00 0.  1.
         -6    2    1    2    0  503 -0.16082901593E+03 -0.17344071714E+03  0.47750447958E+03  0.55961712887E+03  0.17091854253E+03 0.  0.
        -24    2    3    3    0    0 -0.87843167042E+02 -0.13898566048E+03  0.20281354512E+03  0.27327592586E+03  0.80702922853E+02 0.  0.
          6    2    1    2  501    0  0.16082901593E+03  0.17344071714E+03  0.99832256287E+03  0.10401303656E+04  0.17110109045E+03 0.  0.
         24    2    5    5    0    0  0.28863380843E+02  0.51808977523E+02  0.21609804350E+03  0.23756790844E+03  0.78885244550E+02 0.  0.
          5    1    5    5  501    0  0.13196563508E+03  0.12163173961E+03  0.78222451936E+03  0.80256245715E+03  0.47000000000E+01 0. -1.
        -11    1    6    6    0    0  0.41412746597E+02  0.31840599407E+02  0.20491100572E+03  0.21146479522E+03  0.00000000000E+00 0.  1.
         12    1    6    6    0    0 -0.12549365753E+02  0.19968378117E+02  0.11187037784E+02  0.26103113221E+02  0.00000000000E+00 0. -1.
         -5    1    3    3    0  503 -0.72985848884E+02 -0.34455056661E+02  0.27469093446E+03  0.28634120301E+03  0.47000000000E+01 0.  1.
         13    1    4    4    0    0 -0.37242161032E+01  0.69220086330E+01  0.33696800697E+02  0.34601421450E+02  0.00000000000E+00 0. -1.
        -14    1    4    4    0    0 -0.84118950939E+02 -0.14590766911E+03  0.16911674442E+03  0.23867450441E+03  0.00000000000E+00 0.  1.
</event>
<event>
12    1  0.9966151E-001  0.1937080E+03  0.7818608E-02  0.1155373E+00
         21   -1    0    0  501  502  0.00000000000E+00  0.00000000000E+00  0.84994628581E+02  0.84994628581E+02  0.00000000000E+00 0.  1.
         21   -1    0    0  502  503 -0.00000000000E+00 -0.00000000000E+00 -0.79745264608E+03  0.79745264608E+03  0.00000000000E+00 0.  1.
         -6    2    1    2    0  503  0.67500550870E+02 -0.56620276022E+02 -0.61015179543E+02  0.20309026373E+03  0.17251267508E+03 0.  0.
        -24    2    3    3    0    0  0.26659353501E+02 -0.77925083181E+02 -0.92670764703E+02  0.14700047605E+03  0.78982463942E+02 0.  0.
          6    2    1    2  501    0 -0.67500550870E+02  0.56620276022E+02 -0.65144283795E+03  0.67935701092E+03  0.17142344398E+03 0.  0.
         24    2    5    5    0    0 -0.17844691212E+02 -0.28709782535E+02 -0.22966921099E+03  0.24615728137E+03  0.81870483525E+02 0.  0.
          5    1    5    5  501    0 -0.49655859658E+02  0.85330058557E+02 -0.42177362696E+03  0.43319972956E+03  0.47000000000E+01 0. -1.
        -11    1    6    6    0    0 -0.10907093370E+02 -0.45896790601E+02 -0.22047914437E+03  0.22546958370E+03  0.00000000000E+00 0.  1.
         12    1    6    6    0    0 -0.69375978417E+01  0.17187008066E+02 -0.91900666276E+01  0.20687697665E+02  0.00000000000E+00 0. -1.
         -5    1    3    3    0  503  0.40841197369E+02  0.21304807159E+02  0.31655585160E+02  0.56089787684E+02  0.47000000000E+01 0.  1.
         11    1    4    4    0    0  0.11480290764E+02 -0.58294663861E+02 -0.94527983771E+01  0.60161618229E+02  0.00000000000E+00 0. -1.
        -12    1    4    4    0    0  0.15179062737E+02 -0.19630419319E+02 -0.83217966326E+02  0.86838857821E+02  0.00000000000E+00 0.  1.
</event>
<event>
12    1  0.9966151E-001  0.2398461E+03  0.7818608E-02  0.1120420E+00
         21   -1    0    0  501  502  0.00000000000E+00  0.00000000000E+00  0.53293762817E+02  0.53293762817E+02  0.00000000000E+00 0. -1.
         21   -1    0    0  502  503 -0.00000000000E+00 -0.00000000000E+00 -0.15948770314E+04  0.15948770314E+04  0.00000000000E+00 0. -1.
         -6    2    1    2    0  503 -0.72153823068E+02 -0.14992550270E+03 -0.29934818347E+03  0.38358244239E+03  0.17274931149E+03 0.  0.
        -24    2    3    3    0    0 -0.89696569068E+02 -0.16987059013E+03 -0.25987531208E+03  0.33577290333E+03  0.91141499278E+02 0.  0.
          6    2    1    2  501    0  0.72153823068E+02  0.14992550270E+03 -0.12422350852E+04  0.12645883519E+04  0.16838011267E+03 0.  0.
         24    2    5    5    0    0  0.11384706893E+02  0.15155659766E+03 -0.80654750174E+03  0.82465505432E+03  0.80237598423E+02 0.  0.
          5    1    5    5  501    0  0.60769116176E+02 -0.16310949584E+01 -0.43568758341E+03  0.43993329755E+03  0.47000000000E+01 0. -1.
        -11    1    6    6    0    0  0.16865208207E+02  0.13597923051E+03 -0.78798902499E+03  0.79981340941E+03  0.00000000000E+00 0.  1.
         12    1    6    6    0    0 -0.54805013144E+01  0.15577367154E+02 -0.18558476753E+02  0.24841644903E+02  0.00000000000E+00 0. -1.
         -5    1    3    3    0  503  0.17542746000E+02  0.19945087422E+02 -0.39472871394E+02  0.47809539065E+02  0.47000000000E+01 0.  1.
         11    1    4    4    0    0 -0.78996920328E+02 -0.52820008379E+02 -0.11238843038E+03  0.14717889112E+03  0.00000000000E+00 0. -1.
        -12    1    4    4    0    0 -0.10699648740E+02 -0.11705058175E+03 -0.14748688169E+03  0.18859401221E+03  0.00000000000E+00 0.  1.
</event>
<event>
12    1  0.9966151E-001  0.3474472E+03  0.7818608E-02  0.1063670E+00
         21   -1    0    0  503  502  0.00000000000E+00  0.00000000000E+00  0.33754267151E+03  0.33754267151E+03  0.00000000000E+00 0.  1.
         21   -1    0    0  501  503 -0.00000000000E+00 -0.00000000000E+00 -0.59633154472E+03  0.59633154472E+03  0.00000000000E+00 0.  1.
          6    2    1    2  501    0 -0.14709723374E+03 -0.26357882364E+03  0.16603943240E+03  0.38505853386E+03  0.17201624617E+03 0.  0.
         24    2    3    3    0    0 -0.11604240225E+03 -0.10949717757E+03  0.39298652965E+02  0.18309103305E+03  0.80761817967E+02 0.  0.
         -6    2    1    2    0  502  0.14709723374E+03  0.26357882364E+03 -0.42482830561E+03  0.54881568237E+03  0.17207025171E+03 0.  0.
        -24    2    5    5    0    0  0.11139747603E+03  0.75970228431E+02 -0.20669173056E+03  0.25885514528E+03  0.78125805472E+02 0.  0.
          5    1    3    3  501    0 -0.31054831488E+02 -0.15408164607E+03  0.12674077944E+03  0.20196750082E+03  0.47000000000E+01 0. -1.
        -13    1    4    4    0    0 -0.71199826755E+02 -0.13028152781E+02  0.18239077444E+02  0.74644571409E+02  0.00000000000E+00 0.  1.
         14    1    4    4    0    0 -0.44842575497E+02 -0.96469024786E+02  0.21059575520E+02  0.10844646164E+03  0.00000000000E+00 0. -1.
         -5    1    5    5    0  502  0.35699757707E+02  0.18760859520E+03 -0.21813657505E+03  0.28996053709E+03  0.47000000000E+01 0.  1.
         13    1    6    6    0    0  0.28654851552E+02  0.41992350807E+02 -0.13489714832E+03  0.14415858860E+03  0.00000000000E+00 0. -1.
        -14    1    6    6    0    0  0.82742624481E+02  0.33977877624E+02 -0.71794582245E+02  0.11469655668E+03  0.00000000000E+00 0.  1.
</event>
<event>
12    1  0.9966151E-001  0.2626105E+03  0.7818608E-02  0.1105740E+00
         21   -1    0    0  501  502  0.00000000000E+00  0.00000000000E+00  0.13814300423E+03  0.13814300423E+03  0.00000000000E+00 0. -1.
         21   -1    0    0  502  503 -0.00000000000E+00 -0.00000000000E+00 -0.58718699847E+03  0.58718699847E+03  0.00000000000E+00 0. -1.
         -6    2    1    2    0  503  0.49810106059E+02  0.19091318395E+03 -0.36684199189E+03  0.45115110336E+03  0.17330718558E+03 0.  0.
        -24    2    3    3    0    0 -0.11507685802E+02  0.26173388492E+02 -0.12771049741E+03  0.15432618281E+03  0.81787079995E+02 0.  0.
          6    2    1    2  501    0 -0.49810106059E+02 -0.19091318395E+03 -0.82202002341E+02  0.27417889934E+03  0.17172073020E+03 0.  0.
         24    2    5    5    0    0 -0.18049608474E+02 -0.20880435711E+03 -0.65916746736E+02  0.23397786908E+03  0.80470974906E+02 0.  0.
          5    1    5    5  501    0 -0.31760497585E+02  0.17891173161E+02 -0.16285255604E+02  0.40201030261E+02  0.47000000000E+01 0. -1.
        -11    1    6    6    0    0 -0.59548281168E+00 -0.16433093316E+03 -0.81886072562E+02  0.18360375561E+03  0.00000000000E+00 0.  1.
         12    1    6    6    0    0 -0.17454125663E+02 -0.44473423952E+02  0.15969325825E+02  0.50374113470E+02  0.00000000000E+00 0. -1.
         -5    1    3    3    0  503  0.61317791861E+02  0.16473979546E+03 -0.23913149449E+03  0.29682492055E+03  0.47000000000E+01 0.  1.
         13    1    4    4    0    0 -0.37458943164E+02  0.39981191571E+02 -0.99483770488E+02  0.11357239406E+03  0.00000000000E+00 0. -1.
        -14    1    4    4    0    0  0.25951257362E+02 -0.13807803078E+02 -0.28226726921E+02  0.40753788746E+02  0.00000000000E+00 0.  1.
</event>
<event>
12    1  0.9966151E-001  0.1727427E+03  0.7818608E-02  0.1175036E+00
         21   -1    0    0  503  502  0.00000000000E+00  0.00000000000E+00  0.18047208983E+04  0.18047208983E+04  0.00000000000E+00 0.  1.
         21   -1    0    0  501  503 -0.00000000000E+00 -0.00000000000E+00 -0.17665406646E+02  0.17665406646E+02  0.00000000000E+00 0.  1.
          6    2    1    2  501    0 -0.24762505459E+02  0.58300078595E+01  0.66242768249E+03  0.68458051023E+03  0.17085921044E+03 0.  0.
         24    2    3    3    0    0  0.14772498910E+02  0.54071877683E+02  0.25065831506E+03  0.26808753726E+03  0.76807174468E+02 0.  0.
         -6    2    1    2    0  502  0.24762505459E+02 -0.58300078595E+01  0.11246278092E+04  0.11378057947E+04  0.17078391806E+03 0.  0.
        -24    2    5    5    0    0 -0.67409971154E+01  0.56662192974E+02  0.51941833429E+03  0.52854530500E+03  0.79427251580E+02 0.  0.
          5    1    3    3  501    0 -0.39535004369E+02 -0.48241869824E+02  0.41176936743E+03  0.41649297297E+03  0.47000000000E+01 0. -1.
        -13    1    4    4    0    0  0.15503086497E+02 -0.64343206607E+01  0.14780197353E+03  0.14875204050E+03  0.00000000000E+00 0.  1.
         14    1    4    4    0    0 -0.73058758745E+00  0.60506198344E+02  0.10285634153E+03  0.11933549677E+03  0.00000000000E+00 0. -1.
         -5    1    5    5    0  502  0.31503502575E+02 -0.62492200833E+02  0.60520947491E+03  0.60926048974E+03  0.47000000000E+01 0.  1.
         11    1    6    6    0    0 -0.26307587981E+02 -0.51373590527E+01  0.79993965205E+02  0.84365372711E+02  0.00000000000E+00 0. -1.
        -12    1    6    6    0    0  0.19566590866E+02  0.61799552026E+02  0.43942436908E+03  0.44417993229E+03  0.00000000000E+00 0.  1.
</event>
<event>
12    1  0.9966151E-001  0.2607819E+03  0.7818608E-02  0.1107267E+00
         21   -1    0    0  501  502  0.00000000000E+00  0.00000000000E+00  0.13647624195E+03  0.13647624195E+03  0.00000000000E+00 0.  1.
         21   -1    0    0  502  503 -0.00000000000E+00 -0.00000000000E+00 -0.51925674980E+03  0.51925674980E+03  0.00000000000E+00 0.  1.
         -6    2    1    2    0  503  0.65872314726E+02  0.17898149190E+03 -0.26673418970E+03  0.37029660329E+03  0.17204333803E+03 0.  0.
        -24    2    3    3    0    0  0.66426209606E+02  0.10856984952E+03 -0.80833441771E+02  0.17145172841E+03  0.81619827985E+02 0.  0.
          6    2    1    2  501    0 -0.65872314726E+02 -0.17898149190E+03 -0.11604631814E+03  0.28543638846E+03  0.17785850447E+03 0.  0.
         24    2    5    5    0    0 -0.17776940893E+02 -0.71928675959E+01 -0.45610840264E+02  0.93582947085E+02  0.79433382552E+02 0.  0.
          5    1    5    5  501    0 -0.48095373833E+02 -0.17178862430E+03 -0.70435477879E+02  0.19185344138E+03  0.47000000000E+01 0. -1.
        -13    1    6    6    0    0 -0.54524937431E+01 -0.30642475589E+02 -0.56845401104E+02  0.64808106167E+02  0.00000000000E+00 0.  1.
         14    1    6    6    0    0 -0.12324447150E+02  0.23449607993E+02  0.11234560840E+02  0.28774840918E+02  0.00000000000E+00 0. -1.
         -5    1    3    3    0  503 -0.55389488010E+00  0.70411642381E+02 -0.18590074793E+03  0.19884487487E+03  0.47000000000E+01 0.  1.
         13    1    4    4    0    0  0.78886501960E+02  0.77822383470E+02 -0.82627441556E+02  0.13822697877E+03  0.00000000000E+00 0. -1.
        -14    1    4    4    0    0 -0.12460292354E+02  0.30747466049E+02  0.17939997849E+01  0.33224749649E+02  0.00000000000E+00 0.  1.
</event>
<event>
12    1  0.9966151E-001  0.1863140E+03  0.7818608E-02  0.1161938E+00
         21   -1    0    0  503  502  0.00000000000E+00  0.00000000000E+00  0.10258187805E+04  0.10258187805E+04  0.00000000000E+00 0. -1.
         21   -1    0    0  501  503 -0.00000000000E+00 -0.00000000000E+00 -0.35735771793E+02  0.35735771793E+02  0.00000000000E+00 0. -1.
          6    2    1    2  501    0 -0.61882434125E+02 -0.35439883913E+02  0.36944374778E+03  0.41355300531E+03  0.17161580464E+03 0.  0.
         24    2    3    3    0    0  0.72934852947E+01 -0.27353207060E+02  0.79347919953E+02  0.11517676381E+03  0.78537899490E+02 0.  0.
         -6    2    1    2    0  502  0.61882434125E+02  0.35439883913E+02  0.62063926088E+03  0.64800154693E+03  0.17212638281E+03 0.  0.
        -24    2    5    5    0    0  0.35310617500E+02 -0.65950892374E+01  0.57045025999E+03  0.57719175794E+03  0.80290045496E+02 0.  0.
          5    1    3    3  501    0 -0.69175919420E+02 -0.80866768527E+01  0.29009582783E+03  0.29837624150E+03  0.47000000000E+01 0. -1.
        -11    1    4    4    0    0  0.46882472261E+01 -0.27317949021E+02  0.95179006509E+02  0.99132705404E+02  0.00000000000E+00 0.  1.
         12    1    4    4    0    0  0.26052380686E+01 -0.35258039614E-01 -0.15831086556E+02  0.16044058404E+02  0.00000000000E+00 0. -1.
         -5    1    5    5    0  502  0.26571816625E+02  0.42034973150E+02  0.50189000888E+02  0.70809788988E+02  0.47000000000E+01 0.  1.
         11    1    6    6    0    0  0.58482085148E+02 -0.49902314770E+01  0.29618390728E+03  0.30194364313E+03  0.00000000000E+00 0. -1.
        -12    1    6    6    0    0 -0.23171467648E+02 -0.16048577604E+01  0.27426635271E+03  0.27524811481E+03  0.00000000000E+00 0.  1.
</event>
<event>
12    1  0.9966151E-001  0.2090279E+03  0.7818608E-02  0.1142596E+00
         21   -1    0    0  501  502  0.00000000000E+00  0.00000000000E+00  0.47492075968E+02  0.47492075968E+02  0.00000000000E+00 0.  1.
         21   -1    0    0  502  503 -0.00000000000E+00 -0.00000000000E+00 -0.91434589729E+03  0.91434589729E+03  0.00000000000E+00 0.  1.
         -6    2    1    2    0  503 -0.51933314706E+02 -0.10434794932E+03 -0.42956211511E+03  0.47715591327E+03  0.17195520093E+03 0.  0.
        -24    2    3    3    0    0 -0.51694302278E+02 -0.52105649182E+02 -0.40496055371E+03  0.41921938011E+03  0.79778061114E+02 0.  0.
          6    2    1    2  501    0  0.51933314706E+02  0.10434794932E+03 -0.43729170622E+03  0.48468205999E+03  0.17351397422E+03 0.  0.
         24    2    5    5    0    0  0.28821838256E+02  0.26713230187E+01 -0.30405802139E+03  0.31543200400E+03  0.78792350197E+02 0.  0.
          5    1    5    5  501    0  0.23111476451E+02  0.10167662630E+03 -0.13323368482E+03  0.16925005599E+03  0.47000000000E+01 0. -1.
        -11    1    6    6    0    0  0.26873038599E+01  0.38092876108E+02 -0.10987065042E+03  0.11631787754E+03  0.00000000000E+00 0.  1.
         12    1    6    6    0    0  0.26134534396E+02 -0.35421553089E+02 -0.19418737098E+03  0.19911412647E+03  0.00000000000E+00 0. -1.
         -5    1    3    3    0  503 -0.23901242816E+00 -0.52242300142E+02 -0.24601561398E+02  0.57936533157E+02  0.47000000000E+01 0.  1.
         13    1    4    4    0    0 -0.84977189441E+01  0.16921248559E+02 -0.15915089061E+03  0.16027334733E+03  0.00000000000E+00 0. -1.
        -14    1    4    4    0    0 -0.43196583334E+02 -0.69026897741E+02 -0.24580966310E+03  0.25894603278E+03  0.00000000000E+00 0.  1.
</event>
<event>
12    1  0.9966151E-001  0.2277281E+03  0.7818608E-02  0.1128438E+00
         21   -1    0    0  503  502  0.00000000000E+00  0.00000000000E+00  0.42222957741E+02  0.42222957741E+02  0.00000000000E+00 0.  1.
         21   -1    0    0  501  503 -0.00000000000E+00 -0.00000000000E+00 -0.12443615092E+04  0.12443615092E+04  0.00000000000E+00 0.  1.
          6    2    1    2  501    0  0.13824720125E+03  0.51405775824E+02 -0.68758826792E+03  0.72431879511E+03  0.17350864051E+03 0.  0.
         24    2    3    3    0    0  0.35736463905E+02  0.73970170511E+02 -0.45414023761E+03  0.46831552163E+03  0.79544901817E+02 0.  0.
         -6    2    1    2    0  502 -0.13824720125E+03 -0.51405775824E+02 -0.51455028354E+03  0.56226567183E+03  0.17212161103E+03 0.  0.
        -24    2    5    5    0    0 -0.17017720865E+03 -0.36953585204E+02 -0.43430605989E+03  0.47457521274E+03  0.79208768991E+02 0.  0.
          5    1    3    3  501    0  0.10251073734E+03 -0.22564394688E+02 -0.23344803031E+03  0.25600327348E+03  0.47000000000E+01 0. -1.
        -13    1    4    4    0    0  0.34221845374E+02  0.28899163015E+02 -0.37133422030E+03  0.37402593425E+03  0.00000000000E+00 0.  1.
         14    1    4    4    0    0  0.15146185313E+01  0.45071007496E+02 -0.82806017311E+02  0.94289587383E+02  0.00000000000E+00 0. -1.
         -5    1    5    5    0  502  0.31930007400E+02 -0.14452190620E+02 -0.80244223644E+02  0.87690459085E+02  0.47000000000E+01 0.  1.
         13    1    6    6    0    0 -0.10677198663E+03  0.16256385107E+02 -0.26328104767E+03  0.28457237612E+03  0.00000000000E+00 0. -1.
        -14    1    6    6    0    0 -0.63405222018E+02 -0.53209970311E+02 -0.17102501222E+03  0.19000283662E+03  0.00000000000E+00 0.  1.
</event>
<event>
12    1  0.9966151E-001  0.2151108E+03  0.7818608E-02  0.1138047E+00
         21   -1    0    0  503  502  0.00000000000E+00  0.00000000000E+00  0.15071791016E+03  0.15071791016E+03  0.00000000000E+00 0.  1.
         21   -1    0    0  501  503 -0.00000000000E+00 -0.00000000000E+00 -0.75829154293E+03  0.75829154293E+03  0.00000000000E+00 0.  1.
          6    2    1    2  501    0 -0.44231534427E+02 -0.12506960405E+03  0.47480486224E+02  0.22028861534E+03  0.16933352586E+03 0.  0.
         24    2    3    3    0    0  0.31673881805E+02 -0.75069727303E+02  0.60070048257E+02  0.12840713211E+03  0.79001785634E+02 0.  0.
         -6    2    1    2    0  502  0.44231534427E+02  0.12506960405E+03 -0.65505411900E+03  0.68872083776E+03  0.16625780898E+03 0.  0.
        -24    2    5    5    0    0  0.77484260274E+02  0.37865011894E+02 -0.42304230431E+03  0.43859695480E+03  0.77232945099E+02 0.  0.
          5    1    3    3  501    0 -0.75905416232E+02 -0.49999876743E+02 -0.12589562033E+02  0.91881483227E+02  0.47000000000E+01 0. -1.
        -11    1    4    4    0    0  0.49149832813E+02 -0.72140757050E+02  0.27835401210E+02  0.91623165487E+02  0.00000000000E+00 0.  1.
         12    1    4    4    0    0 -0.17475951008E+02 -0.29289702529E+01  0.32234647047E+02  0.36783966624E+02  0.00000000000E+00 0. -1.
         -5    1    5    5    0  502 -0.33252725847E+02  0.87204592153E+02 -0.23201181469E+03  0.25012388296E+03  0.47000000000E+01 0.  1.
         11    1    6    6    0    0  0.51203455654E+02  0.11208397563E+02 -0.95639631963E+02  0.10906127291E+03  0.00000000000E+00 0. -1.
        -12    1    6    6    0    0  0.26280804620E+02  0.26656614330E+02 -0.32740267234E+03  0.32953568189E+03  0.00000000000E+00 0.  1.
</event>
<event>
12    1  0.9966151E-001  0.1925841E+03  0.7818608E-02  0.1157301E+00
         21   -1    0    0  501  502  0.00000000000E+00  0.00000000000E+00  0.67069002234E+03  0.67069002234E+03  0.00000000000E+00 0. -1.
         21   -1    0    0  502  503 -0.00000000000E+00 -0.00000000000E+00 -0.60940183939E+02  0.60940183939E+02  0.00000000000E+00 0. -1.
         -6    2    1    2    0  503 -0.63099868439E+02 -0.59120243401E+02  0.18364566955E+03  0.26610968520E+03  0.17208089968E+03 0.  0.
        -24    2    3    3    0    0 -0.59792517572E+01  0.15282075597E+02  0.14203550596E+03  0.16338692416E+03  0.79069012551E+02 0.  0.
          6    2    1    2  501    0  0.63099868439E+02  0.59120243401E+02  0.42610416885E+03  0.46552052108E+03  0.16633639486E+03 0.  0.
         24    2    5    5    0    0  0.68046094443E+02 -0.83122378993E+01  0.16339330594E+03  0.19420761652E+03  0.79497557336E+02 0.  0.
          5    1    5    5  501    0 -0.49462260036E+01  0.67432481300E+02  0.26271086291E+03  0.27131290456E+03  0.47000000000E+01 0. -1.
        -13    1    6    6    0    0  0.45262849488E+02  0.46839889355E+01  0.22259523335E+02  0.50657197665E+02  0.00000000000E+00 0.  1.
         14    1    6    6    0    0  0.22783244955E+02 -0.12996226835E+02  0.14113378260E+03  0.14355041886E+03  0.00000000000E+00 0. -1.
         -5    1    3    3    0  503 -0.57120616682E+02 -0.74402318998E+02  0.41610163589E+02  0.10272276104E+03  0.47000000000E+01 0.  1.
         13    1    4    4    0    0 -0.12477848894E+02 -0.18048513721E+02  0.12200274910E+03  0.12396014016E+03  0.00000000000E+00 0. -1.
        -14    1    4    4    0    0  0.64985971367E+01  0.33330589318E+02  0.20032756865E+02  0.39426784001E+02  0.00000000000E+00 0.  1.
</event>
<event>
12    1  0.9966151E-001  0.2682531E+03  0.7818608E-02  0.1102339E+00
         21   -1    0    0  503  502  0.00000000000E+00  0.00000000000E+00  0.71668781119E+03  0.71668781119E+03  0.00000000000E+00 0.  1.
         21   -1    0    0  501  503 -0.00000000000E+00 -0.00000000000E+00 -0.10042305930E+03  0.10042305930E+03  0.00000000000E+00 0.  1.
          6    2    1    2  501    0  0.18030546156E+03 -0.10679647690E+03  0.29154188926E+03  0.39591654584E+03  0.16684630991E+03 0.  0.
         24    2    3    3    0    0  0.16971065635E+03 -0.54152421815E+02  0.15436088221E+03  0.24852466978E+03  0.78759366856E+02 0.  0.
         -6    2    1    2    0  502 -0.18030546156E+03  0.10679647690E+03  0.32472286263E+03  0.42119432465E+03  0.16746395032E+03 0.  0.
        -24    2    5    5    0    0 -0.94981771865E+02  0.14990217134E+02  0.88915403212E+02  0.15410675610E+03  0.81220069885E+02 0.  0.
          5    1    3    3  501    0  0.10594805210E+02 -0.52644055086E+02  0.13718100705E+03  0.14739187606E+03  0.47000000000E+01 0. -1.
        -13    1    4    4    0    0  0.74681677935E+02 -0.15878208980E+02  0.11653113166E+03  0.13931609808E+03  0.00000000000E+00 0.  1.
         14    1    4    4    0    0  0.95028978410E+02 -0.38274212835E+02  0.37829750556E+02  0.10920857170E+03  0.00000000000E+00 0. -1.
         -5    1    5    5    0  502 -0.85323689690E+02  0.91806259767E+02  0.23580745942E+03  0.26708756855E+03  0.47000000000E+01 0.  1.
         13    1    6    6    0    0 -0.85919602343E+02  0.22687257353E+02  0.10276174135E+03  0.13585604586E+03  0.00000000000E+00 0. -1.
        -14    1    6    6    0    0 -0.90621695227E+01 -0.76970402188E+01 -0.13846338134E+02  0.18250710241E+02  0.00000000000E+00 0.  1.
</event>
<event>
12    1  0.9966151E-001  0.2077373E+03  0.7818608E-02  0.1143504E+00
         21   -1    0    0  503  502  0.00000000000E+00  0.00000000000E+00  0.75341589406E+02  0.75341589406E+02  0.00000000000E+00 0.  1.
         21   -1    0    0  501  503 -0.00000000000E+00 -0.00000000000E+00 -0.60267960665E+03  0.60267960665E+03  0.00000000000E+00 0.  1.
          6    2    1    2  501    0 -0.46700848803E+02 -0.10451411442E+03 -0.18548787363E+03  0.27800083182E+03  0.17255301167E+03 0.  0.
         24    2    3    3    0    0 -0.76227551058E+02 -0.11353302556E+03 -0.18943835368E+03  0.24652285226E+03  0.78652650364E+02 0.  0.
         -6    2    1    2    0  502  0.46700848803E+02  0.10451411442E+03 -0.34185014362E+03  0.40002036425E+03  0.17335109381E+03 0.  0.
        -24    2    5    5    0    0 -0.49914394729E+00 -0.84845883082E+01 -0.80029250831E+02  0.11093764938E+03  0.76356032358E+02 0.  0.
          5    1    3    3  501    0  0.29526702255E+02  0.90189111358E+01  0.39504800548E+01  0.31477979554E+02  0.47000000000E+01 0. -1.
        -13    1    4    4    0    0 -0.88577281474E+01 -0.12551113013E+02  0.59676448942E+01  0.16480369273E+02  0.00000000000E+00 0.  1.
         14    1    4    4    0    0 -0.67369822911E+02 -0.10098191254E+03 -0.19540599858E+03  0.23004248299E+03  0.00000000000E+00 0. -1.
         -5    1    5    5    0  502  0.47199992750E+02  0.11299870273E+03 -0.26182089279E+03  0.28908271487E+03  0.47000000000E+01 0.  1.
         13    1    6    6    0    0  0.61061130136E+01  0.32439312278E+02 -0.22177391289E+02  0.39767201078E+02  0.00000000000E+00 0. -1.
        -14    1    6    6    0    0 -0.66052569609E+01 -0.40923900586E+02 -0.57851859541E+02  0.71170448299E+02  0.00000000000E+00 0.  1.
</event>
<event>
12    1  0.9966151E-001  0.1823064E+03  0.7818608E-02  0.1165614E+00
         21   -1    0    0  503  502  0.00000000000E+00  0.00000000000E+00  0.96551502117E+02  0.96551502117E+02  0.00000000000E+00 0. -1.
         21   -1    0    0  501  503 -0.00000000000E+00 -0.00000000000E+00 -0.59129936871E+03  0.59129936871E+03  0.00000000000E+00 0. -1.
          6    2    1    2  501    0  0.58915840730E+02 -0.10590217668E+02 -0.46973876716E+03  0.50383707833E+03  0.17208737061E+03 0.  0.
         24    2    3    3    0    0  0.65957149016E+02  0.20931987082E+02 -0.45699050693E+03  0.46879656529E+03  0.78367101640E+02 0.  0.
         -6    2    1    2    0  502 -0.58915840730E+02  0.10590217668E+02 -0.25009099437E+02  0.18401379250E+03  0.17219869854E+03 0.  0.
        -24    2    5    5    0    0 -0.94172084676E+01  0.68263934783E+02 -0.34754967416E+01  0.10487999260E+03  0.78987879852E+02 0.  0.
          5    1    3    3  501    0 -0.70413082862E+01 -0.31522204750E+02 -0.12748260233E+02  0.35040513034E+02  0.47000000000E+01 0. -1.
        -13    1    4    4    0    0  0.48009417583E+02  0.11835362726E+02 -0.43908951011E+03  0.44186488645E+03  0.00000000000E+00 0.  1.
         14    1    4    4    0    0  0.17947731432E+02  0.90966243563E+01 -0.17900996812E+02  0.26931678840E+02  0.00000000000E+00 0. -1.
         -5    1    5    5    0  502 -0.49498632262E+02 -0.57673717114E+02 -0.21533602696E+02  0.79133799900E+02  0.47000000000E+01 0.  1.
         13    1    6    6    0    0  0.20145390629E+02  0.39608397525E+02 -0.32028318277E+02  0.54776592535E+02  0.00000000000E+00 0. -1.
        -14    1    6    6    0    0 -0.29562599096E+02  0.28655537258E+02  0.28552821535E+02  0.50103400069E+02  0.00000000000E+00 0.  1.
</event>
<event>
12    1  0.9966151E-001  0.1758712E+03  0.7818608E-02  0.1172106E+00
         21   -1    0    0  503  502  0.00000000000E+00  0.00000000000E+00  0.26247220761E+03  0.26247220761E+03  0.00000000000E+00 0.  1.
         21   -1    0    0  501  503 -0.00000000000E+00 -0.00000000000E+00 -0.13517611640E+03  0.13517611640E+03  0.00000000000E+00 0.  1.
          6    2    1    2  501    0 -0.20611806675E+02  0.24386838171E+02  0.13633516239E+03  0.22252628317E+03  0.17294827477E+03 0.  0.
         24    2    3    3    0    0 -0.79181139637E+02  0.26595996666E+02  0.11504693036E+03  0.15999208478E+03  0.73380318169E+02 0.  0.
         -6    2    1    2    0  502  0.20611806675E+02 -0.24386838171E+02 -0.90390711755E+01  0.17512204084E+03  0.17194900387E+03 0.  0.
        -24    2    5    5    0    0 -0.28797393857E+02  0.23424991913E+02  0.37691363696E+02  0.91857019755E+02  0.75093628505E+02 0.  0.
          5    1    3    3  501    0  0.58569332962E+02 -0.22091584951E+01  0.21288232030E+02  0.62534198386E+02  0.47000000000E+01 0. -1.
        -13    1    4    4    0    0 -0.76582109901E+01 -0.20502949590E+02  0.89507021524E+01  0.23646018830E+02  0.00000000000E+00 0.  1.
         14    1    4    4    0    0 -0.71522928647E+02  0.47098946256E+02  0.10609622821E+03  0.13634606595E+03  0.00000000000E+00 0. -1.
         -5    1    5    5    0  502  0.49409200532E+02 -0.47811830084E+02 -0.46730434871E+02  0.83265021086E+02  0.47000000000E+01 0.  1.
         11    1    6    6    0    0 -0.11200389245E+02  0.50046197795E+02  0.17960184355E+02  0.54338189655E+02  0.00000000000E+00 0. -1.
        -12    1    6    6    0    0 -0.17597004612E+02 -0.26621205882E+02  0.19731179340E+02  0.37518830100E+02  0.00000000000E+00 0.  1.
</event>
<event>
12    1  0.9966151E-001  0.2765536E+03  0.7818608E-02  0.1097652E+00
         21   -1    0    0  501  502  0.00000000000E+00  0.00000000000E+00  0.17579819707E+03  0.17579819707E+03  0.00000000000E+00 0. -1.
         21   -1    0    0  502  503 -0.00000000000E+00 -0.00000000000E+00 -0.47231188114E+03  0.47231188114E+03  0.00000000000E+00 0. -1.
         -6    2    1    2    0  503 -0.18504842071E+03 -0.11123132025E+03 -0.56219568571E+02  0.28174527485E+03  0.17205939496E+03 0.  0.
        -24    2    3    3    0    0 -0.20423081384E+03 -0.11468972543E+03 -0.69809012902E+02  0.25752363638E+03  0.81124389500E+02 0.  0.
          6    2    1    2  501    0  0.18504842071E+03  0.11123132025E+03 -0.24029411549E+03  0.36636480337E+03  0.17281950871E+03 0.  0.
         24    2    5    5    0    0  0.13378545559E+03  0.35451420561E+01 -0.11677988309E+03  0.19460316570E+03  0.79509338108E+02 0.  0.
          5    1    5    5  501    0  0.51262965119E+02  0.10768617819E+03 -0.12351423240E+03  0.17176163766E+03  0.47000000000E+01 0. -1.
        -13    1    6    6    0    0  0.11463491505E+03  0.32368464059E+02 -0.10257534508E+03  0.15719600069E+03  0.00000000000E+00 0.  1.
         14    1    6    6    0    0  0.19150540542E+02 -0.28823322003E+02 -0.14204538016E+02  0.37407165017E+02  0.00000000000E+00 0. -1.
         -5    1    3    3    0  503  0.19182393131E+02  0.34584051775E+01  0.13589444331E+02  0.24221638463E+02  0.47000000000E+01 0.  1.
         11    1    4    4    0    0  0.95578503837E-01 -0.46847397632E+01 -0.19527549520E+02  0.20081860276E+02  0.00000000000E+00 0. -1.
        -12    1    4    4    0    0 -0.20432639235E+03 -0.11000498566E+03 -0.50281463381E+02  0.23744177611E+03  0.00000000000E+00 0.  1.
</event>
<event>
12    1  0.9966151E-001  0.1849375E+03  0.7818608E-02  0.1163394E+00
         21   -1    0    0  503  502  0.00000000000E+00  0.00000000000E+00  0.10209936218E+04  0.10209936218E+04  0.00000000000E+00 0.  1.
         21   -1    0    0  501  503 -0.00000000000E+00 -0.00000000000E+00 -0.63043511425E+02  0.63043511425E+02  0.00000000000E+00 0.  1.
          6    2    1    2  501    0  0.42634617687E+01 -0.67340065968E+02  0.10737795824E+03  0.21385019685E+03  0.17218890553E+03 0.  0.
         24    2    3    3    0    0 -0.12656321648E+02  0.27372369835E+02  0.71732306824E+02  0.11113979313E+03  0.79354273152E+02 0.  0.
         -6    2    1    2    0  502 -0.42634617687E+01  0.67340065968E+02  0.85057215214E+03  0.87018693638E+03  0.17087848506E+03 0.  0.
        -24    2    5    5    0    0 -0.29052134573E+02  0.49443254750E+02  0.82265995596E+03  0.82852214493E+03  0.79942976731E+02 0.  0.
          5    1    3    3  501    0  0.16919783417E+02 -0.94712435803E+02  0.35645651415E+02  0.10271040372E+03  0.47000000000E+01 0. -1.
        -11    1    4    4    0    0 -0.45011794142E+02  0.14804917659E+02  0.27056461617E+02  0.54564634279E+02  0.00000000000E+00 0.  1.
         12    1    4    4    0    0  0.32355472494E+02  0.12567452176E+02  0.44675845207E+02  0.56575158855E+02  0.00000000000E+00 0. -1.
         -5    1    5    5    0  502  0.24788672804E+02  0.17896811218E+02  0.27912196177E+02  0.41664791450E+02  0.47000000000E+01 0.  1.
         11    1    6    6    0    0 -0.37313406665E+02  0.32658638567E+02  0.21782182206E+03  0.22339476976E+03  0.00000000000E+00 0. -1.
        -12    1    6    6    0    0  0.82612720925E+01  0.16784616183E+02  0.60483813390E+03  0.60512737516E+03  0.00000000000E+00 0.  1.
</event>
<event>
12    1  0.9966151E-001  0.1954056E+03  0.7818608E-02  0.1153935E+00
         21   -1    0    0  501  502  0.00000000000E+00  0.00000000000E+00  0.50484899029E+03  0.50484899029E+03  0.00000000000E+00 0.  1.
         21   -1    0    0  502  503 -0.00000000000E+00 -0.00000000000E+00 -0.83816049520E+02  0.83816049520E+02  0.00000000000E+00 0. -1.
         -6    2    1    2    0  503 -0.88420335197E+02  0.18229860243E+02  0.11541152629E+03  0.22591470682E+03  0.17195101301E+03 0.  0.
        -24    2    3    3    0    0 -0.79793651592E+02  0.74320410947E+01  0.15012261653E+03  0.18825886591E+03  0.80512971212E+02 0.  0.
          6    2    1    2  501    0  0.88420335197E+02 -0.18229860243E+02  0.30562141448E+03  0.36275033299E+03  0.17329994695E+03 0.  0.
         24    2    5    5    0    0  0.59929439400E+02 -0.75486288702E+02  0.15515869787E+03  0.19919254860E+03  0.79458998266E+02 0.  0.
          5    1    5    5  501    0  0.28490895796E+02  0.57256428459E+02  0.15046271661E+03  0.16355778439E+03  0.47000000000E+01 0. -1.
        -13    1    6    6    0    0 -0.26442266184E+01 -0.10283417964E+02  0.82649006818E+02  0.83328260197E+02  0.00000000000E+00 0.  1.
         14    1    6    6    0    0  0.62573666019E+02 -0.65202870737E+02  0.72509691051E+02  0.11586428841E+03  0.00000000000E+00 0. -1.
         -5    1    3    3    0  503 -0.86266836045E+01  0.10797819148E+02 -0.34711090241E+02  0.37655840903E+02  0.47000000000E+01 0.  1.
         13    1    4    4    0    0 -0.17595761979E+02  0.28264729325E+02  0.12068369894E+02  0.35413998861E+02  0.00000000000E+00 0. -1.
        -14    1    4    4    0    0 -0.62197889614E+02 -0.20832688230E+02  0.13805424663E+03  0.15284486705E+03  0.00000000000E+00 0.  1.
</event>
<event>
12    1  0.9966151E-001  0.9608926E+03  0.7818608E-02  0.9352608E-01
         21   -1    0    0  503  502  0.00000000000E+00  0.00000000000E+00  0.18457403082E+03  0.18457403082E+03  0.00000000000E+00 0.  1.
         21   -1    0    0  501  503 -0.00000000000E+00 -0.00000000000E+00 -0.50819989529E+04  0.50819989529E+04  0.00000000000E+00 0.  1.
          6    2    1    2  501    0  0.81509814917E+03  0.47836433884E+03 -0.21159113122E+04  0.23238750479E+04  0.17348522703E+03 0.  0.
         24    2    3    3    0    0  0.62087736501E+03  0.28836234945E+03 -0.14953686468E+04  0.16464403585E+04  0.77439764657E+02 0.  0.
         -6    2    1    2    0  502 -0.81509814917E+03 -0.47836433884E+03 -0.27815136099E+04  0.29426979358E+04  0.17156848679E+03 0.  0.
        -24    2    5    5    0    0 -0.71865583176E+03 -0.46572799776E+03 -0.25636433745E+04  0.27040552590E+04  0.79238372433E+02 0.  0.
          5    1    3    3  501    0  0.19422078416E+03  0.19000198938E+03 -0.62054266535E+03  0.67743468947E+03  0.47000000000E+01 0. -1.
        -13    1    4    4    0    0  0.42992159718E+03  0.23271616180E+03 -0.10182214249E+04  0.11294973492E+04  0.00000000000E+00 0.  1.
         14    1    4    4    0    0  0.19095576783E+03  0.55646187653E+02 -0.47714722191E+03  0.51694300928E+03  0.00000000000E+00 0. -1.
         -5    1    5    5    0  502 -0.96442317416E+02 -0.12636341078E+02 -0.21787023542E+03  0.23864267679E+03  0.47000000000E+01 0.  1.
         13    1    6    6    0    0 -0.15062538559E+03 -0.12573396822E+03 -0.51527476420E+03  0.55136659327E+03  0.00000000000E+00 0. -1.
        -14    1    6    6    0    0 -0.56803044617E+03 -0.33999402953E+03 -0.20483686103E+04  0.21526886657E+04  0.00000000000E+00 0.  1.
</event>
<event>
12    1  0.9966151E-001  0.2818441E+03  0.7818608E-02  0.1094784E+00
         21   -1    0    0  501  502  0.00000000000E+00  0.00000000000E+00  0.10478361589E+03  0.10478361589E+03  0.00000000000E+00 0.  1.
         21   -1    0    0  502  503 -0.00000000000E+00 -0.00000000000E+00 -0.93463174290E+03  0.93463174290E+03  0.00000000000E+00 0.  1.
         -6    2    1    2    0  503 -0.22266505782E+03 -0.23450921238E+00 -0.18824607949E+03  0.33892873935E+03  0.17278981725E+03 0.  0.
        -24    2    3    3    0    0 -0.10312628691E+03  0.52139893369E+02 -0.50897359671E+02  0.14940471282E+03  0.79860049204E+02 0.  0.
          6    2    1    2  501    0  0.22266505782E+03  0.23450921238E+00 -0.64160204751E+03  0.70048661944E+03  0.17160575069E+03 0.  0.
         24    2    5    5    0    0  0.66951841680E+02  0.47928612877E+02 -0.22427464009E+03  0.25248484690E+03  0.81668737546E+02 0.  0.
          5    1    5    5  501    0  0.15571321614E+03 -0.47694103664E+02 -0.41732740743E+03  0.44800177254E+03  0.47000000000E+01 0. -1.
        -13    1    6    6    0    0  0.74236480426E+02  0.52323338880E+02 -0.22620843720E+03  0.24376021799E+03  0.00000000000E+00 0.  1.
         14    1    6    6    0    0 -0.72846387459E+01 -0.43947260035E+01  0.19337971105E+01  0.87246289073E+01  0.00000000000E+00 0. -1.
         -5    1    3    3    0  503 -0.11953877092E+03 -0.52374402582E+02 -0.13734871982E+03  0.18952402654E+03  0.47000000000E+01 0.  1.
         13    1    4    4    0    0 -0.20000687511E+02  0.15559384593E+02  0.21522702611E+02  0.33246784469E+02  0.00000000000E+00 0. -1.
        -14    1    4    4    0    0 -0.83125599394E+02  0.36580508776E+02 -0.72420062283E+02  0.11615792835E+03  0.00000000000E+00 0.  1.
</event>
<event>
12    1  0.9966151E-001  0.2218802E+03  0.7818608E-02  0.1132703E+00
         21   -1    0    0  503  502  0.00000000000E+00  0.00000000000E+00  0.96912995933E+02  0.96912995933E+02  0.00000000000E+00 0.  1.
         21   -1    0    0  501  503 -0.00000000000E+00 -0.00000000000E+00 -0.78219073627E+03  0.78219073627E+03  0.00000000000E+00 0.  1.
          6    2    1    2  501    0  0.12121100549E+03 -0.73623947489E+02 -0.81715559374E+02  0.23644924881E+03  0.17064061980E+03 0.  0.
         24    2    3    3    0    0  0.53272171566E+02 -0.76805537441E+02 -0.10979504727E+03  0.16271760492E+03  0.75399281845E+02 0.  0.
         -6    2    1    2    0  502 -0.12121100549E+03  0.73623947489E+02 -0.60356218096E+03  0.64265448339E+03  0.16912978814E+03 0.  0.
        -24    2    5    5    0    0  0.99335983275E+01  0.29648462166E+02 -0.19831575427E+03  0.21442614854E+03  0.75310869743E+02 0.  0.
          5    1    3    3  501    0  0.67938833928E+02  0.31815899517E+01  0.28079487895E+02  0.73731643889E+02  0.47000000000E+01 0. -1.
        -11    1    4    4    0    0  0.17090525196E+02  0.47134649695E+01  0.39622330647E+01  0.18165959770E+02  0.00000000000E+00 0.  1.
         12    1    4    4    0    0  0.36181646369E+02 -0.81519002410E+02 -0.11375728033E+03  0.14455164515E+03  0.00000000000E+00 0. -1.
         -5    1    5    5    0  502 -0.13114460382E+03  0.43975485323E+02 -0.40524642669E+03  0.42822833485E+03  0.47000000000E+01 0.  1.
         11    1    6    6    0    0  0.51189132503E+01  0.54730630017E+02 -0.15036622200E+03  0.16009886275E+03  0.00000000000E+00 0. -1.
        -12    1    6    6    0    0  0.48146850772E+01 -0.25082167851E+02 -0.47949532268E+02  0.54327285789E+02  0.00000000000E+00 0.  1.
</event>
<event>
12    1  0.9966151E-001  0.2243313E+03  0.7818608E-02  0.1131039E+00
         21   -1    0    0  501  502  0.00000000000E+00  0.00000000000E+00  0.49517126705E+03  0.49517126705E+03  0.00000000000E+00 0. -1.
         21   -1    0    0  502  503 -0.00000000000E+00 -0.00000000000E+00 -0.10212744137E+03  0.10212744137E+03  0.00000000000E+00 0. -1.
         -6    2    1    2    0  503 -0.49339979667E+02 -0.13110595534E+03  0.16301175210E+03  0.27730377074E+03  0.17521799230E+03 0.  0.
        -24    2    3    3    0    0 -0.50184464709E+02 -0.40431173639E+02  0.15541435178E+02  0.10412116895E+03  0.80290231757E+02 0.  0.
          6    2    1    2  501    0  0.49339979667E+02  0.13110595534E+03  0.23003207357E+03  0.31999493768E+03  0.17279699114E+03 0.  0.
         24    2    5    5    0    0  0.22579285779E+02  0.13334798503E+03  0.85757776726E+02  0.17316740564E+03  0.65886605982E+02 0.  0.
          5    1    5    5  501    0  0.26760693888E+02 -0.22420296852E+01  0.14427429685E+03  0.14682753204E+03  0.47000000000E+01 0. -1.
        -11    1    6    6    0    0  0.69351095977E+01  0.89991458574E+02  0.89261763313E+02  0.12694180065E+03  0.00000000000E+00 0.  1.
         12    1    6    6    0    0  0.15644176181E+02  0.43356526456E+02 -0.35039865870E+01  0.46225604990E+02  0.00000000000E+00 0. -1.
         -5    1    3    3    0  503  0.84448504258E+00 -0.90674781706E+02  0.14747031692E+03  0.17318260180E+03  0.47000000000E+01 0.  1.
         11    1    4    4    0    0  0.10643713851E+02  0.16460145621E+02  0.44348826572E+01  0.20097094879E+02  0.00000000000E+00 0. -1.
        -12    1    4    4    0    0 -0.60828178560E+02 -0.56891319259E+02  0.11106552521E+02  0.84024074068E+02  0.00000000000E+00 0.  1.
</event>
<event>
12    1  0.9966151E-001  0.2358045E+03  0.7818608E-02  0.1122687E+00
         21   -1    0    0  503  502  0.00000000000E+00  0.00000000000E+00  0.14369113272E+03  0.14369113272E+03  0.00000000000E+00 0.  1.
         21   -1    0    0  501  503 -0.00000000000E+00 -0.00000000000E+00 -0.40756669550E+03  0.40756669550E+03  0.00000000000E+00 0.  1.
          6    2    1    2  501    0 -0.83604878375E+02 -0.13761822027E+03 -0.19497203751E+03  0.30597036441E+03  0.17226496524E+03 0.  0.
         24    2    3    3    0    0  0.17395926547E+02 -0.47691070879E+02 -0.48643284729E+02  0.10666595231E+03  0.80214710192E+02 0.  0.
         -6    2    1    2    0  502  0.83604878375E+02  0.13761822027E+03 -0.68903525263E+02  0.24528746380E+03  0.17172563544E+03 0.  0.
        -24    2    5    5    0    0  0.65369056316E+02  0.14416504362E+03 -0.10335561870E+03  0.20548240327E+03  0.80523045207E+02 0.  0.
          5    1    3    3  501    0 -0.10100080492E+03 -0.89927149390E+02 -0.14632875278E+03  0.19930441210E+03  0.47000000000E+01 0. -1.
        -13    1    4    4    0    0  0.15315628941E+02  0.36950825662E+01  0.17064295708E+02  0.23225251625E+02  0.00000000000E+00 0.  1.
         14    1    4    4    0    0  0.20802976059E+01 -0.51386153446E+02 -0.65707580438E+02  0.83440700687E+02  0.00000000000E+00 0. -1.
         -5    1    5    5    0  502  0.18235822059E+02 -0.65468233496E+01  0.34452093439E+02  0.39805060539E+02  0.47000000000E+01 0.  1.
         11    1    6    6    0    0  0.27332381102E+02  0.13562931699E+03 -0.75961618695E+02  0.15783706218E+03  0.00000000000E+00 0. -1.
        -12    1    6    6    0    0  0.38036675214E+02  0.85357266277E+01 -0.27394000007E+02  0.47645341081E+02  0.00000000000E+00 0.  1.
</event>
<event>
12    1  0.9966151E-001  0.2066439E+03  0.7818608E-02  0.1145151E+00
         21   -1    0    0  501  502  0.00000000000E+00  0.00000000000E+00  0.13865045237E+03  0.13865045237E+03  0.00000000000E+00 0.  1.
         21   -1    0    0  502  503 -0.00000000000E+00 -0.00000000000E+00 -0.33326823547E+03  0.33326823547E+03  0.00000000000E+00 0.  1.
         -6    2    1    2    0  503 -0.10471802036E+03 -0.45017602687E+02 -0.25363514898E+02  0.20819459873E+03  0.17236366993E+03 0.  0.
        -24    2    3    3    0    0 -0.12881132669E+03 -0.55498511586E+02  0.13335951852E+02  0.16118315769E+03  0.78292528635E+02 0.  0.
          6    2    1    2  501    0  0.10471802036E+03  0.45017602687E+02 -0.16925426821E+03  0.26372408911E+03  0.16706567430E+03 0.  0.
         24    2    5    5    0    0 -0.10421389111E+02  0.15047027757E+01 -0.51075008396E+02  0.93022936444E+02  0.77030777878E+02 0.  0.
          5    1    5    5  501    0  0.11513940947E+03  0.43512899911E+02 -0.11817925981E+03  0.17070115267E+03  0.47000000000E+01 0. -1.
        -13    1    6    6    0    0  0.29793062388E+02  0.64359949442E+01 -0.37284684458E+01  0.30707492153E+02  0.00000000000E+00 0.  1.
         14    1    6    6    0    0 -0.40214451499E+02 -0.49312921685E+01 -0.47346539951E+02  0.62315444290E+02  0.00000000000E+00 0. -1.
         -5    1    3    3    0  503  0.24093306332E+02  0.10480908899E+02 -0.38699466750E+02  0.47011441034E+02  0.47000000000E+01 0.  1.
         11    1    4    4    0    0  0.29174678434E+01  0.69510892835E+01  0.13429877749E+02  0.15401002474E+02  0.00000000000E+00 0. -1.
        -12    1    4    4    0    0 -0.13172879454E+03 -0.62449600869E+02 -0.93925897429E-01  0.14578215522E+03  0.00000000000E+00 0.  1.
</event>
<event>
12    1  0.9966151E-001  0.3507082E+03  0.7818608E-02  0.1062327E+00
         21   -1    0    0  503  502  0.00000000000E+00  0.00000000000E+00  0.47194379334E+03  0.47194379334E+03  0.00000000000E+00 0.  1.
         21   -1    0    0  501  503 -0.00000000000E+00 -0.00000000000E+00 -0.26098119889E+03  0.26098119889E+03  0.00000000000E+00 0.  1.
          6    2    1    2  501    0  0.28330939502E+03  0.11426192715E+03  0.11952484075E+03  0.37051642465E+03  0.17226790784E+03 0.  0.
         24    2    3    3    0    0  0.15223575305E+03  0.54557775955E+02 -0.60928153543E+01  0.17934432727E+03  0.77298058843E+02 0.  0.
         -6    2    1    2    0  502 -0.28330939502E+03 -0.11426192715E+03  0.91437753709E+02  0.36240856758E+03  0.17221819228E+03 0.  0.
        -24    2    5    5    0    0 -0.18480214678E+03 -0.97578296294E+02 -0.43470750494E+01  0.22392086086E+03  0.80301292037E+02 0.  0.
          5    1    3    3  501    0  0.13107364197E+03  0.59704151199E+02  0.12561765610E+03  0.19117209737E+03  0.47000000000E+01 0. -1.
        -13    1    4    4    0    0  0.47242254421E+02 -0.86277642696E+01  0.23226751904E+02  0.53345580164E+02  0.00000000000E+00 0.  1.
         14    1    4    4    0    0  0.10499349863E+03  0.63185540225E+02 -0.29319567258E+02  0.12599874711E+03  0.00000000000E+00 0. -1.
         -5    1    5    5    0  502 -0.98507248237E+02 -0.16683630860E+02  0.95784828758E+02  0.13848770673E+03  0.47000000000E+01 0.  1.
         11    1    6    6    0    0 -0.59820491015E+02 -0.27722780246E+02 -0.39006717031E+02  0.76606577154E+02  0.00000000000E+00 0. -1.
        -12    1    6    6    0    0 -0.12498165577E+03 -0.69855516048E+02  0.34659641981E+02  0.14731428370E+03  0.00000000000E+00 0.  1.
</event>
<event>
12    1  0.9966151E-001  0.3066271E+03  0.7818608E-02  0.1082588E+00
         21   -1    0    0  503  502  0.00000000000E+00  0.00000000000E+00  0.35936131847E+03  0.35936131847E+03  0.00000000000E+00 0. -1.
         21   -1    0    0  501  503 -0.00000000000E+00 -0.00000000000E+00 -0.34246123518E+03  0.34246123518E+03  0.00000000000E+00 0.  1.
          6    2    1    2  501    0 -0.88758586324E+02 -0.23775261813E+03  0.18330329076E+03  0.35295263486E+03  0.16300635563E+03 0.  0.
         24    2    3    3    0    0 -0.10088350958E+03 -0.11465700916E+03  0.13996279717E+03  0.22180374582E+03  0.79269192072E+02 0.  0.
         -6    2    1    2    0  502  0.88758586324E+02  0.23775261813E+03 -0.16640320747E+03  0.34886991879E+03  0.17209241327E+03 0.  0.
        -24    2    5    5    0    0  0.10108746598E+03  0.22375456847E+03 -0.18906204421E+03  0.31914687133E+03  0.76324872935E+02 0.  0.
          5    1    3    3  501    0  0.12124923255E+02 -0.12309560897E+03  0.43340493585E+02  0.13114888904E+03  0.47000000000E+01 0. -1.
        -13    1    4    4    0    0 -0.12480731727E+02  0.12100075479E+02  0.11496505430E+02  0.20841068306E+02  0.00000000000E+00 0.  1.
         14    1    4    4    0    0 -0.88402777853E+02 -0.12675708464E+03  0.12846629174E+03  0.20096267751E+03  0.00000000000E+00 0. -1.
         -5    1    5    5    0  502 -0.12328879661E+02  0.13998049669E+02  0.22658836740E+02  0.29723047465E+02  0.47000000000E+01 0.  1.
         11    1    6    6    0    0  0.60904778961E+02  0.68671163337E+02 -0.39317018369E+02  0.99854637888E+02  0.00000000000E+00 0. -1.
        -12    1    6    6    0    0  0.40182687024E+02  0.15508340513E+03 -0.14974502584E+03  0.21929223344E+03  0.00000000000E+00 0.  1.
</event>
<event>
12    1  0.9966151E-001  0.2765137E+03  0.7818608E-02  0.1098338E+00
         21   -1    0    0  503  502  0.00000000000E+00  0.00000000000E+00  0.10712927310E+04  0.10712927310E+04  0.00000000000E+00 0.  1.
         21   -1    0    0  501  503 -0.00000000000E+00 -0.00000000000E+00 -0.12444065087E+03  0.12444065087E+03  0.00000000000E+00 0.  1.
          6    2    1    2  501    0  0.13858380076E+03  0.16190059398E+03  0.75589207764E+02  0.28164432429E+03  0.16790629799E+03 0.  0.
         24    2    3    3    0    0  0.27955517447E+02  0.16468153621E+02  0.40999537883E+02  0.95612748897E+02  0.80050762680E+02 0.  0.
         -6    2    1    2    0  502 -0.13858380076E+03 -0.16190059398E+03  0.87126287235E+03  0.91408905757E+03  0.17618893345E+03 0.  0.
        -24    2    5    5    0    0 -0.12932274368E+03 -0.47998191164E+02  0.56834545154E+03  0.59029810900E+03  0.80044405280E+02 0.  0.
          5    1    3    3  501    0  0.11062828331E+03  0.14543244036E+03  0.34589669881E+02  0.18603157539E+03  0.47000000000E+01 0. -1.
        -11    1    4    4    0    0 -0.26504534111E+02 -0.45405791292E+01  0.20250463436E+02  0.33662864653E+02  0.00000000000E+00 0.  1.
         12    1    4    4    0    0  0.54460051558E+02  0.21008732750E+02  0.20749074447E+02  0.61949884244E+02  0.00000000000E+00 0. -1.
         -5    1    5    5    0  502 -0.92610570825E+01 -0.11390240282E+03  0.30291742081E+03  0.32379094857E+03  0.47000000000E+01 0.  1.
         13    1    6    6    0    0 -0.37115476738E+02 -0.43254076530E+02  0.12414069637E+03  0.13659936400E+03  0.00000000000E+00 0. -1.
        -14    1    6    6    0    0 -0.92207266941E+02 -0.47441146349E+01  0.44420475517E+03  0.45369874500E+03  0.00000000000E+00 0.  1.
</event>
<event>
12    1  0.9966151E-001  0.3155359E+03  0.7818608E-02  0.1077852E+00
         21   -1    0    0  501  502  0.00000000000E+00  0.00000000000E+00  0.53526939001E+02  0.53526939001E+02  0.00000000000E+00 0.  1.
         21   -1    0    0  502  503 -0.00000000000E+00 -0.00000000000E+00 -0.21196968873E+04  0.21196968873E+04  0.00000000000E+00 0.  1.
         -6    2    1    2    0  503  0.22843242312E+03  0.12908937943E+03 -0.64647535590E+03  0.71888699078E+03  0.17327053963E+03 0.  0.
        -24    2    3    3    0    0  0.89214810603E+02  0.11589704464E+03 -0.43180449670E+03  0.46264248035E+03  0.78686300387E+02 0.  0.
          6    2    1    2  501    0 -0.22843242312E+03 -0.12908937943E+03 -0.14196945924E+04  0.14543368355E+04  0.17526395996E+03 0.  0.
         24    2    5    5    0    0 -0.14849629099E+03 -0.68125932563E+01 -0.87660929927E+03  0.89192673314E+03  0.70653194186E+02 0.  0.
          5    1    5    5  501    0 -0.79936132132E+02 -0.12227678617E+03 -0.54308529314E+03  0.56241010240E+03  0.47000000000E+01 0. -1.
        -11    1    6    6    0    0 -0.27825325123E+02  0.87050230362E-01 -0.37218014680E+03  0.37321886068E+03  0.00000000000E+00 0.  1.
         12    1    6    6    0    0 -0.12067096587E+03 -0.68996434867E+01 -0.50442915248E+03  0.51870787246E+03  0.00000000000E+00 0. -1.
         -5    1    3    3    0  503  0.13921761252E+03  0.13192334796E+02 -0.21467085920E+03  0.25624451043E+03  0.47000000000E+01 0.  1.
         11    1    4    4    0    0  0.97845053000E+02  0.72374730946E+02 -0.31444075185E+03  0.33717168104E+03  0.00000000000E+00 0. -1.
        -12    1    4    4    0    0 -0.86302423966E+01  0.43522313690E+02 -0.11736374485E+03  0.12547079931E+03  0.00000000000E+00 0.  1.
</event>
<event>
12    1  0.9966151E-001  0.2707334E+03  0.7818608E-02  0.1100871E+00
         21   -1    0    0  501  502  0.00000000000E+00  0.00000000000E+00  0.40440727953E+03  0.40440727953E+03  0.00000000000E+00 0.  1.
         21   -1    0    0  502  503 -0.00000000000E+00 -0.00000000000E+00 -0.26654229292E+03  0.26654229292E+03  0.00000000000E+00 0. -1.
         -6    2    1    2    0  503 -0.15688785759E+03  0.13895339849E+03  0.25876830101E+03  0.37450980354E+03  0.17139052638E+03 0.  0.
        -24    2    3    3    0    0 -0.55214377309E+02 -0.14985255229E+01  0.99760335904E+02  0.13920178728E+03  0.79838210913E+02 0.  0.
          6    2    1    2  501    0  0.15688785759E+03 -0.13895339849E+03 -0.12090331441E+03  0.29643976891E+03  0.17128070044E+03 0.  0.
         24    2    5    5    0    0  0.51014758686E+02 -0.13314409297E+03 -0.71270347945E+02  0.17927158866E+03  0.82030390160E+02 0.  0.
          5    1    5    5  501    0  0.10587309890E+03 -0.58093055236E+01 -0.49632966460E+02  0.11716818024E+03  0.47000000000E+01 0. -1.
        -11    1    6    6    0    0 -0.19442390991E+02 -0.59383335715E+02 -0.27842323211E+02  0.68407471009E+02  0.00000000000E+00 0.  1.
         12    1    6    6    0    0  0.70457149677E+02 -0.73760757253E+02 -0.43428024735E+02  0.11086411766E+03  0.00000000000E+00 0. -1.
         -5    1    3    3    0  503 -0.10167348028E+03  0.14045192401E+03  0.15900796511E+03  0.23530801626E+03  0.47000000000E+01 0.  1.
         13    1    4    4    0    0  0.31378614063E+01  0.22353974261E+02  0.61377594587E+02  0.65396907089E+02  0.00000000000E+00 0. -1.
        -14    1    4    4    0    0 -0.58352238715E+02 -0.23852499784E+02  0.38382741317E+02  0.73804880191E+02  0.00000000000E+00 0.  1.
</event>
<event>
12    1  0.9966151E-001  0.1827314E+03  0.7818608E-02  0.1166186E+00
         21   -1    0    0  501  502  0.00000000000E+00  0.00000000000E+00  0.38692988659E+02  0.38692988659E+02  0.00000000000E+00 0.  1.
         21   -1    0    0  502  503 -0.00000000000E+00 -0.00000000000E+00 -0.86410640860E+03  0.86410640860E+03  0.00000000000E+00 0.  1.
         -6    2    1    2    0  503 -0.52008448973E+02  0.27812158679E+02 -0.34748046555E+03  0.39259832401E+03  0.17295194460E+03 0.  0.
        -24    2    3    3    0    0 -0.62466029062E+02  0.19831347854E+01 -0.34902146772E+03  0.36429701407E+03  0.83608563689E+02 0.  0.
          6    2    1    2  501    0  0.52008448973E+02 -0.27812158679E+02 -0.47793295439E+03  0.51020107325E+03  0.16854326245E+03 0.  0.
         24    2    5    5    0    0  0.69556044440E+02  0.72807553527E+01 -0.17327821194E+03  0.20299424907E+03  0.79311245776E+02 0.  0.
          5    1    5    5  501    0 -0.17547595468E+02 -0.35092914032E+02 -0.30465474246E+03  0.30720682418E+03  0.47000000000E+01 0. -1.
        -11    1    6    6    0    0  0.22610059761E+02 -0.31230082581E+02 -0.10375863674E+03  0.11069050348E+03  0.00000000000E+00 0.  1.
         12    1    6    6    0    0  0.46945984680E+02  0.38510837934E+02 -0.69519575192E+02  0.92303745594E+02  0.00000000000E+00 0. -1.
         -5    1    3    3    0  503  0.10457580090E+02  0.25829023894E+02  0.15410021692E+01  0.28301309940E+02  0.47000000000E+01 0.  1.
         13    1    4    4    0    0 -0.22516181436E+02  0.32775441686E+02 -0.25027338905E+03  0.25341266201E+03  0.00000000000E+00 0. -1.
        -14    1    4    4    0    0 -0.39949847626E+02 -0.30792306901E+02 -0.98748078672E+02  0.11088435206E+03  0.00000000000E+00 0.  1.
</event>
<event>
12    1  0.9966151E-001  0.1815941E+03  0.7818608E-02  0.1166638E+00
         21   -1    0    0  503  502  0.00000000000E+00  0.00000000000E+00  0.56186964328E+03  0.56186964328E+03  0.00000000000E+00 0. -1.
         21   -1    0    0  501  503 -0.00000000000E+00 -0.00000000000E+00 -0.82353369578E+02  0.82353369578E+02  0.00000000000E+00 0. -1.
          6    2    1    2  501    0 -0.23738883909E+01 -0.53382576337E+02  0.66019000685E+02  0.19322246149E+03  0.17355424619E+03 0.  0.
         24    2    3    3    0    0 -0.61545060775E+02 -0.19741403663E+02  0.91522232741E+01  0.10440311386E+03  0.81478398788E+02 0.  0.
         -6    2    1    2    0  502  0.23738883909E+01  0.53382576337E+02  0.41349727301E+03  0.45100055136E+03  0.17194815421E+03 0.  0.
        -24    2    5    5    0    0  0.65500347911E+02  0.19134445475E+02  0.20155239803E+03  0.22716890841E+03  0.79535660006E+02 0.  0.
          5    1    3    3  501    0  0.59171172384E+02 -0.33641172674E+02  0.56866777411E+02  0.88819347629E+02  0.47000000000E+01 0. -1.
        -11    1    4    4    0    0  0.82558799189E-01  0.17065885979E+02 -0.20554921113E+02  0.26716213469E+02  0.00000000000E+00 0.  1.
         12    1    4    4    0    0 -0.61627619574E+02 -0.36807289642E+02  0.29707144387E+02  0.77686900393E+02  0.00000000000E+00 0. -1.
         -5    1    5    5    0  502 -0.63126459520E+02  0.34248130862E+02  0.21194487498E+03  0.22383164296E+03  0.47000000000E+01 0.  1.
         13    1    6    6    0    0  0.99088837276E+01  0.16253529244E+02  0.15030342921E+03  0.15150407262E+03  0.00000000000E+00 0. -1.
        -14    1    6    6    0    0  0.55591464183E+02  0.28809162307E+01  0.51248968830E+02  0.75664835786E+02  0.00000000000E+00 0.  1.
</event>
<event>
12    1  0.9966151E-001  0.2864159E+03  0.7818608E-02  0.1092425E+00
         21   -1    0    0  501  502  0.00000000000E+00  0.00000000000E+00  0.10506689489E+03  0.10506689489E+03  0.00000000000E+00 0.  1.
         21   -1    0    0  502  503 -0.00000000000E+00 -0.00000000000E+00 -0.91845929502E+03  0.91845929502E+03  0.00000000000E+00 0.  1.
         -6    2    1    2    0  503  0.34770613190E+02  0.22310132102E+03 -0.60847390001E+03  0.67251361880E+03  0.17621261448E+03 0.  0.
        -24    2    3    3    0    0  0.76844471458E+02  0.96377708973E+02 -0.38457078165E+03  0.41177662524E+03  0.80446052834E+02 0.  0.
          6    2    1    2  501    0 -0.34770613190E+02 -0.22310132102E+03 -0.20491850012E+03  0.35101257111E+03  0.17388225441E+03 0.  0.
         24    2    5    5    0    0  0.39910160634E+02 -0.17154157276E+03 -0.15189588094E+03  0.24580271527E+03  0.79544227200E+02 0.  0.
          5    1    5    5  501    0 -0.74680773824E+02 -0.51559748257E+02 -0.53022619183E+02  0.10520985583E+03  0.47000000000E+01 0. -1.
        -11    1    6    6    0    0  0.40742141806E+02 -0.41766011977E+02 -0.22487929647E+02  0.62530223534E+02  0.00000000000E+00 0.  1.
         12    1    6    6    0    0 -0.83198117255E+00 -0.12977556079E+03 -0.12940795129E+03  0.18327249174E+03  0.00000000000E+00 0. -1.
         -5    1    3    3    0  503 -0.42073858268E+02  0.12672361205E+03 -0.22390311836E+03  0.26073699356E+03  0.47000000000E+01 0.  1.
         11    1    4    4    0    0  0.44576819232E+02  0.10360127953E+03 -0.27217057617E+03  0.29461354427E+03  0.00000000000E+00 0. -1.
        -12    1    4    4    0    0  0.32267652226E+02 -0.72235705557E+01 -0.11240020547E+03  0.11716308097E+03  0.00000000000E+00 0.  1.
</event>
<event>
12    1  0.9966151E-001  0.3416258E+03  0.7818608E-02  0.1066238E+00
         21   -1    0    0  501  502  0.00000000000E+00  0.00000000000E+00  0.17303254331E+04  0.17303254331E+04  0.00000000000E+00 0.  1.
         21   -1    0    0  502  503 -0.00000000000E+00 -0.00000000000E+00 -0.10163786240E+03  0.10163786240E+03  0.00000000000E+00 0.  1.
         -6    2    1    2    0  503 -0.92560309616E+02  0.27851483337E+03  0.28018467929E+03  0.44086006277E+03  0.17238392361E+03 0.  0.
        -24    2    3    3    0    0 -0.63084176852E+02  0.24623490955E+03  0.16552818234E+03  0.31806332757E+03  0.95673701430E+02 0.  0.
          6    2    1    2  501    0  0.92560309616E+02 -0.27851483337E+03  0.13485028914E+04  0.13911032327E+04  0.17484345174E+03 0.  0.
         24    2    5    5    0    0  0.59477466924E+00 -0.77163484681E+02  0.60771863913E+03  0.61793868124E+03  0.81066098351E+02 0.  0.
          5    1    5    5  501    0  0.91965534947E+02 -0.20135134869E+03  0.74078425224E+03  0.77316455144E+03  0.47000000000E+01 0. -1.
        -11    1    6    6    0    0  0.22012193666E+02  0.85171103045E+01  0.12688330493E+03  0.12905987335E+03  0.00000000000E+00 0.  1.
         12    1    6    6    0    0 -0.21417418997E+02 -0.85680594986E+02  0.48083533420E+03  0.48887880789E+03  0.00000000000E+00 0. -1.
         -5    1    3    3    0  503 -0.29476132765E+02  0.32279923818E+02  0.11465649695E+03  0.12279673520E+03  0.47000000000E+01 0.  1.
         11    1    4    4    0    0 -0.40655012496E+02  0.23136074307E+03  0.17105798180E+03  0.29058812194E+03  0.00000000000E+00 0. -1.
        -12    1    4    4    0    0 -0.22429164356E+02  0.14874166477E+02 -0.55297994621E+01  0.27475205626E+02  0.00000000000E+00 0.  1.
</event>
<event>
12    1  0.9966151E-001  0.2233129E+03  0.7818608E-02  0.1131597E+00
         21   -1    0    0  501  502  0.00000000000E+00  0.00000000000E+00  0.39044021057E+03  0.39044021057E+03  0.00000000000E+00 0.  1.
         21   -1    0    0  502  503 -0.00000000000E+00 -0.00000000000E+00 -0.13874488468E+03  0.13874488468E+03  0.00000000000E+00 0.  1.
         -6    2    1    2    0  503 -0.13068205500E+03 -0.57637596062E+02  0.20231941957E+03  0.30133333973E+03  0.17166462103E+03 0.  0.
        -24    2    3    3    0    0 -0.63762278131E+02 -0.84176040824E+02  0.18469413181E+03  0.22706836578E+03  0.79352923392E+02 0.  0.
          6    2    1    2  501    0  0.13068205500E+03  0.57637596062E+02  0.49375906313E+02  0.22785175552E+03  0.17052433959E+03 0.  0.
         24    2    5    5    0    0  0.99456194310E+02  0.10495141600E+03  0.43546460984E+02  0.17067025181E+03  0.79534308839E+02 0.  0.
          5    1    5    5  501    0  0.31225860691E+02 -0.47313819942E+02  0.58294453286E+01  0.57181503707E+02  0.47000000000E+01 0. -1.
        -11    1    6    6    0    0  0.51735576849E+02  0.47658830026E+02 -0.19533730604E+02  0.73003428842E+02  0.00000000000E+00 0.  1.
         12    1    6    6    0    0  0.47720617461E+02  0.57292585977E+02  0.63080191588E+02  0.97666822973E+02  0.00000000000E+00 0. -1.
         -5    1    3    3    0  503 -0.66919776870E+02  0.26538444762E+02  0.17625287763E+02  0.74264973948E+02  0.47000000000E+01 0.  1.
         13    1    4    4    0    0 -0.16223154400E+02 -0.94118818947E+01 -0.34839179016E+01  0.19076476179E+02  0.00000000000E+00 0. -1.
        -14    1    4    4    0    0 -0.47539123732E+02 -0.74764158929E+02  0.18817804971E+03  0.20799188960E+03  0.00000000000E+00 0.  1.
</event>
<event>
12    1  0.9966151E-001  0.1813133E+03  0.7818608E-02  0.1167397E+00
         21   -1    0    0  503  502  0.00000000000E+00  0.00000000000E+00  0.56356236848E+03  0.56356236848E+03  0.00000000000E+00 0.  1.
         21   -1    0    0  501  503 -0.00000000000E+00 -0.00000000000E+00 -0.58771787588E+02  0.58771787588E+02  0.00000000000E+00 0.  1.
          6    2    1    2  501    0  0.30620409024E+01  0.57164491701E+02  0.30574737527E+03  0.35546584131E+03  0.17203880854E+03 0.  0.
         24    2    3    3    0    0  0.50218692727E+02 -0.19752062737E+02  0.15681739473E+03  0.18127590112E+03  0.73192868197E+02 0.  0.
         -6    2    1    2    0  502 -0.30620409024E+01 -0.57164491701E+02  0.19904320562E+03  0.26686831476E+03  0.16829540848E+03 0.  0.
        -24    2    5    5    0    0  0.39268212856E+02  0.19405621100E+02  0.11365278282E+03  0.14452271057E+03  0.77790026086E+02 0.  0.
          5    1    3    3  501    0 -0.47156651824E+02  0.76916554438E+02  0.14892998054E+03  0.17418994019E+03  0.47000000000E+01 0. -1.
        -11    1    4    4    0    0  0.47739575193E+02 -0.65916189293E+01  0.37118225562E+02  0.60829919847E+02  0.00000000000E+00 0.  1.
         12    1    4    4    0    0  0.24791175338E+01 -0.13160443808E+02  0.11969916917E+03  0.12044598127E+03  0.00000000000E+00 0. -1.
         -5    1    5    5    0  502 -0.42330253758E+02 -0.76570112802E+02  0.85390422803E+02  0.12234560419E+03  0.47000000000E+01 0.  1.
         13    1    6    6    0    0 -0.11019074141E+02  0.10662981982E+02 -0.43628955375E+01  0.15942209293E+02  0.00000000000E+00 0. -1.
        -14    1    6    6    0    0  0.50287286997E+02  0.87426391186E+01  0.11801567835E+03  0.12858050128E+03  0.00000000000E+00 0.  1.
</event>
<event>
12    1  0.9966151E-001  0.2428213E+03  0.7818608E-02  0.1118100E+00
         21   -1    0    0  501  502  0.00000000000E+00  0.00000000000E+00  0.12089642882E+03  0.12089642882E+03  0.00000000000E+00 0. -1.
         21   -1    0    0  502  503 -0.00000000000E+00 -0.00000000000E+00 -0.10025544739E+04  0.10025544739E+04  0.00000000000E+00 0. -1.
         -6    2    1    2    0  503 -0.98000090202E+02  0.14044277692E+03 -0.37008126837E+02  0.24459045433E+03  0.17066545529E+03 0.  0.
        -24    2    3    3    0    0 -0.65483049400E+02  0.15092613695E+03  0.14008811706E+02  0.18301061349E+03  0.78929774281E+02 0.  0.
          6    2    1    2  501    0  0.98000090202E+02 -0.14044277692E+03 -0.84464991822E+03  0.87886044837E+03  0.17214532259E+03 0.  0.
         24    2    5    5    0    0  0.13389946184E+03 -0.12403477841E+03 -0.63404553873E+03  0.66453760320E+03  0.79264044512E+02 0.  0.
          5    1    5    5  501    0 -0.35899371638E+02 -0.16407998508E+02 -0.21060437949E+03  0.21432284516E+03  0.47000000000E+01 0. -1.
        -13    1    6    6    0    0  0.96689967756E+02 -0.12421491048E+03 -0.44914670323E+03  0.47593177544E+03  0.00000000000E+00 0.  1.
         14    1    6    6    0    0  0.37209494085E+02  0.18013207022E+00 -0.18489883550E+03  0.18860582776E+03  0.00000000000E+00 0. -1.
         -5    1    3    3    0  503 -0.32517040803E+02 -0.10483360035E+02 -0.51016938543E+02  0.61579840845E+02  0.47000000000E+01 0.  1.
         11    1    4    4    0    0  0.42345939328E+01  0.56113798509E+02 -0.21257290510E+02  0.60154489182E+02  0.00000000000E+00 0. -1.
        -12    1    4    4    0    0 -0.69717643332E+02  0.94812338445E+02  0.35266102216E+02  0.12285612430E+03  0.00000000000E+00 0.  1.
</event>
<event>
12    1  0.9966151E-001  0.1877324E+03  0.7818608E-02  0.1160620E+00
         21   -1    0    0  503  502  0.00000000000E+00  0.00000000000E+00  0.84295804508E+02  0.84295804508E+02  0.00000000000E+00 0. -1.
         21   -1    0    0  501  503 -0.00000000000E+00 -0.00000000000E+00 -0.52582183557E+03  0.52582183557E+03  0.00000000000E+00 0. -1.
          6    2    1    2  501    0 -0.14430355690E+02  0.72599017252E+02 -0.35925020585E+03  0.40514744491E+03  0.17206071382E+03 0.  0.
         24    2    3    3    0    0  0.17241119687E+02 -0.55773002147E+00 -0.65319597606E+02  0.10056201438E+03  0.74488265082E+02 0.  0.
         -6    2    1    2    0  502  0.14430355690E+02 -0.72599017252E+02 -0.82275825216E+02  0.20497019517E+03  0.17252425054E+03 0.  0.
        -24    2    5    5    0    0 -0.35773509502E+02 -0.96761307666E+02 -0.44988481117E+02  0.13776394258E+03  0.79450901805E+02 0.  0.
          5    1    3    3  501    0 -0.31671475377E+02  0.73156747274E+02 -0.29393060824E+03  0.30458543052E+03  0.47000000000E+01 0. -1.
        -11    1    4    4    0    0  0.27379948379E+02 -0.30192381946E+02 -0.19814161145E+02  0.45319338948E+02  0.00000000000E+00 0.  1.
         12    1    4    4    0    0 -0.10138828691E+02  0.29634651925E+02 -0.45505436461E+02  0.55242675437E+02  0.00000000000E+00 0. -1.
         -5    1    5    5    0  502  0.50203865192E+02  0.24162290414E+02 -0.37287344099E+02  0.67206252598E+02  0.47000000000E+01 0.  1.
         11    1    6    6    0    0  0.64021152350E+01  0.10734703127E+01  0.14396687312E+02  0.15792530625E+02  0.00000000000E+00 0. -1.
        -12    1    6    6    0    0 -0.42175624737E+02 -0.97834777979E+02 -0.59385168428E+02  0.12197141195E+03  0.00000000000E+00 0.  1.
</event>
<event>
12    1  0.9966151E-001  0.1828415E+03  0.7818608E-02  0.1165236E+00
         21   -1    0    0  501  502  0.00000000000E+00  0.00000000000E+00  0.92350293489E+02  0.92350293489E+02  0.00000000000E+00 0. -1.
         21   -1    0    0  502  503 -0.00000000000E+00 -0.00000000000E+00 -0.48209541877E+03  0.48209541877E+03  0.00000000000E+00 0. -1.
         -6    2    1    2    0  503 -0.53020797278E+02 -0.36592906780E+02 -0.50490685029E+02  0.18905684287E+03  0.17041987792E+03 0.  0.
        -24    2    3    3    0    0 -0.38646833475E+02  0.98756990033E+01 -0.91177979102E+02  0.12546841579E+03  0.76405446928E+02 0.  0.
          6    2    1    2  501    0  0.53020797278E+02  0.36592906780E+02 -0.33925444025E+03  0.38538886939E+03  0.17111621679E+03 0.  0.
         24    2    5    5    0    0  0.48696471418E+02 -0.21736072801E+02 -0.10356864405E+03  0.14250854045E+03  0.82087860751E+02 0.  0.
          5    1    5    5  501    0  0.43243258606E+01  0.58328979580E+02 -0.23568579621E+03  0.24288032894E+03  0.47000000000E+01 0. -1.
        -11    1    6    6    0    0  0.32096565803E+02  0.12951484705E+02 -0.97647976031E+02  0.10360047160E+03  0.00000000000E+00 0.  1.
         12    1    6    6    0    0  0.16599905615E+02 -0.34687557506E+02 -0.59206680151E+01  0.38908068853E+02  0.00000000000E+00 0. -1.
         -5    1    3    3    0  503 -0.14373963803E+02 -0.46468605783E+02  0.40687294072E+02  0.63588427074E+02  0.47000000000E+01 0.  1.
         13    1    4    4    0    0 -0.31910597488E+02  0.27209797217E+02 -0.11269151208E+02  0.43424106963E+02  0.00000000000E+00 0. -1.
        -14    1    4    4    0    0 -0.67362359869E+01 -0.17334098214E+02 -0.79908827894E+02  0.82044308830E+02  0.00000000000E+00 0.  1.
</event>
<event>
12    1  0.9966151E-001  0.1853794E+03  0.7818608E-02  0.1162810E+00
         21   -1    0    0  503  502  0.00000000000E+00  0.00000000000E+00  0.35509719815E+03  0.35509719815E+03  0.00000000000E+00 0. -1.
         21   -1    0    0  501  503 -0.00000000000E+00 -0.00000000000E+00 -0.10633643819E+03  0.10633643819E+03  0.00000000000E+00 0. -1.
          6    2    1    2  501    0  0.66797574863E+02 -0.10160185530E+02  0.54438829992E+02  0.19320743504E+03  0.17262786961E+03 0.  0.
         24    2    3    3    0    0  0.90484802197E+02  0.16590040199E+02  0.81921494220E+02  0.14788584914E+03  0.81831316114E+02 0.  0.
         -6    2    1    2    0  502 -0.66797574863E+02  0.10160185530E+02  0.19432192997E+03  0.26822620131E+03  0.17210211277E+03 0.  0.
        -24    2    5    5    0    0 -0.92100339666E+01 -0.44795487660E+02  0.15231428810E+03  0.17809749967E+03  0.80172417886E+02 0.  0.
          5    1    3    3  501    0 -0.23687227334E+02 -0.26750225729E+02 -0.27482664228E+02  0.45321585899E+02  0.47000000000E+01 0. -1.
        -13    1    4    4    0    0 -0.61991114254E+01  0.52486437529E+00 -0.11123005154E+02  0.12744634507E+02  0.00000000000E+00 0.  1.
         14    1    4    4    0    0  0.96683913623E+02  0.16065175824E+02  0.93044499374E+02  0.13514121463E+03  0.00000000000E+00 0. -1.
         -5    1    5    5    0  502 -0.57587540896E+02  0.54955673191E+02  0.42007641874E+02  0.90128701634E+02  0.47000000000E+01 0.  1.
         13    1    6    6    0    0 -0.41495995757E+02 -0.10737946865E+02  0.52298479941E+02  0.67619170143E+02  0.00000000000E+00 0. -1.
        -14    1    6    6    0    0  0.32285961790E+02 -0.34057540795E+02  0.10001580816E+03  0.11047832953E+03  0.00000000000E+00 0.  1.
</event>
<event>
12    1  0.9966151E-001  0.2163137E+03  0.7818608E-02  0.1136763E+00
         21   -1    0    0  503  502  0.00000000000E+00  0.00000000000E+00  0.88987893668E+03  0.88987893668E+03  0.00000000000E+00 0.  1.
         21   -1    0    0  501  503 -0.00000000000E+00 -0.00000000000E+00 -0.54798285435E+02  0.54798285435E+02  0.00000000000E+00 0.  1.
          6    2    1    2  501    0 -0.12352828989E+03  0.45539964633E+02  0.51477557897E+03  0.55817112054E+03  0.17096191481E+03 0.  0.
         24    2    3    3    0    0 -0.12112729038E+02  0.67133501597E+01  0.32873540105E+03  0.33782146432E+03  0.76580614911E+02 0.  0.
         -6    2    1    2    0  502  0.12352828989E+03 -0.45539964633E+02  0.32030507228E+03  0.38650610158E+03  0.17163478799E+03 0.  0.
        -24    2    5    5    0    0  0.12920106398E+03  0.17034467750E+02  0.21334556463E+03  0.26236841097E+03  0.79610081664E+02 0.  0.
          5    1    3    3  501    0 -0.11141556086E+03  0.38826614473E+02  0.18604017792E+03  0.22034965621E+03  0.47000000000E+01 0. -1.
        -11    1    4    4    0    0  0.82600992150E+01  0.34693482217E+02  0.23893565595E+03  0.24158252137E+03  0.00000000000E+00 0.  1.
         12    1    4    4    0    0 -0.20372828253E+02 -0.27980132057E+02  0.89799745096E+02  0.96238942951E+02  0.00000000000E+00 0. -1.
         -5    1    5    5    0  502 -0.56727740850E+01 -0.62574432382E+02  0.10695950765E+03  0.12413769061E+03  0.47000000000E+01 0.  1.
         13    1    6    6    0    0  0.11564771994E+03 -0.15415957675E+02  0.17513068602E+03  0.21043479765E+03  0.00000000000E+00 0. -1.
        -14    1    6    6    0    0  0.13553344044E+02  0.32450425425E+02  0.38214878616E+02  0.51933613322E+02  0.00000000000E+00 0.  1.
</event>
<event>
12    1  0.9966151E-001  0.3002806E+03  0.7818608E-02  0.1085115E+00
         21   -1    0    0  501  502  0.00000000000E+00  0.00000000000E+00  0.11686404196E+04  0.11686404196E+04  0.00000000000E+00 0. -1.
         21   -1    0    0  502  503 -0.00000000000E+00 -0.00000000000E+00 -0.90250618919E+02  0.90250618919E+02  0.00000000000E+00 0. -1.
         -6    2    1    2    0  503  0.15624454768E+03 -0.19017485776E+03  0.77913985740E+03  0.83495830585E+03  0.17180692624E+03 0.  0.
        -24    2    3    3    0    0  0.67578446132E+02 -0.17859218080E+03  0.60043450332E+03  0.63507451574E+03  0.79599210682E+02 0.  0.
          6    2    1    2  501    0 -0.15624454768E+03  0.19017485776E+03  0.29924994328E+03  0.42393273268E+03  0.17201627270E+03 0.  0.
         24    2    5    5    0    0 -0.17898454347E+03  0.17672193903E+03  0.29688850814E+03  0.39699289588E+03  0.78704908193E+02 0.  0.
          5    1    5    5  501    0  0.22739995788E+02  0.13452918733E+02  0.23614351410E+01  0.26939836800E+02  0.47000000000E+01 0. -1.
        -13    1    6    6    0    0 -0.29081415617E+02  0.68576013028E+02  0.11942916623E+03  0.14075412621E+03  0.00000000000E+00 0.  1.
         14    1    6    6    0    0 -0.14990312785E+03  0.10814592600E+03  0.17745934191E+03  0.25623876967E+03  0.00000000000E+00 0. -1.
         -5    1    3    3    0  503  0.88666101551E+02 -0.11582676965E+02  0.17870535408E+03  0.19988379011E+03  0.47000000000E+01 0.  1.
         11    1    4    4    0    0  0.29742290548E+02 -0.51765051993E+02  0.91822128776E+02  0.10952409684E+03  0.00000000000E+00 0. -1.
        -12    1    4    4    0    0  0.37836155583E+02 -0.12682712881E+03  0.50861237454E+03  0.52555041890E+03  0.00000000000E+00 0.  1.
</event>
<event>
12    1  0.9966151E-001  0.2460848E+03  0.7818608E-02  0.1115825E+00
         21   -1    0    0  501  502  0.00000000000E+00  0.00000000000E+00  0.78636882629E+02  0.78636882629E+02  0.00000000000E+00 0.  1.
         21   -1    0    0  502  503 -0.00000000000E+00 -0.00000000000E+00 -0.79754749254E+03  0.79754749254E+03  0.00000000000E+00 0.  1.
         -6    2    1    2    0  503 -0.74684059410E+02  0.15874570290E+03 -0.27768548170E+03  0.37103499933E+03  0.17256835477E+03 0.  0.
        -24    2    3    3    0    0 -0.32632578230E+02  0.32716312035E+02 -0.44491106524E+02  0.10260727900E+03  0.80084660887E+02 0.  0.
          6    2    1    2  501    0  0.74684059410E+02 -0.15874570290E+03 -0.44122512821E+03  0.50514937584E+03  0.17239017148E+03 0.  0.
         24    2    5    5    0    0  0.68418434974E+02 -0.19805835500E+02 -0.15029068887E+03  0.18264591415E+03  0.75490962580E+02 0.  0.
          5    1    5    5  501    0  0.62656244354E+01 -0.13893986740E+03 -0.29093443934E+03  0.32250346168E+03  0.47000000000E+01 0. -1.
        -13    1    6    6    0    0  0.25564670468E+02 -0.36039020945E+02 -0.28653466601E+02  0.52662933407E+02  0.00000000000E+00 0.  1.
         14    1    6    6    0    0  0.42853764506E+02  0.16233185445E+02 -0.12163722227E+03  0.12998298075E+03  0.00000000000E+00 0. -1.
         -5    1    3    3    0  503 -0.42051481180E+02  0.12602939086E+03 -0.23319437517E+03  0.26842772033E+03  0.47000000000E+01 0.  1.
         11    1    4    4    0    0 -0.62006101840E+01  0.55825957950E+02 -0.19290310991E+02  0.59389403481E+02  0.00000000000E+00 0. -1.
        -12    1    4    4    0    0 -0.26431968046E+02 -0.23109645915E+02 -0.25200795532E+02  0.43217875521E+02  0.00000000000E+00 0.  1.
</event>
<event>
12    1  0.9966151E-001  0.1754081E+03  0.7818608E-02  0.1172792E+00
         21   -1    0    0  501  502  0.00000000000E+00  0.00000000000E+00  0.11281442990E+04  0.11281442990E+04  0.00000000000E+00 0.  1.
         21   -1    0    0  502  503 -0.00000000000E+00 -0.00000000000E+00 -0.32419072652E+02  0.32419072652E+02  0.00000000000E+00 0.  1.
         -6    2    1    2    0  503 -0.29047111752E+02  0.13475754410E+02  0.78790267424E+03  0.80719180838E+03  0.17246060646E+03 0.  0.
        -24    2    3    3    0    0 -0.51483596149E+02 -0.40202603342E+02  0.32566899338E+03  0.34128749669E+03  0.78422268291E+02 0.  0.
          6    2    1    2  501    0  0.29047111752E+02 -0.13475754410E+02  0.30782255212E+03  0.35337156328E+03  0.17056203413E+03 0.  0.
         24    2    5    5    0    0  0.65637251124E+02 -0.48927655983E+02  0.15583053863E+03  0.19299906630E+03  0.79141130697E+02 0.  0.
          5    1    5    5  501    0 -0.36590139372E+02  0.35451901574E+02  0.15199201349E+03  0.16037249698E+03  0.47000000000E+01 0. -1.
        -13    1    6    6    0    0  0.50384858851E+00  0.20727542843E+01 -0.86381318642E+01  0.88976118046E+01  0.00000000000E+00 0.  1.
         14    1    6    6    0    0  0.65133402535E+02 -0.51000410268E+02  0.16446867050E+03  0.18410145450E+03  0.00000000000E+00 0. -1.
         -5    1    3    3    0  503  0.22436484397E+02  0.53678357752E+02  0.46223368086E+03  0.46590431169E+03  0.47000000000E+01 0.  1.
         13    1    4    4    0    0 -0.53177772517E+02  0.61107981112E+01  0.20912932959E+03  0.21587101203E+03  0.00000000000E+00 0. -1.
        -14    1    4    4    0    0  0.16941763683E+01 -0.46313401453E+02  0.11653966379E+03  0.12541648466E+03  0.00000000000E+00 0.  1.
</event>
<event>
12    1  0.9966151E-001  0.1974811E+03  0.7818608E-02  0.1152279E+00
         21   -1    0    0  501  502  0.00000000000E+00  0.00000000000E+00  0.13690655890E+03  0.13690655890E+03  0.00000000000E+00 0.  1.
         21   -1    0    0  502  503 -0.00000000000E+00 -0.00000000000E+00 -0.37370417524E+03  0.37370417524E+03  0.00000000000E+00 0.  1.
         -6    2    1    2    0  503  0.86097504377E+02  0.30605019350E+02  0.75118276529E+01  0.19762394655E+03  0.17506955540E+03 0.  0.
        -24    2    3    3    0    0  0.11037487632E+03  0.67404908237E+02  0.13227778070E+02  0.15292065025E+03  0.80521526215E+02 0.  0.
          6    2    1    2  501    0 -0.86097504377E+02 -0.30605019350E+02 -0.24430944399E+03  0.31298678760E+03  0.17298606105E+03 0.  0.
         24    2    5    5    0    0  0.24525137168E+02 -0.23406493586E+02 -0.12585422294E+03  0.15068177538E+03  0.75606651200E+02 0.  0.
          5    1    5    5  501    0 -0.11062264155E+03 -0.71985257634E+01 -0.11845522106E+03  0.16230501222E+03  0.47000000000E+01 0. -1.
        -13    1    6    6    0    0  0.32652180108E+02 -0.16452086361E+02 -0.13292350270E+03  0.13786041340E+03  0.00000000000E+00 0.  1.
         14    1    6    6    0    0 -0.81270429393E+01 -0.69544072251E+01  0.70692797631E+01  0.12821361985E+02  0.00000000000E+00 0. -1.
         -5    1    3    3    0  503 -0.24277371945E+02 -0.36799888887E+02 -0.57159504169E+01  0.44703296297E+02  0.47000000000E+01 0.  1.
         11    1    4    4    0    0  0.40926843784E+02  0.28315394035E+01  0.36902597702E+02  0.55179940872E+02  0.00000000000E+00 0. -1.
        -12    1    4    4    0    0  0.69448032538E+02  0.64573368833E+02 -0.23674819632E+02  0.97740709382E+02  0.00000000000E+00 0.  1.
</event>
<event>
12    1  0.9966151E-001  0.3442041E+03  0.7818608E-02  0.1065063E+00
         21   -1    0    0  501  502  0.00000000000E+00  0.00000000000E+00  0.11040908194E+04  0.11040908194E+04  0.00000000000E+00 0. -1.
         21   -1    0    0  502  503 -0.00000000000E+00 -0.00000000000E+00 -0.11148585464E+03  0.11148585464E+03  0.00000000000E+00 0.  1.
         -6    2    1    2    0  503 -0.11576975213E+03  0.27506087245E+03  0.37653553168E+03  0.50987277501E+03  0.17067548452E+03 0.  0.
        -24    2    3    3    0    0 -0.15913738419E+02  0.15089885498E+03  0.26237096633E+03  0.31380373605E+03  0.81305284467E+02 0.  0.
          6    2    1    2  501    0  0.11576975213E+03 -0.27506087245E+03  0.61606943306E+03  0.70570389902E+03  0.17150897259E+03 0.  0.
         24    2    5    5    0    0 -0.11742258722E+02 -0.51755236138E+02  0.14303225757E+03  0.16727007810E+03  0.68589847738E+02 0.  0.
          5    1    5    5  501    0  0.12751201085E+03 -0.22330563631E+03  0.47303717549E+03  0.53843382092E+03  0.47000000000E+01 0. -1.
        -11    1    6    6    0    0  0.17956648561E+02 -0.18315045294E+02  0.11072332792E+02  0.27937048253E+02  0.00000000000E+00 0.  1.
         12    1    6    6    0    0 -0.29698907283E+02 -0.33440190844E+02  0.13195992478E+03  0.13933302984E+03  0.00000000000E+00 0. -1.
         -5    1    3    3    0  503 -0.99856013710E+02  0.12416201747E+03  0.11416456536E+03  0.19606903896E+03  0.47000000000E+01 0.  1.
         13    1    4    4    0    0 -0.18359944972E+02  0.96119106996E+02  0.23042324491E+03  0.25034145103E+03  0.00000000000E+00 0. -1.
        -14    1    4    4    0    0  0.24462065533E+01  0.54779747986E+02  0.31947721411E+02  0.63462285014E+02  0.00000000000E+00 0.  1.
</event>
<event>
12    1  0.9966151E-001  0.1787746E+03  0.7818608E-02  0.1169135E+00
         21   -1    0    0  503  502  0.00000000000E+00  0.00000000000E+00  0.51401413167E+03  0.51401413167E+03  0.00000000000E+00 0.  1.
         21   -1    0    0  501  503 -0.00000000000E+00 -0.00000000000E+00 -0.62858260977E+02  0.62858260977E+02  0.00000000000E+00 0.  1.
          6    2    1    2  501    0 -0.22589167425E+02  0.43916129171E+02  0.19180287265E+03  0.26219976359E+03  0.17181815150E+03 0.  0.
         24    2    3    3    0    0 -0.17703469066E+02 -0.33252795092E+02  0.15359908907E+03  0.17582539239E+03  0.76829208306E+02 0.  0.
         -6    2    1    2    0  502  0.22589167425E+02 -0.43916129171E+02  0.25935299804E+03  0.31467262905E+03  0.17121912567E+03 0.  0.
        -24    2    5    5    0    0 -0.18061923115E+02  0.26498981891E+02  0.80383829453E+02  0.11804391209E+03  0.80276871115E+02 0.  0.
          5    1    3    3  501    0 -0.48856983589E+01  0.77168924263E+02  0.38203783576E+02  0.86374371198E+02  0.47000000000E+01 0. -1.
        -13    1    4    4    0    0  0.29766211152E+02 -0.10803487878E+02  0.73709871572E+02  0.80223985465E+02  0.00000000000E+00 0.  1.
         14    1    4    4    0    0 -0.47469680218E+02 -0.22449307214E+02  0.79889217497E+02  0.95601406929E+02  0.00000000000E+00 0. -1.
         -5    1    5    5    0  502  0.40651090541E+02 -0.70415111062E+02  0.17896916859E+03  0.19662871696E+03  0.47000000000E+01 0.  1.
         13    1    6    6    0    0 -0.77655414929E+00  0.30065593919E+02  0.92082274247E+02  0.96869438961E+02  0.00000000000E+00 0. -1.
        -14    1    6    6    0    0 -0.17285368966E+02 -0.35666120275E+01 -0.11698444795E+02  0.21174473128E+02  0.00000000000E+00 0.  1.
</event>
<event>
12    1  0.9966151E-001  0.2113625E+03  0.7818608E-02  0.1141552E+00
         21   -1    0    0  501  502  0.00000000000E+00  0.00000000000E+00  0.15479419591E+04  0.15479419591E+04  0.00000000000E+00 0.  1.
         21   -1    0    0  502  503 -0.00000000000E+00 -0.00000000000E+00 -0.34440590633E+02  0.34440590633E+02  0.00000000000E+00 0.  1.
         -6    2    1    2    0  503  0.71329330087E+02 -0.98366675368E+02  0.10873097427E+04  0.11066584688E+04  0.16639295013E+03 0.  0.
        -24    2    3    3    0    0 -0.96209758105E+01 -0.69485801672E+02  0.79446840526E+03  0.80142872615E+03  0.78658224774E+02 0.  0.
          6    2    1    2  501    0 -0.71329330087E+02  0.98366675368E+02  0.42619162583E+03  0.47572408099E+03  0.17294572314E+03 0.  0.
         24    2    5    5    0    0 -0.59488144091E+02  0.71764672762E+02  0.13323202305E+03  0.18128342638E+03  0.80149243095E+02 0.  0.
          5    1    5    5  501    0 -0.11841185996E+02  0.26602002606E+02  0.29295960278E+03  0.29444065461E+03  0.47000000000E+01 0. -1.
        -13    1    6    6    0    0  0.11207176808E+02 -0.13845516524E+01 -0.25931542419E+01  0.11586295535E+02  0.00000000000E+00 0.  1.
         14    1    6    6    0    0 -0.70695320900E+02  0.73149224414E+02  0.13582517729E+03  0.16969713084E+03  0.00000000000E+00 0. -1.
         -5    1    3    3    0  503  0.80950305898E+02 -0.28880873696E+02  0.29284133741E+03  0.30522974263E+03  0.47000000000E+01 0.  1.
         11    1    4    4    0    0 -0.20646353212E+02 -0.58396705102E+02  0.28201290287E+03  0.28873469561E+03  0.00000000000E+00 0. -1.
        -12    1    4    4    0    0  0.11025377402E+02 -0.11089096571E+02  0.51245550240E+03  0.51269403053E+03  0.00000000000E+00 0.  1.
</event>
<event>
12    1  0.9966151E-001  0.2242487E+03  0.7818608E-02  0.1134107E+00
         21   -1    0    0  501  502  0.00000000000E+00  0.00000000000E+00  0.23887265364E+03  0.23887265364E+03  0.00000000000E+00 0. -1.
         21   -1    0    0  502  503 -0.00000000000E+00 -0.00000000000E+00 -0.44401285998E+03  0.44401285998E+03  0.00000000000E+00 0. -1.
         -6    2    1    2    0  503 -0.11670294708E+03 -0.56845989528E+02  0.15524411450E+03  0.25842783002E+03  0.16072698547E+03 0.  0.
        -24    2    3    3    0    0 -0.10008004560E+03 -0.99445739711E+01  0.16092858583E+03  0.20812408414E+03  0.85455921887E+02 0.  0.
          6    2    1    2  501    0  0.11670294708E+03  0.56845989528E+02 -0.36038432085E+03  0.42445768361E+03  0.18285628805E+03 0.  0.
         24    2    5    5    0    0 -0.80731133558E+01  0.17949826250E+02 -0.78020962930E+02  0.11327745822E+03  0.79731677917E+02 0.  0.
          5    1    5    5  501    0  0.12477606043E+03  0.38896163278E+02 -0.28236335792E+03  0.31118022538E+03  0.47000000000E+01 0. -1.
        -11    1    6    6    0    0  0.28552017991E+02  0.25228322908E+02 -0.16963701003E+02  0.41706751969E+02  0.00000000000E+00 0.  1.
         12    1    6    6    0    0 -0.36625131347E+02 -0.72784966579E+01 -0.61057261928E+02  0.71570706255E+02  0.00000000000E+00 0. -1.
         -5    1    3    3    0  503 -0.16622901480E+02 -0.46901415557E+02 -0.56844713267E+01  0.50303745876E+02  0.47000000000E+01 0.  1.
         11    1    4    4    0    0 -0.49364778624E+02 -0.47780799124E+02  0.83562953842E+02  0.10817880286E+03  0.00000000000E+00 0. -1.
        -12    1    4    4    0    0 -0.50715266973E+02  0.37836225153E+02  0.77365631986E+02  0.99945281282E+02  0.00000000000E+00 0.  1.
</event>
<event>
12    1  0.9966151E-001  0.3570157E+03  0.7818608E-02  0.1059811E+00
         21   -1    0    0  503  502  0.00000000000E+00  0.00000000000E+00  0.26752542511E+03  0.26752542511E+03  0.00000000000E+00 0.  1.
         21   -1    0    0  501  503 -0.00000000000E+00 -0.00000000000E+00 -0.47890322461E+03  0.47890322461E+03  0.00000000000E+00 0. -1.
          6    2    1    2  501    0 -0.28938393152E+03  0.12113283215E+03 -0.76140985646E+02  0.36465753633E+03  0.16959199941E+03 0.  0.
         24    2    3    3    0    0 -0.19425855125E+03  0.12808716228E+03 -0.99083054224E+02  0.26644537217E+03  0.83862857350E+02 0.  0.
         -6    2    1    2    0  502  0.28938393152E+03 -0.12113283215E+03 -0.13523681385E+03  0.38177111339E+03  0.17042289856E+03 0.  0.
        -24    2    5    5    0    0  0.11186351527E+03 -0.11300241846E+03 -0.84056174026E+02  0.19678151988E+03  0.79840676041E+02 0.  0.
          5    1    3    3  501    0 -0.95125380268E+02 -0.69543301284E+01  0.22942068579E+02  0.98212164161E+02  0.47000000000E+01 0. -1.
        -13    1    4    4    0    0 -0.19927477262E+03  0.11000579280E+03 -0.84962549436E+02  0.24296161067E+03  0.00000000000E+00 0.  1.
         14    1    4    4    0    0  0.50162213668E+01  0.18081369473E+02 -0.14120504788E+02  0.23483761503E+02  0.00000000000E+00 0. -1.
         -5    1    5    5    0  502  0.17752041625E+03 -0.81304136870E+01 -0.51180639819E+02  0.18498959350E+03  0.47000000000E+01 0.  1.
         11    1    6    6    0    0  0.10943440605E+03 -0.10897141112E+03 -0.49893343545E+02  0.16229603630E+03  0.00000000000E+00 0. -1.
        -12    1    6    6    0    0  0.24291092204E+01 -0.40310073428E+01 -0.34162830481E+02  0.34485483588E+02  0.00000000000E+00 0.  1.
</event>
<event>
12    1  0.9966151E-001  0.2132936E+03  0.7818608E-02  0.1139263E+00
         21   -1    0    0  501  502  0.00000000000E+00  0.00000000000E+00  0.29427343534E+03  0.29427343534E+03  0.00000000000E+00 0.  1.
         21   -1    0    0  502  503 -0.00000000000E+00 -0.00000000000E+00 -0.19020881857E+03  0.19020881857E+03  0.00000000000E+00 0.  1.
         -6    2    1    2    0  503  0.22914616146E+02 -0.12331536691E+03  0.15821873883E+03  0.26442125665E+03  0.17074446492E+03 0.  0.
        -24    2    3    3    0    0  0.36813240782E+01 -0.14886753801E+03  0.15872758025E+03  0.23209198367E+03  0.80604889004E+02 0.  0.
          6    2    1    2  501    0 -0.22914616146E+02  0.12331536691E+03 -0.54154122066E+02  0.22006099726E+03  0.17251786641E+03 0.  0.
         24    2    5    5    0    0 -0.57642346255E+02  0.13365107683E+03 -0.71567550362E+02  0.17958681261E+03  0.77099018009E+02 0.  0.
          5    1    5    5  501    0  0.34727730109E+02 -0.10335709924E+02  0.17413428296E+02  0.40474184651E+02  0.47000000000E+01 0. -1.
        -11    1    6    6    0    0  0.12069116277E+02  0.23848907033E+02  0.70073225054E+01  0.27632164285E+02  0.00000000000E+00 0.  1.
         12    1    6    6    0    0 -0.69711462532E+02  0.10980216980E+03 -0.78574872867E+02  0.15195464832E+03  0.00000000000E+00 0. -1.
         -5    1    3    3    0  503  0.19233292068E+02  0.25552171104E+02 -0.50884141453E+00  0.32329272981E+02  0.47000000000E+01 0.  1.
         13    1    4    4    0    0  0.12733289411E+02 -0.15641305253E+03  0.15223101060E+03  0.21863545058E+03  0.00000000000E+00 0. -1.
        -14    1    4    4    0    0 -0.90519653325E+01  0.75455145148E+01  0.64965696418E+01  0.13456533089E+02  0.00000000000E+00 0.  1.
</event>
<event>
12    1  0.9966151E-001  0.3459082E+03  0.7818608E-02  0.1064988E+00
         21   -1    0    0  501  502  0.00000000000E+00  0.00000000000E+00  0.12913229655E+04  0.12913229655E+04  0.00000000000E+00 0. -1.
         21   -1    0    0  502  503 -0.00000000000E+00 -0.00000000000E+00 -0.18661212049E+03  0.18661212049E+03  0.00000000000E+00 0. -1.
         -6    2    1    2    0  503  0.10352683657E+03  0.27377178326E+03  0.10789319699E+04  0.11310676086E+04  0.17190388139E+03 0.  0.
        -24    2    3    3    0    0  0.46630320116E+02  0.25301516518E+03  0.75419106361E+03  0.80069388542E+03  0.78201516269E+02 0.  0.
          6    2    1    2  501    0 -0.10352683657E+03 -0.27377178326E+03  0.25778875196E+02  0.34686747744E+03  0.18434668779E+03 0.  0.
         24    2    5    5    0    0 -0.13763615987E+03 -0.22885895313E+03 -0.11717775633E+02  0.27898009224E+03  0.79827643508E+02 0.  0.
          5    1    5    5  501    0  0.34109323301E+02 -0.44912830135E+02  0.37496650829E+02  0.67887385206E+02  0.47000000000E+01 0. -1.
        -13    1    6    6    0    0 -0.34557791040E+02 -0.39054697362E+02  0.28274554080E+02  0.59320828687E+02  0.00000000000E+00 0.  1.
         14    1    6    6    0    0 -0.10307836883E+03 -0.18980425577E+03 -0.39992329713E+02  0.21965926355E+03  0.00000000000E+00 0. -1.
         -5    1    3    3    0  503  0.56896516453E+02  0.20756618082E+02  0.32474090624E+03  0.33037372318E+03  0.47000000000E+01 0.  1.
         11    1    4    4    0    0 -0.20672547104E+02  0.84850771773E+02  0.22446648167E+03  0.24085723794E+03  0.00000000000E+00 0. -1.
        -12    1    4    4    0    0  0.67302867220E+02  0.16816439341E+03  0.52972458194E+03  0.55983664747E+03  0.00000000000E+00 0.  1.
</event>
<event>
12    1  0.9966151E-001  0.6221903E+03  0.7818608E-02  0.9860625E-01
         21   -1    0    0  501  502  0.00000000000E+00  0.00000000000E+00  0.10532655496E+04  0.10532655496E+04  0.00000000000E+00 0.  1.
         21   -1    0    0  502  503 -0.00000000000E+00 -0.00000000000E+00 -0.36901693553E+03  0.36901693553E+03  0.00000000000E+00 0.  1.
         -6    2    1    2    0  503 -0.40509359727E+03 -0.43981905028E+03  0.29328590759E+03  0.68745419236E+03  0.17039666507E+03 0.  0.
        -24    2    3    3    0    0 -0.17042700028E+03 -0.17073064083E+03  0.60570116430E+02  0.26124331346E+03  0.79906293112E+02 0.  0.
          6    2    1    2  501    0  0.40509359727E+03  0.43981905028E+03  0.39096270649E+03  0.73482829278E+03  0.17198593683E+03 0.  0.
         24    2    5    5    0    0  0.11255396456E+03  0.12341443544E+03  0.69355950298E+02  0.19710688478E+03  0.78366819327E+02 0.  0.
          5    1    5    5  501    0  0.29253963270E+03  0.31640461484E+03  0.32160675620E+03  0.53772140800E+03  0.47000000000E+01 0. -1.
        -11    1    6    6    0    0  0.59488575679E+02  0.10781117800E+03  0.23719095566E+02  0.12539831033E+03  0.00000000000E+00 0.  1.
         12    1    6    6    0    0  0.53065388885E+02  0.15603257439E+02  0.45636854732E+02  0.71708574453E+02  0.00000000000E+00 0. -1.
         -5    1    3    3    0  503 -0.23466659699E+03 -0.26908840944E+03  0.23271579116E+03  0.42621087890E+03  0.47000000000E+01 0.  1.
         11    1    4    4    0    0 -0.43478102156E+02 -0.91181946888E+02  0.39719374437E+01  0.10109534654E+03  0.00000000000E+00 0. -1.
        -12    1    4    4    0    0 -0.12694889812E+03 -0.79548693945E+02  0.56598178986E+02  0.16014796691E+03  0.00000000000E+00 0.  1.
</event>
<event>
12    1  0.9966151E-001  0.3279959E+03  0.7818608E-02  0.1072032E+00
         21   -1    0    0  501  502  0.00000000000E+00  0.00000000000E+00  0.21072452960E+04  0.21072452960E+04  0.00000000000E+00 0.  1.
         21   -1    0    0  502  503 -0.00000000000E+00 -0.00000000000E+00 -0.68312918548E+02  0.68312918548E+02  0.00000000000E+00 0.  1.
         -6    2    1    2    0  503 -0.14481914265E+03 -0.23814910131E+03  0.47254130277E+03  0.57519503764E+03  0.17281918285E+03 0.  0.
        -24    2    3    3    0    0 -0.62989517305E+02 -0.62529402648E+02  0.13714468255E+03  0.18783041742E+03  0.92703809354E+02 0.  0.
          6    2    1    2  501    0  0.14481914265E+03  0.23814910131E+03  0.15663910747E+04  0.16003631769E+04  0.17289800646E+03 0.  0.
         24    2    5    5    0    0  0.99321267521E+02  0.53194186309E+02  0.64738820886E+03  0.66181816754E+03  0.78723937136E+02 0.  0.
          5    1    5    5  501    0  0.45497875132E+02  0.18495491500E+03  0.91900286580E+03  0.93854500935E+03  0.47000000000E+01 0. -1.
        -11    1    6    6    0    0  0.35175595516E+02  0.56426692439E+02  0.22652335616E+03  0.23608075954E+03  0.00000000000E+00 0.  1.
         12    1    6    6    0    0  0.64145672005E+02 -0.32325061295E+01  0.42086485270E+03  0.42573740800E+03  0.00000000000E+00 0. -1.
         -5    1    3    3    0  503 -0.81829625349E+02 -0.17561969866E+03  0.33539662022E+03  0.38736462022E+03  0.47000000000E+01 0.  1.
         13    1    4    4    0    0 -0.68816041807E+02 -0.72646587731E+02  0.76196047879E+02  0.12577365396E+03  0.00000000000E+00 0. -1.
        -14    1    4    4    0    0  0.58265245020E+01  0.10117185083E+02  0.60948634673E+02  0.62056763453E+02  0.00000000000E+00 0.  1.
</event>
<event>
12    1  0.9966151E-001  0.2109042E+03  0.7818608E-02  0.1141149E+00
         21   -1    0    0  503  502  0.00000000000E+00  0.00000000000E+00  0.57696557705E+03  0.57696557705E+03  0.00000000000E+00 0.  1.
         21   -1    0    0  501  503 -0.00000000000E+00 -0.00000000000E+00 -0.83593197262E+02  0.83593197262E+02  0.00000000000E+00 0.  1.
          6    2    1    2  501    0 -0.10915487270E+03  0.55187478397E+02  0.34338610660E+03  0.40298212740E+03  0.17181423920E+03 0.  0.
         24    2    3    3    0    0 -0.45961794484E+02  0.13793193252E+02  0.62596625914E+02  0.11217003267E+03  0.79756127798E+02 0.  0.
         -6    2    1    2    0  502  0.10915487270E+03 -0.55187478397E+02  0.14998627319E+03  0.25757664692E+03  0.16996882916E+03 0.  0.
        -24    2    5    5    0    0  0.24213143115E+02 -0.82972572752E+02  0.64950737913E+02  0.13412527530E+03  0.79374221202E+02 0.  0.
          5    1    3    3  501    0 -0.63193078213E+02  0.41394285145E+02  0.28078948068E+03  0.29081209473E+03  0.47000000000E+01 0. -1.
        -13    1    4    4    0    0  0.10434865080E+02  0.28793705988E+02  0.66771707306E+01  0.31345630042E+02  0.00000000000E+00 0.  1.
         14    1    4    4    0    0 -0.56396659564E+02 -0.15000512736E+02  0.55919455183E+02  0.80824402629E+02  0.00000000000E+00 0. -1.
         -5    1    5    5    0  502  0.84941729581E+02  0.27785094356E+02  0.85035535281E+02  0.12345137161E+03  0.47000000000E+01 0.  1.
         13    1    6    6    0    0  0.47299122711E+02 -0.69304518406E+02  0.66775302455E+02  0.10723462267E+03  0.00000000000E+00 0. -1.
        -14    1    6    6    0    0 -0.23085979595E+02 -0.13668054347E+02 -0.18245645418E+01  0.26890652637E+02  0.00000000000E+00 0.  1.
</event>
<event>
12    1  0.9966151E-001  0.2036451E+03  0.7818608E-02  0.1147708E+00
         21   -1    0    0  501  502  0.00000000000E+00  0.00000000000E+00  0.84494497177E+02  0.84494497177E+02  0.00000000000E+00 0. -1.
         21   -1    0    0  502  503 -0.00000000000E+00 -0.00000000000E+00 -0.49644208883E+03  0.49644208883E+03  0.00000000000E+00 0. -1.
         -6    2    1    2    0  503 -0.83475967935E+02  0.52493927293E+02 -0.25765612094E+03  0.32544259428E+03  0.17263358852E+03 0.  0.
        -24    2    3    3    0    0 -0.24374908409E+02 -0.37500523793E+02 -0.12067045243E+03  0.15114658215E+03  0.79268567311E+02 0.  0.
          6    2    1    2  501    0  0.83475967935E+02 -0.52493927293E+02 -0.15429147071E+03  0.25549399173E+03  0.17817820363E+03 0.  0.
         24    2    5    5    0    0  0.52207535622E+02  0.34074092120E+02 -0.12155267714E+03  0.15768982286E+03  0.78767736943E+02 0.  0.
          5    1    5    5  501    0  0.31268432313E+02 -0.86568019413E+02 -0.32738793571E+02  0.97804168873E+02  0.47000000000E+01 0. -1.
        -11    1    6    6    0    0 -0.60702828261E+01 -0.10799225161E+02 -0.61501710522E+02  0.62737006581E+02  0.00000000000E+00 0.  1.
         12    1    6    6    0    0  0.58277818448E+02  0.44873317281E+02 -0.60050966620E+02  0.94952816277E+02  0.00000000000E+00 0. -1.
         -5    1    3    3    0  503 -0.59101059526E+02  0.89994451086E+02 -0.13698566852E+03  0.17429601212E+03  0.47000000000E+01 0.  1.
         13    1    4    4    0    0  0.54140592612E+01 -0.35390361677E+01  0.10545980965E+02  0.12371520892E+02  0.00000000000E+00 0. -1.
        -14    1    4    4    0    0 -0.29788967670E+02 -0.33961487626E+02 -0.13121643339E+03  0.13877506126E+03  0.00000000000E+00 0.  1.
</event>
<event>
12    1  0.9966151E-001  0.2055717E+03  0.7818608E-02  0.1145611E+00
         21   -1    0    0  501  502  0.00000000000E+00  0.00000000000E+00  0.34885723096E+02  0.34885723096E+02  0.00000000000E+00 0.  1.
         21   -1    0    0  502  503 -0.00000000000E+00 -0.00000000000E+00 -0.12815398075E+04  0.12815398075E+04  0.00000000000E+00 0.  1.
         -6    2    1    2    0  503 -0.10577111571E+03  0.31209387753E+02 -0.45118642570E+03  0.49482434779E+03  0.17064697369E+03 0.  0.
        -24    2    3    3    0    0 -0.95778949991E+02  0.82834271750E+02 -0.29683623587E+03  0.33169543214E+03  0.76648450306E+02 0.  0.
          6    2    1    2  501    0  0.10577111571E+03 -0.31209387753E+02 -0.79546765866E+03  0.82160118276E+03  0.17348819193E+03 0.  0.
         24    2    5    5    0    0  0.18034455500E+02  0.29957216492E+02 -0.49154667418E+03  0.49937590469E+03  0.80842345866E+02 0.  0.
          5    1    5    5  501    0  0.87736660207E+02 -0.61166604245E+02 -0.30392098449E+03  0.32222527807E+03  0.47000000000E+01 0. -1.
        -13    1    6    6    0    0 -0.21033139166E+02 -0.16553633972E+02 -0.17781904796E+03  0.17982221653E+03  0.00000000000E+00 0.  1.
         14    1    6    6    0    0  0.39067594666E+02  0.46510850465E+02 -0.31372762622E+03  0.31955368816E+03  0.00000000000E+00 0. -1.
         -5    1    3    3    0  503 -0.99921657159E+01 -0.51624883997E+02 -0.15435018982E+03  0.16312891565E+03  0.47000000000E+01 0.  1.
         13    1    4    4    0    0 -0.66799555876E+02  0.86002381315E+01 -0.11714407229E+03  0.13512541742E+03  0.00000000000E+00 0. -1.
        -14    1    4    4    0    0 -0.28979394114E+02  0.74234033618E+02 -0.17969216358E+03  0.19657001471E+03  0.00000000000E+00 0.  1.
</event>
<event>
12    1  0.9966151E-001  0.2108245E+03  0.7818608E-02  0.1142715E+00
         21   -1    0    0  503  502  0.00000000000E+00  0.00000000000E+00  0.46827314519E+03  0.46827314519E+03  0.00000000000E+00 0.  1.
         21   -1    0    0  501  503 -0.00000000000E+00 -0.00000000000E+00 -0.15956169965E+03  0.15956169965E+03  0.00000000000E+00 0.  1.
          6    2    1    2  501    0 -0.10657249879E+03 -0.53324361237E+01  0.36209648799E+03  0.41899981390E+03  0.18182641462E+03 0.  0.
         24    2    3    3    0    0 -0.11041671240E+03 -0.42639479597E+02  0.35162832831E+03  0.37977908165E+03  0.81115312899E+02 0.  0.
         -6    2    1    2    0  502  0.10657249879E+03  0.53324361237E+01 -0.53385042453E+02  0.20883503094E+03  0.17139420941E+03 0.  0.
        -24    2    5    5    0    0  0.22248767480E+02  0.43663304901E+02  0.36527436595E+02  0.79660377656E+02  0.51088455592E+02 0.  0.
          5    1    3    3  501    0  0.38442136131E+01  0.37307043473E+02  0.10468159680E+02  0.39220732249E+02  0.47000000000E+01 0. -1.
        -11    1    4    4    0    0 -0.15158708426E+02  0.27813092478E+01  0.16225787457E+03  0.16298815903E+03  0.00000000000E+00 0.  1.
         12    1    4    4    0    0 -0.95258003975E+02 -0.45420788845E+02  0.18937045374E+03  0.21679092262E+03  0.00000000000E+00 0. -1.
         -5    1    5    5    0  502  0.84323731309E+02 -0.38330868777E+02 -0.89912479048E+02  0.12917465329E+03  0.47000000000E+01 0.  1.
         11    1    6    6    0    0  0.26168099451E+02  0.30009608712E+00  0.71248157021E+01  0.27122361352E+02  0.00000000000E+00 0. -1.
        -12    1    6    6    0    0 -0.39193319713E+01  0.43363208814E+02  0.29402620893E+02  0.52538016304E+02  0.00000000000E+00 0.  1.
</event>
<event>
12    1  0.9966151E-001  0.3446566E+03  0.7818608E-02  0.1064874E+00
         21   -1    0    0  503  502  0.00000000000E+00  0.00000000000E+00  0.19549359417E+04  0.19549359417E+04  0.00000000000E+00 0.  1.
         21   -1    0    0  501  503 -0.00000000000E+00 -0.00000000000E+00 -0.34675327837E+03  0.34675327837E+03  0.00000000000E+00 0.  1.
          6    2    1    2  501    0  0.20235922292E+03 -0.21948445419E+03 -0.24128678565E+03  0.42037972752E+03  0.17139755439E+03 0.  0.
         24    2    3    3    0    0  0.57564554999E+02 -0.11383419467E+03 -0.16214083865E+03  0.22438573751E+03  0.88246279074E+02 0.  0.
         -6    2    1    2    0  502 -0.20235922292E+03  0.21948445419E+03  0.18494694490E+04  0.18813094925E+04  0.17223670719E+03 0.  0.
        -24    2    5    5    0    0 -0.62216891853E+02  0.22713627635E+02  0.47549828152E+03  0.48625483765E+03  0.77190031070E+02 0.  0.
          5    1    3    3  501    0  0.14479466792E+03 -0.10565025952E+03 -0.79145947000E+02  0.19599399002E+03  0.47000000000E+01 0. -1.
        -11    1    4    4    0    0 -0.42154227789E+01 -0.33127703729E+02 -0.99595096987E+02  0.10504474231E+03  0.00000000000E+00 0.  1.
         12    1    4    4    0    0  0.61779977778E+02 -0.80706490938E+02 -0.62545741662E+02  0.11934099519E+03  0.00000000000E+00 0. -1.
         -5    1    5    5    0  502 -0.14014233107E+03  0.19677082655E+03  0.13739711674E+04  0.13950546549E+04  0.47000000000E+01 0.  1.
         11    1    6    6    0    0 -0.64696952282E+02  0.42379314914E+02  0.30689871216E+03  0.31649410973E+03  0.00000000000E+00 0. -1.
        -12    1    6    6    0    0  0.24800604297E+01 -0.19665687279E+02  0.16859956936E+03  0.16976072792E+03  0.00000000000E+00 0.  1.
</event>
<event>
12    1  0.9966151E-001  0.2348948E+03  0.7818608E-02  0.1124356E+00
         21   -1    0    0  501  502  0.00000000000E+00  0.00000000000E+00  0.14342207203E+03  0.14342207203E+03  0.00000000000E+00 0. -1.
         21   -1    0    0  502  503 -0.00000000000E+00 -0.00000000000E+00 -0.37430266602E+03  0.37430266602E+03  0.00000000000E+00 0. -1.
         -6    2    1    2    0  503  0.11281327563E+03  0.10013098795E+03 -0.11175103429E+03  0.25434782409E+03  0.17161431190E+03 0.  0.
        -24    2    3    3    0    0  0.27780394504E+02  0.52605263802E+02 -0.12030458597E+03  0.15644716743E+03  0.80395638521E+02 0.  0.
          6    2    1    2  501    0 -0.11281327563E+03 -0.10013098795E+03 -0.11912955970E+03  0.26337691397E+03  0.18006248058E+03 0.  0.
         24    2    5    5    0    0 -0.52584668395E+01 -0.56050987775E+02 -0.80789821959E+00  0.97445636377E+02  0.79533858483E+02 0.  0.
          5    1    5    5  501    0 -0.10755480879E+03 -0.44080000172E+02 -0.11832166148E+03  0.16593127759E+03  0.47000000000E+01 0. -1.
        -11    1    6    6    0    0 -0.25378634592E+02 -0.44073188696E+02 -0.30752709445E+02  0.59432736718E+02  0.00000000000E+00 0.  1.
         12    1    6    6    0    0  0.20120167752E+02 -0.11977799079E+02  0.29944811225E+02  0.38012899659E+02  0.00000000000E+00 0. -1.
         -5    1    3    3    0  503  0.85032881126E+02  0.47525724144E+02  0.85535516749E+01  0.97900656659E+02  0.47000000000E+01 0.  1.
         11    1    4    4    0    0  0.35957190475E+02  0.54839318534E+01 -0.96290333840E+02  0.10293114906E+03  0.00000000000E+00 0. -1.
        -12    1    4    4    0    0 -0.81767959712E+01  0.47121331949E+02 -0.24014252127E+02  0.53516018370E+02  0.00000000000E+00 0.  1.
</event>
<event>
12    1  0.9966151E-001  0.2953490E+03  0.7818608E-02  0.1087591E+00
         21   -1    0    0  501  502  0.00000000000E+00  0.00000000000E+00  0.89505533155E+02  0.89505533155E+02  0.00000000000E+00 0. -1.
         21   -1    0    0  502  503 -0.00000000000E+00 -0.00000000000E+00 -0.13163651894E+04  0.13163651894E+04  0.00000000000E+00 0. -1.
         -6    2    1    2    0  503  0.94164680943E+02 -0.22039494293E+03 -0.97162391069E+03  0.10155165929E+04  0.17256885188E+03 0.  0.
        -24    2    3    3    0    0  0.61978061420E+02 -0.35557153507E+02 -0.31115172661E+03  0.32889691447E+03  0.79070804422E+02 0.  0.
          6    2    1    2  501    0 -0.94164680943E+02  0.22039494293E+03 -0.25523574557E+03  0.39035412966E+03  0.17259821182E+03 0.  0.
         24    2    5    5    0    0 -0.32154055372E+02  0.17337208528E+03 -0.24394545730E+03  0.31157578597E+03  0.80488017971E+02 0.  0.
          5    1    5    5  501    0 -0.62010625571E+02  0.47022857651E+02 -0.11290288269E+02  0.78778343690E+02  0.47000000000E+01 0. -1.
        -11    1    6    6    0    0 -0.44622005600E+02  0.10625579208E+03 -0.19862340882E+03  0.22963596248E+03  0.00000000000E+00 0.  1.
         12    1    6    6    0    0  0.12467950229E+02  0.67116293195E+02 -0.45322048486E+02  0.81939823493E+02  0.00000000000E+00 0. -1.
         -5    1    3    3    0  503  0.32186619523E+02 -0.18483778942E+03 -0.66047218408E+03  0.68661967843E+03  0.47000000000E+01 0.  1.
         11    1    4    4    0    0 -0.10475586867E+02 -0.29561389647E+02 -0.63954360888E+02  0.71230428573E+02  0.00000000000E+00 0. -1.
        -12    1    4    4    0    0  0.72453648287E+02 -0.59957638605E+01 -0.24719736572E+03  0.25766648590E+03  0.00000000000E+00 0.  1.
</event>
<event>
12    1  0.9966151E-001  0.3322386E+03  0.7818608E-02  0.1070157E+00
         21   -1    0    0  501  502  0.00000000000E+00  0.00000000000E+00  0.21856407549E+04  0.21856407549E+04  0.00000000000E+00 0. -1.
         21   -1    0    0  502  503 -0.00000000000E+00 -0.00000000000E+00 -0.61065659245E+02  0.61065659245E+02  0.00000000000E+00 0.  1.
         -6    2    1    2    0  503 -0.28189127186E+03 -0.37073647707E+02  0.59498509005E+03  0.68146147937E+03  0.17188759692E+03 0.  0.
        -24    2    3    3    0    0 -0.20817297151E+03 -0.76618368724E+02  0.51190174143E+03  0.56346526932E+03  0.79014912260E+02 0.  0.
          6    2    1    2  501    0  0.28189127186E+03  0.37073647707E+02  0.15295900056E+04  0.15652449348E+04  0.17178176882E+03 0.  0.
         24    2    5    5    0    0  0.15160155153E+03 -0.27227262862E+02  0.60276741433E+03  0.62709130982E+03  0.78680371155E+02 0.  0.
          5    1    5    5  501    0  0.13028972033E+03  0.64300910568E+02  0.92682259129E+03  0.93815362498E+03  0.47000000000E+01 0. -1.
        -11    1    6    6    0    0  0.89246288070E+02  0.15554095468E+02  0.41285233496E+03  0.42267467431E+03  0.00000000000E+00 0.  1.
         12    1    6    6    0    0  0.62355263461E+02 -0.42781358330E+02  0.18991507937E+03  0.20441663551E+03  0.00000000000E+00 0. -1.
         -5    1    3    3    0  503 -0.73718300352E+02  0.39544721017E+02  0.83083348618E+02  0.11799621004E+03  0.47000000000E+01 0.  1.
         13    1    4    4    0    0 -0.17365720359E+01  0.41329337575E+01  0.59569500655E+02  0.59737946334E+02  0.00000000000E+00 0. -1.
        -14    1    4    4    0    0 -0.20643639947E+03 -0.80751302482E+02  0.45233224078E+03  0.50372732299E+03  0.00000000000E+00 0.  1.
</event>
