<event>
12    1  0.8747122E-002  0.1746684E+03  0.7818608E-02  0.1173211E+00
         21   -1    0    0  501  502  0.00000000000E+00  0.00000000000E+00  0.16533333030E+04  0.16533333030E+04  0.00000000000E+00 0. -1.
         21   -1    0    0  502  503 -0.00000000000E+00 -0.00000000000E+00 -0.51866421436E+02  0.51866421436E+02  0.00000000000E+00 0. -1.
         -6    2    1    2    0  503 -0.22742335904E+02 -0.22516344019E+02  0.11625521576E+03  0.20981973010E+03  0.17171151493E+03 0.  0.
        -24    2    3    3    0    0 -0.27886218920E+02 -0.71770121591E+02  0.37601848790E+02  0.11675611598E+03  0.79306368145E+02 0.  0.
          6    2    1    2  501    0  0.22742335904E+02  0.22516344019E+02  0.14852116658E+04  0.14953799944E+04  0.17112403576E+03 0.  0.
         24    2    5    5    0    0 -0.25871734368E+01  0.45686679120E+01  0.32066240264E+03  0.33040755712E+03  0.79480885398E+02 0.  0.
          5    1    5    5  501    0  0.25329509341E+02  0.17947676107E+02  0.11645492632E+04  0.11649724372E+04  0.47000000000E+01 0. -1.
        -13    1    6    6    0    0 -0.11773025788E+02  0.15694399423E+02  0.15763714478E+02  0.25167697622E+02  0.00000000000E+00 0.  1.
         14    1    6    6    0    0  0.91858523511E+01 -0.11125731511E+02  0.30489868816E+03  0.30523985950E+03  0.00000000000E+00 0. -1.
         -5    1    3    3    0  503  0.51438830161E+01  0.49253777572E+02  0.78653366970E+02  0.93063614121E+02  0.47000000000E+01 0.  1.
         13    1    4    4    0    0 -0.26550602302E+02 -0.73065235549E+01 -0.16917083936E+02  0.32318841222E+02  0.00000000000E+00 0. -1.
        -14    1    4    4    0    0 -0.13356166184E+01 -0.64463598036E+02  0.54518932726E+02  0.84437274761E+02  0.00000000000E+00 0.  1.
</event>
<event>
12    1  0.8747122E-002  0.1868312E+03  0.7818608E-02  0.1161427E+00
         21   -1    0    0  503  502  0.00000000000E+00  0.00000000000E+00  0.21617210509E+03  0.21617210509E+03  0.00000000000E+00 0. -1.
         21   -1    0    0  501  503 -0.00000000000E+00 -0.00000000000E+00 -0.16946582289E+03  0.16946582289E+03  0.00000000000E+00 0. -1.
          6    2    1    2  501    0  0.64152863289E+02  0.32009281504E+02 -0.19286001251E+02  0.18749437388E+03  0.17216854074E+03 0.  0.
         24    2    3    3    0    0  0.64278485230E+02  0.34083607285E+02  0.47787843349E+02  0.12022395513E+03  0.82925903474E+02 0.  0.
         -6    2    1    2    0  502 -0.64152863289E+02 -0.32009281504E+02  0.65992283443E+02  0.19814355410E+03  0.17252739663E+03 0.  0.
        -24    2    5    5    0    0  0.20182922188E+02 -0.30664221393E+02  0.72306675446E+02  0.11343053595E+03  0.79313216739E+02 0.  0.
          5    1    3    3  501    0 -0.12562194113E+00 -0.20743257810E+01 -0.67073844600E+02  0.67270418742E+02  0.47000000000E+01 0. -1.
        -13    1    4    4    0    0  0.13665169881E+02 -0.22695227300E+02 -0.58766841578E+01  0.27135689171E+02  0.00000000000E+00 0.  1.
         14    1    4    4    0    0  0.50613315349E+02  0.56778834585E+02  0.53664527507E+02  0.93088265963E+02  0.00000000000E+00 0. -1.
         -5    1    5    5    0  502 -0.84335785477E+02 -0.13450601105E+01 -0.63143920037E+01  0.84713018156E+02  0.47000000000E+01 0.  1.
         11    1    6    6    0    0 -0.14587890180E+02 -0.19889941986E+02 -0.74440050306E+01  0.25764889734E+02  0.00000000000E+00 0. -1.
        -12    1    6    6    0    0  0.34770812368E+02 -0.10774279408E+02  0.79750680477E+02  0.87665646214E+02  0.00000000000E+00 0.  1.
</event>
<event>
12    1  0.8747122E-002  0.2190425E+03  0.7818608E-02  0.1134842E+00
         21   -1    0    0  503  502  0.00000000000E+00  0.00000000000E+00  0.58448596318E+03  0.58448596318E+03  0.00000000000E+00 0. -1.
         21   -1    0    0  501  503 -0.00000000000E+00 -0.00000000000E+00 -0.10397398469E+03  0.10397398469E+03  0.00000000000E+00 0.  1.
          6    2    1    2  501    0 -0.15240501287E+01 -0.13296865104E+03  0.39936368152E+03  0.45486910152E+03  0.17242843300E+03 0.  0.
         24    2    3    3    0    0 -0.32581550778E+02 -0.68008646157E+02  0.10823355658E+03  0.15493042406E+03  0.81253923769E+02 0.  0.
         -6    2    1    2    0  502  0.15240501287E+01  0.13296865104E+03  0.81148296967E+02  0.23359084635E+03  0.17405933618E+03 0.  0.
        -24    2    5    5    0    0  0.24793138627E+02  0.15167312050E+02 -0.62923061253E+01  0.84975386132E+02  0.79601985240E+02 0.  0.
          5    1    3    3  501    0  0.31057500649E+02 -0.64960004878E+02  0.29113012495E+03  0.29993867745E+03  0.47000000000E+01 0. -1.
        -13    1    4    4    0    0  0.22786349338E+02 -0.27201785195E+02  0.63924684570E+02  0.73113064026E+02  0.00000000000E+00 0.  1.
         14    1    4    4    0    0 -0.55367900116E+02 -0.40806860963E+02  0.44308872007E+02  0.81817360037E+02  0.00000000000E+00 0. -1.
         -5    1    5    5    0  502 -0.23269088498E+02  0.11780133899E+03  0.87440603092E+02  0.14861546022E+03  0.47000000000E+01 0.  1.
         13    1    6    6    0    0  0.52079238586E+02  0.90510786011E+01  0.81800094110E+01  0.53489079909E+02  0.00000000000E+00 0. -1.
        -14    1    6    6    0    0 -0.27286099959E+02  0.61162334488E+01 -0.14472315536E+02  0.31486306223E+02  0.00000000000E+00 0.  1.
</event>
<event>
12    1  0.8747122E-002  0.2506280E+03  0.7818608E-02  0.1113696E+00
         21   -1    0    0  503  502  0.00000000000E+00  0.00000000000E+00  0.81329561822E+03  0.81329561822E+03  0.00000000000E+00 0.  1.
         21   -1    0    0  501  503 -0.00000000000E+00 -0.00000000000E+00 -0.45078494430E+03  0.45078494430E+03  0.00000000000E+00 0. -1.
          6    2    1    2  501    0  0.16241219847E+03  0.68168350515E+02 -0.39556327279E+03  0.46565054109E+03  0.17127602697E+03 0.  0.
         24    2    3    3    0    0  0.15182586097E+02  0.79736027408E+01 -0.10725907668E+03  0.13634617441E+03  0.82411652605E+02 0.  0.
         -6    2    1    2    0  502 -0.16241219847E+03 -0.68168350515E+02  0.75807394671E+03  0.79843002143E+03  0.17829678691E+03 0.  0.
        -24    2    5    5    0    0 -0.71599511586E+02 -0.27503938213E+02  0.60996194303E+03  0.61993690067E+03  0.79907647852E+02 0.  0.
          5    1    3    3  501    0  0.14722961237E+03  0.60194747774E+02 -0.28830419611E+03  0.32930436668E+03  0.47000000000E+01 0. -1.
        -11    1    4    4    0    0  0.43238071478E+02  0.35445533118E+01 -0.26734204221E+02  0.50958928155E+02  0.00000000000E+00 0.  1.
         12    1    4    4    0    0 -0.28055485381E+02  0.44290494290E+01 -0.80524872458E+02  0.85387246256E+02  0.00000000000E+00 0. -1.
         -5    1    5    5    0  502 -0.90812686887E+02 -0.40664412303E+02  0.14811200367E+03  0.17849312076E+03  0.47000000000E+01 0.  1.
         13    1    6    6    0    0 -0.21927363050E+02  0.28462895297E+02  0.19631449941E+03  0.19957537007E+03  0.00000000000E+00 0. -1.
        -14    1    6    6    0    0 -0.49672148536E+02 -0.55966833510E+02  0.41364744363E+03  0.42036153060E+03  0.00000000000E+00 0.  1.
</event>
<event>
12    1  0.8747122E-002  0.2047930E+03  0.7818608E-02  0.1146638E+00
         21   -1    0    0  503  502  0.00000000000E+00  0.00000000000E+00  0.13586073311E+03  0.13586073311E+03  0.00000000000E+00 0.  1.
         21   -1    0    0  501  503 -0.00000000000E+00 -0.00000000000E+00 -0.48665725129E+03  0.48665725129E+03  0.00000000000E+00 0.  1.
          6    2    1    2  501    0 -0.43327850139E+02 -0.97042599162E+02 -0.36810673625E+03  0.42123953395E+03  0.17505886735E+03 0.  0.
         24    2    3    3    0    0 -0.84816506668E+02 -0.11154175003E+03 -0.28003218907E+03  0.32269639691E+03  0.77971378464E+02 0.  0.
         -6    2    1    2    0  502  0.43327850139E+02  0.97042599162E+02  0.17310218075E+02  0.20127845044E+03  0.17005529193E+03 0.  0.
        -24    2    5    5    0    0  0.36746746104E+02  0.30068127549E+02 -0.52043400283E+02  0.10452667962E+03  0.77219787593E+02 0.  0.
          5    1    3    3  501    0  0.41488656529E+02  0.14499150871E+02 -0.88074547181E+02  0.98543137040E+02  0.47000000000E+01 0. -1.
        -13    1    4    4    0    0 -0.56757420755E+02 -0.11849009630E+03 -0.22578967595E+03  0.26123224437E+03  0.00000000000E+00 0.  1.
         14    1    4    4    0    0 -0.28059085913E+02  0.69483462672E+01 -0.54242513119E+02  0.61464152541E+02  0.00000000000E+00 0. -1.
         -5    1    5    5    0  502  0.65811040355E+01  0.66974471613E+02  0.69353618358E+02  0.96751770824E+02  0.47000000000E+01 0.  1.
         13    1    6    6    0    0  0.46768723373E+02  0.11834032017E+01 -0.31866961523E+01  0.46892099137E+02  0.00000000000E+00 0. -1.
        -14    1    6    6    0    0 -0.10021977269E+02  0.28884724347E+02 -0.48856704130E+02  0.57634580483E+02  0.00000000000E+00 0.  1.
</event>
<event>
12    1  0.8747122E-002  0.1914178E+03  0.7818608E-02  0.1157393E+00
         21   -1    0    0  503  502  0.00000000000E+00  0.00000000000E+00  0.13615641164E+03  0.13615641164E+03  0.00000000000E+00 0. -1.
         21   -1    0    0  501  503 -0.00000000000E+00 -0.00000000000E+00 -0.33512287572E+03  0.33512287572E+03  0.00000000000E+00 0. -1.
          6    2    1    2  501    0 -0.21628729126E+02  0.81236876553E+02 -0.20526550760E+03  0.28066829248E+03  0.17196956055E+03 0.  0.
         24    2    3    3    0    0 -0.46909520268E+01  0.30831181723E+02 -0.22223734003E+02  0.90001034550E+02  0.81447683022E+02 0.  0.
         -6    2    1    2    0  502  0.21628729126E+02 -0.81236876553E+02  0.62990435150E+01  0.19061099489E+03  0.17095508588E+03 0.  0.
        -24    2    5    5    0    0  0.27206291960E+02  0.22990069914E+02  0.58140820581E+01  0.86128026112E+02  0.78201711586E+02 0.  0.
          5    1    3    3  501    0 -0.16937777100E+02  0.50405694829E+02 -0.18304177359E+03  0.19066725793E+03  0.47000000000E+01 0. -1.
        -11    1    4    4    0    0 -0.48415933508E+01 -0.21936700056E+00 -0.48854523095E+02  0.49094333430E+02  0.00000000000E+00 0.  1.
         12    1    4    4    0    0  0.15064132393E+00  0.31050548724E+02  0.26630789092E+02  0.40906701120E+02  0.00000000000E+00 0. -1.
         -5    1    5    5    0  502 -0.55775628333E+01 -0.10422694647E+03  0.48496145692E+00  0.10448296878E+03  0.47000000000E+01 0.  1.
         13    1    6    6    0    0  0.72544452167E+01 -0.16785713336E+02  0.30259963956E+02  0.35356082450E+02  0.00000000000E+00 0. -1.
        -14    1    6    6    0    0  0.19951846743E+02  0.39775783249E+02 -0.24445881898E+02  0.50771943663E+02  0.00000000000E+00 0.  1.
</event>
<event>
12    1  0.8747122E-002  0.1904999E+03  0.7818608E-02  0.1158317E+00
         21   -1    0    0  503  502  0.00000000000E+00  0.00000000000E+00  0.13240253739E+03  0.13240253739E+03  0.00000000000E+00 0.  1.
         21   -1    0    0  501  503 -0.00000000000E+00 -0.00000000000E+00 -0.50854798936E+03  0.50854798936E+03  0.00000000000E+00 0.  1.
          6    2    1    2  501    0 -0.80694867736E+02 -0.87493353218E+01 -0.40693507593E+03  0.44931765864E+03  0.17234265227E+03 0.  0.
         24    2    3    3    0    0 -0.10019289407E+03 -0.16205897000E+02 -0.21322732562E+03  0.25443165126E+03  0.94701244181E+02 0.  0.
         -6    2    1    2    0  502  0.80694867736E+02  0.87493353218E+01  0.30789623970E+02  0.19163286811E+03  0.17084186445E+03 0.  0.
        -24    2    5    5    0    0 -0.11756911863E+02  0.38454372876E+02 -0.10503825343E+02  0.86006357404E+02  0.75298070342E+02 0.  0.
          5    1    3    3  501    0  0.19498026333E+02  0.74565616786E+01 -0.19370775031E+03  0.19488600738E+03  0.47000000000E+01 0. -1.
        -13    1    4    4    0    0 -0.38005017159E+02 -0.52895936103E+02 -0.11972486065E+03  0.13629528107E+03  0.00000000000E+00 0.  1.
         14    1    4    4    0    0 -0.62187876910E+02  0.36690039103E+02 -0.93502464975E+02  0.11813637018E+03  0.00000000000E+00 0. -1.
         -5    1    5    5    0  502  0.92451779599E+02 -0.29705037554E+02  0.41293449313E+02  0.10562651070E+03  0.47000000000E+01 0.  1.
         11    1    6    6    0    0 -0.26534228565E+02 -0.14352475759E+02  0.35570291219E-01  0.30167202575E+02  0.00000000000E+00 0. -1.
        -12    1    6    6    0    0  0.14777316702E+02  0.52806848635E+02 -0.10539395634E+02  0.55839154829E+02  0.00000000000E+00 0.  1.
</event>
<event>
12    1  0.8747122E-002  0.1774837E+03  0.7818608E-02  0.1171085E+00
         21   -1    0    0  503  502  0.00000000000E+00  0.00000000000E+00  0.16375314600E+02  0.16375314600E+02  0.00000000000E+00 0. -1.
         21   -1    0    0  501  503 -0.00000000000E+00 -0.00000000000E+00 -0.21344465924E+04  0.21344465924E+04  0.00000000000E+00 0. -1.
          6    2    1    2  501    0 -0.33026846458E+02 -0.18824582990E+02 -0.14333240248E+04  0.14442708245E+04  0.17336469380E+03 0.  0.
         24    2    3    3    0    0  0.21851765656E+02  0.34221602705E+02 -0.51022853452E+03  0.51801333656E+03  0.79724786972E+02 0.  0.
         -6    2    1    2    0  502  0.33026846458E+02  0.18824582990E+02 -0.68474725305E+03  0.70655108251E+03  0.16997203921E+03 0.  0.
        -24    2    5    5    0    0 -0.24445233181E+01 -0.42993688999E+02 -0.31049938436E+03  0.32554809820E+03  0.87847957109E+02 0.  0.
          5    1    3    3  501    0 -0.54878612114E+02 -0.53046185695E+02 -0.92309549025E+03  0.92625748796E+03  0.47000000000E+01 0. -1.
        -13    1    4    4    0    0  0.86446979017E+01 -0.17630697377E+02 -0.31420818680E+03  0.31482115073E+03  0.00000000000E+00 0.  1.
         14    1    4    4    0    0  0.13207067754E+02  0.51852300082E+02 -0.19602034772E+03  0.20319218583E+03  0.00000000000E+00 0. -1.
         -5    1    5    5    0  502  0.35471369776E+02  0.61818271989E+02 -0.37424786870E+03  0.38100298430E+03  0.47000000000E+01 0.  1.
         11    1    6    6    0    0 -0.96973208125E+01 -0.51400879391E+02 -0.31005454787E+03  0.31443586165E+03  0.00000000000E+00 0. -1.
        -12    1    6    6    0    0  0.72527974944E+01  0.84071903919E+01 -0.44483648636E+00  0.11112236556E+02  0.00000000000E+00 0.  1.
</event>
<event>
12    1  0.8747122E-002  0.2534266E+03  0.7818608E-02  0.1111244E+00
         21   -1    0    0  501  502  0.00000000000E+00  0.00000000000E+00  0.10787074904E+04  0.10787074904E+04  0.00000000000E+00 0.  1.
         21   -1    0    0  502  503 -0.00000000000E+00 -0.00000000000E+00 -0.72009537227E+02  0.72009537227E+02  0.00000000000E+00 0.  1.
         -6    2    1    2    0  503  0.71628132371E+02 -0.17128770229E+03  0.26312160575E+03  0.36531903700E+03  0.17249624076E+03 0.  0.
        -24    2    3    3    0    0  0.11520266278E+03 -0.13221035108E+03  0.18304934479E+03  0.26602434402E+03  0.80688651852E+02 0.  0.
          6    2    1    2  501    0 -0.71628132371E+02  0.17128770229E+03  0.74357634743E+03  0.78539799064E+03  0.17168038017E+03 0.  0.
         24    2    5    5    0    0 -0.63754388153E+02  0.11441527371E+03  0.68951319055E+03  0.70639556085E+03  0.80067294034E+02 0.  0.
          5    1    5    5  501    0 -0.78737442180E+01  0.56872428585E+02  0.54063156881E+02  0.79002429792E+02  0.47000000000E+01 0. -1.
        -11    1    6    6    0    0 -0.19027516459E+02  0.76893772093E+01  0.28270658189E+03  0.28345049717E+03  0.00000000000E+00 0.  1.
         12    1    6    6    0    0 -0.44726871694E+02  0.10672589650E+03  0.40680660867E+03  0.42294506368E+03  0.00000000000E+00 0. -1.
         -5    1    3    3    0  503 -0.43574530413E+02 -0.39077351211E+02  0.80072260962E+02  0.99294692980E+02  0.47000000000E+01 0.  1.
         11    1    4    4    0    0 -0.11513291565E+02 -0.21992846925E+02  0.19073804322E+02  0.31305769593E+02  0.00000000000E+00 0. -1.
        -12    1    4    4    0    0  0.12671595435E+03 -0.11021750416E+03  0.16397554047E+03  0.23471857443E+03  0.00000000000E+00 0.  1.
</event>
<event>
12    1  0.8747122E-002  0.2100005E+03  0.7818608E-02  0.1142640E+00
         21   -1    0    0  501  502  0.00000000000E+00  0.00000000000E+00  0.15988974987E+03  0.15988974987E+03  0.00000000000E+00 0. -1.
         21   -1    0    0  502  503 -0.00000000000E+00 -0.00000000000E+00 -0.11429412183E+04  0.11429412183E+04  0.00000000000E+00 0.  1.
         -6    2    1    2    0  503  0.98278739547E+02 -0.47095033254E+02 -0.10597000543E+04  0.10792796185E+04  0.17321557962E+03 0.  0.
        -24    2    3    3    0    0  0.12496508123E+03 -0.17979842989E+02 -0.96675249550E+03  0.97817969850E+03  0.79281704881E+02 0.  0.
          6    2    1    2  501    0 -0.98278739547E+02  0.47095033254E+02  0.76648585806E+02  0.22355134973E+03  0.17950918487E+03 0.  0.
         24    2    5    5    0    0 -0.47762432864E+02 -0.38868613905E+02  0.54103349054E+01  0.10091928106E+03  0.79770987370E+02 0.  0.
          5    1    5    5  501    0 -0.50516306684E+02  0.85963647158E+02  0.71238250900E+02  0.12263206866E+03  0.47000000000E+01 0. -1.
        -13    1    6    6    0    0 -0.30085135353E+02 -0.29690919872E+02  0.41792777545E+02  0.59441587688E+02  0.00000000000E+00 0.  1.
         14    1    6    6    0    0 -0.17677297511E+02 -0.91776940326E+01 -0.36382442639E+02  0.41477693372E+02  0.00000000000E+00 0. -1.
         -5    1    3    3    0  503 -0.26686341678E+02 -0.29115190265E+02 -0.92947558773E+02  0.10109991997E+03  0.47000000000E+01 0.  1.
         13    1    4    4    0    0 -0.34086416187E+01 -0.10792246494E+02 -0.22220850198E+02  0.24937072915E+02  0.00000000000E+00 0. -1.
        -14    1    4    4    0    0  0.12837372284E+03 -0.71875964947E+01 -0.94453164530E+03  0.95324262559E+03  0.00000000000E+00 0.  1.
</event>
<event>
12    1  0.8747122E-002  0.1902834E+03  0.7818608E-02  0.1158454E+00
         21   -1    0    0  503  502  0.00000000000E+00  0.00000000000E+00  0.55772307685E+03  0.55772307685E+03  0.00000000000E+00 0.  1.
         21   -1    0    0  501  503 -0.00000000000E+00 -0.00000000000E+00 -0.64593285477E+02  0.64593285477E+02  0.00000000000E+00 0.  1.
          6    2    1    2  501    0  0.50603122248E+02  0.60311761824E+02  0.23742651825E+03  0.30358147955E+03  0.17202377325E+03 0.  0.
         24    2    3    3    0    0  0.85369895647E+02  0.68242731213E+00  0.12690686542E+03  0.17319332928E+03  0.81253258577E+02 0.  0.
         -6    2    1    2    0  502 -0.50603122248E+02 -0.60311761824E+02  0.25570327312E+03  0.31873488278E+03  0.17323272502E+03 0.  0.
        -24    2    5    5    0    0 -0.67785144469E+02 -0.59049574792E+02  0.86195622020E+02  0.14828914717E+03  0.80487935863E+02 0.  0.
          5    1    3    3  501    0 -0.34766773399E+02  0.59629334512E+02  0.11051965283E+03  0.13038815026E+03  0.47000000000E+01 0. -1.
        -11    1    4    4    0    0  0.63564085125E+02 -0.27579921628E+02  0.41844602418E+02  0.80944522645E+02  0.00000000000E+00 0.  1.
         12    1    4    4    0    0  0.21805810522E+02  0.28262348940E+02  0.85062262997E+02  0.92248806639E+02  0.00000000000E+00 0. -1.
         -5    1    5    5    0  502  0.17182022221E+02 -0.12621870316E+01  0.16950765110E+03  0.17044573561E+03  0.47000000000E+01 0.  1.
         13    1    6    6    0    0  0.16679825485E+02 -0.78322570980E+01  0.28366359600E+02  0.33826190835E+02  0.00000000000E+00 0. -1.
        -14    1    6    6    0    0 -0.84464969954E+02 -0.51217317694E+02  0.57829262420E+02  0.11446295634E+03  0.00000000000E+00 0.  1.
</event>
<event>
12    1  0.8747122E-002  0.1986431E+03  0.7818608E-02  0.1151142E+00
         21   -1    0    0  503  502  0.00000000000E+00  0.00000000000E+00  0.14914427330E+03  0.14914427330E+03  0.00000000000E+00 0. -1.
         21   -1    0    0  501  503 -0.00000000000E+00 -0.00000000000E+00 -0.36827584000E+03  0.36827584000E+03  0.00000000000E+00 0.  1.
          6    2    1    2  501    0  0.17232519901E+02  0.97146333084E+02 -0.24765787361E+03  0.31673924113E+03  0.17104079845E+03 0.  0.
         24    2    3    3    0    0  0.39822779856E+02  0.10407840914E+03 -0.25657419572E+03  0.29104947034E+03  0.80382256932E+02 0.  0.
         -6    2    1    2    0  502 -0.17232519901E+02 -0.97146333084E+02  0.28526306911E+02  0.20068087218E+03  0.17240850472E+03 0.  0.
        -24    2    5    5    0    0  0.18320937562E+01  0.13466766322E+02  0.32946978780E+02  0.88251562859E+02  0.80734903070E+02 0.  0.
          5    1    3    3  501    0 -0.22590259955E+02 -0.69320760585E+01  0.89163221092E+01  0.25689770790E+02  0.47000000000E+01 0. -1.
        -11    1    4    4    0    0  0.22806393402E+02  0.95890928083E+02 -0.13035073752E+03  0.16342128515E+03  0.00000000000E+00 0.  1.
         12    1    4    4    0    0  0.17016386454E+02  0.81874810602E+01 -0.12622345820E+03  0.12762818519E+03  0.00000000000E+00 0. -1.
         -5    1    5    5    0  502 -0.19064613657E+02 -0.11061309941E+03 -0.44206718684E+01  0.11242930932E+03  0.47000000000E+01 0.  1.
         11    1    6    6    0    0 -0.28214754366E+02 -0.39196527987E-01  0.45049769263E+02  0.53155955555E+02  0.00000000000E+00 0. -1.
        -12    1    6    6    0    0  0.30046848122E+02  0.13505962850E+02 -0.12102790484E+02  0.35095607304E+02  0.00000000000E+00 0.  1.
</event>
<event>
12    1  0.8747122E-002  0.1944272E+03  0.7818608E-02  0.1154623E+00
         21   -1    0    0  503  502  0.00000000000E+00  0.00000000000E+00  0.76679223076E+02  0.76679223076E+02  0.00000000000E+00 0. -1.
         21   -1    0    0  501  503 -0.00000000000E+00 -0.00000000000E+00 -0.49191080468E+03  0.49191080468E+03  0.00000000000E+00 0. -1.
          6    2    1    2  501    0  0.49195251441E+02  0.76177027015E+02 -0.20542458523E+03  0.28254650523E+03  0.17149389258E+03 0.  0.
         24    2    3    3    0    0 -0.59876234116E+01 -0.24881809620E+02 -0.84314644701E+02  0.11537071203E+03  0.74474732616E+02 0.  0.
         -6    2    1    2    0  502 -0.49195251441E+02 -0.76177027015E+02 -0.20980699638E+03  0.28604352253E+03  0.17198490876E+03 0.  0.
        -24    2    5    5    0    0 -0.88647157294E+02 -0.82296340686E+02 -0.19474991851E+03  0.24311678879E+03  0.80914992723E+02 0.  0.
          5    1    3    3  501    0  0.55182874853E+02  0.10105883664E+03 -0.12110994053E+03  0.16717579321E+03  0.47000000000E+01 0. -1.
        -11    1    4    4    0    0 -0.11006471036E+02 -0.20702184942E+02  0.64928934756E+01  0.24328594939E+02  0.00000000000E+00 0.  1.
         12    1    4    4    0    0  0.50188476244E+01 -0.41796246784E+01 -0.90807538176E+02  0.91042117086E+02  0.00000000000E+00 0. -1.
         -5    1    5    5    0  502  0.39451905853E+02  0.61193136711E+01 -0.15057077871E+02  0.42926733736E+02  0.47000000000E+01 0.  1.
         13    1    6    6    0    0 -0.70914169383E+02 -0.47208143498E+02 -0.63911532191E+02  0.10649935295E+03  0.00000000000E+00 0. -1.
        -14    1    6    6    0    0 -0.17732987911E+02 -0.35088197188E+02 -0.13083838632E+03  0.13661743584E+03  0.00000000000E+00 0.  1.
</event>
<event>
12    1  0.8747122E-002  0.1756510E+03  0.7818608E-02  0.1172691E+00
         21   -1    0    0  501  502  0.00000000000E+00  0.00000000000E+00  0.22943074919E+03  0.22943074919E+03  0.00000000000E+00 0.  1.
         21   -1    0    0  502  503 -0.00000000000E+00 -0.00000000000E+00 -0.14483938414E+03  0.14483938414E+03  0.00000000000E+00 0.  1.
         -6    2    1    2    0  503 -0.28479044671E+02  0.23338408658E+02 -0.11778148900E+02  0.17604543835E+03  0.17174846220E+03 0.  0.
        -24    2    3    3    0    0 -0.64208690520E+02  0.37562810508E+02 -0.52766843798E+02  0.11964415902E+03  0.77438132158E+02 0.  0.
          6    2    1    2  501    0  0.28479044671E+02 -0.23338408658E+02  0.96369513952E+02  0.19822469498E+03  0.16926372670E+03 0.  0.
         24    2    5    5    0    0  0.61710247416E+02 -0.44105688948E+02  0.20197217229E+02  0.11243482638E+03  0.80499665623E+02 0.  0.
          5    1    5    5  501    0 -0.33231202745E+02  0.20767280289E+02  0.76172296723E+02  0.85789868601E+02  0.47000000000E+01 0. -1.
        -13    1    6    6    0    0  0.70468797952E+02 -0.10281627772E+02  0.28192094885E+02  0.76592150828E+02  0.00000000000E+00 0.  1.
         14    1    6    6    0    0 -0.87585505367E+01 -0.33824061176E+02 -0.79948776558E+01  0.35842675551E+02  0.00000000000E+00 0. -1.
         -5    1    3    3    0  503  0.35729645849E+02 -0.14224401850E+02  0.40988694897E+02  0.56401279328E+02  0.47000000000E+01 0.  1.
         13    1    4    4    0    0 -0.17111958317E-01  0.13726342091E+02 -0.49197903868E+02  0.51076868591E+02  0.00000000000E+00 0. -1.
        -14    1    4    4    0    0 -0.64191578562E+02  0.23836468417E+02 -0.35689399293E+01  0.68567290431E+02  0.00000000000E+00 0.  1.
</event>
<event>
12    1  0.8747122E-002  0.1778619E+03  0.7818608E-02  0.1170813E+00
         21   -1    0    0  503  502  0.00000000000E+00  0.00000000000E+00  0.65016398618E+03  0.65016398618E+03  0.00000000000E+00 0. -1.
         21   -1    0    0  501  503 -0.00000000000E+00 -0.00000000000E+00 -0.51625145040E+02  0.51625145040E+02  0.00000000000E+00 0. -1.
          6    2    1    2  501    0 -0.35436905801E+02  0.13580229943E+02  0.39378137550E+03  0.43056881730E+03  0.16995745880E+03 0.  0.
         24    2    3    3    0    0 -0.46759151098E+02  0.37759624112E+02  0.39055130668E+03  0.40326754104E+03  0.80511980986E+02 0.  0.
         -6    2    1    2    0  502  0.35436905801E+02 -0.13580229943E+02  0.20475746564E+03  0.27122031392E+03  0.17376605540E+03 0.  0.
        -24    2    5    5    0    0  0.71579714975E+02  0.44905658006E+02  0.15295964388E+03  0.18501123039E+03  0.60764537336E+02 0.  0.
          5    1    3    3  501    0  0.11322245297E+02 -0.24179394169E+02  0.32300688245E+01  0.27301276262E+02  0.47000000000E+01 0. -1.
        -11    1    4    4    0    0  0.13006078162E+02  0.27624893083E+02  0.22314110519E+03  0.22522043782E+03  0.00000000000E+00 0.  1.
         12    1    4    4    0    0 -0.59765229260E+02  0.10134731028E+02  0.16741020149E+03  0.17804710322E+03  0.00000000000E+00 0. -1.
         -5    1    5    5    0  502 -0.36142809174E+02 -0.58485887949E+02  0.51797821754E+02  0.86209083528E+02  0.47000000000E+01 0.  1.
         13    1    6    6    0    0  0.41486573229E+02 -0.36291300759E+01  0.94591231345E+02  0.10335282962E+03  0.00000000000E+00 0. -1.
        -14    1    6    6    0    0  0.30093141746E+02  0.48534788082E+02  0.58368412540E+02  0.81658400773E+02  0.00000000000E+00 0.  1.
</event>
<event>
12    1  0.8747122E-002  0.2043472E+03  0.7818608E-02  0.1146766E+00
         21   -1    0    0  503  502  0.00000000000E+00  0.00000000000E+00  0.11001446453E+03  0.11001446453E+03  0.00000000000E+00 0. -1.
         21   -1    0    0  501  503 -0.00000000000E+00 -0.00000000000E+00 -0.70018227327E+03  0.70018227327E+03  0.00000000000E+00 0. -1.
          6    2    1    2  501    0 -0.75178121002E+02  0.74072701760E+02 -0.17304331349E+02  0.20197774625E+03  0.17133900628E+03 0.  0.
         24    2    3    3    0    0 -0.41827647803E+02  0.55800011538E+01  0.47357557140E+02  0.10194398234E+03  0.79806946957E+02 0.  0.
         -6    2    1    2    0  502  0.75178121002E+02 -0.74072701760E+02 -0.57286347740E+03  0.60821899156E+03  0.17498360762E+03 0.  0.
        -24    2    5    5    0    0  0.11675533879E+03 -0.51960455856E+02 -0.36471386736E+03  0.39475712935E+03  0.80531285996E+02 0.  0.
          5    1    3    3  501    0 -0.33350473199E+02  0.68492700606E+02 -0.64661888489E+02  0.10003376391E+03  0.47000000000E+01 0. -1.
        -11    1    4    4    0    0 -0.31501204211E+02  0.27731325088E+02  0.60932226095E+02  0.73987082892E+02  0.00000000000E+00 0.  1.
         12    1    4    4    0    0 -0.10326443592E+02 -0.22151323934E+02 -0.13574668955E+02  0.27956899444E+02  0.00000000000E+00 0. -1.
         -5    1    5    5    0  502 -0.41577217783E+02 -0.22112245904E+02 -0.20814961004E+03  0.21346186221E+03  0.47000000000E+01 0.  1.
         11    1    6    6    0    0  0.40760371156E+02 -0.59719514262E+02 -0.21223588372E+03  0.22421395714E+03  0.00000000000E+00 0. -1.
        -12    1    6    6    0    0  0.75994967629E+02  0.77590584061E+01 -0.15247798364E+03  0.17054317221E+03  0.00000000000E+00 0.  1.
</event>
<event>
12    1  0.8747122E-002  0.2134513E+03  0.7818608E-02  0.1138867E+00
         21   -1    0    0  501  502  0.00000000000E+00  0.00000000000E+00  0.18009624163E+03  0.18009624163E+03  0.00000000000E+00 0.  1.
         21   -1    0    0  502  503 -0.00000000000E+00 -0.00000000000E+00 -0.14371935016E+04  0.14371935016E+04  0.00000000000E+00 0. -1.
         -6    2    1    2    0  503 -0.85829287330E+02  0.94092680286E+02 -0.13625826592E+04  0.13791959656E+04  0.17125977171E+03 0.  0.
        -24    2    3    3    0    0 -0.16659068580E+02  0.98331267915E+02 -0.56509907811E+03  0.57869322554E+03  0.74848636490E+02 0.  0.
          6    2    1    2  501    0  0.85829287330E+02 -0.94092680286E+02  0.10548539923E+03  0.23809377759E+03  0.17129325273E+03 0.  0.
         24    2    5    5    0    0  0.70576729483E+02 -0.12870337238E+03  0.57013775142E+02  0.17643237257E+03  0.79574988079E+02 0.  0.
          5    1    5    5  501    0  0.15252557847E+02  0.34610692092E+02  0.48471624090E+02  0.61661405026E+02  0.47000000000E+01 0. -1.
        -11    1    6    6    0    0  0.51210083829E+02 -0.13474538570E+03  0.59594320930E+02  0.15598164873E+03  0.00000000000E+00 0.  1.
         12    1    6    6    0    0  0.19366645654E+02  0.60420133233E+01 -0.25805457879E+01  0.20450723837E+02  0.00000000000E+00 0. -1.
         -5    1    3    3    0  503 -0.69170218750E+02 -0.42385876288E+01 -0.79748358110E+03  0.80050274010E+03  0.47000000000E+01 0.  1.
         13    1    4    4    0    0  0.12954808281E+02  0.99761180922E+01 -0.20712272002E+02  0.26388410359E+02  0.00000000000E+00 0. -1.
        -14    1    4    4    0    0 -0.29613876861E+02  0.88355149822E+02 -0.54438680611E+03  0.55230481518E+03  0.00000000000E+00 0.  1.
</event>
<event>
12    1  0.8747122E-002  0.2347147E+03  0.7818608E-02  0.1123411E+00
         21   -1    0    0  503  502  0.00000000000E+00  0.00000000000E+00  0.83413647349E+03  0.83413647349E+03  0.00000000000E+00 0.  1.
         21   -1    0    0  501  503 -0.00000000000E+00 -0.00000000000E+00 -0.10869061921E+03  0.10869061921E+03  0.00000000000E+00 0. -1.
          6    2    1    2  501    0  0.15128834790E+03 -0.49669522746E+02  0.67303035563E+02  0.24417350231E+03  0.17244064177E+03 0.  0.
         24    2    3    3    0    0  0.11126154688E+03  0.32729499636E+02  0.55172148635E+02  0.15164787285E+03  0.80639688709E+02 0.  0.
         -6    2    1    2    0  502 -0.15128834790E+03  0.49669522746E+02  0.65814281872E+03  0.69865359038E+03  0.17207452985E+03 0.  0.
        -24    2    5    5    0    0 -0.13518230600E+03  0.96953162685E+02  0.52266309230E+03  0.55418216254E+03  0.79164320357E+02 0.  0.
          5    1    3    3  501    0  0.40026801021E+02 -0.82399022382E+02  0.12130886928E+02  0.92525629461E+02  0.47000000000E+01 0. -1.
        -11    1    4    4    0    0 -0.34999856865E+01  0.22995230109E+02  0.21445551335E+02  0.31637670262E+02  0.00000000000E+00 0.  1.
         12    1    4    4    0    0  0.11476153257E+03  0.97342695270E+01  0.33726597300E+02  0.12001020259E+03  0.00000000000E+00 0. -1.
         -5    1    5    5    0  502 -0.16106041897E+02 -0.47283639938E+02  0.13547972642E+03  0.14447142784E+03  0.47000000000E+01 0.  1.
         11    1    6    6    0    0 -0.11764809551E+02  0.49472381442E+02  0.11895169274E+03  0.12936549955E+03  0.00000000000E+00 0. -1.
        -12    1    6    6    0    0 -0.12341749645E+03  0.47480781242E+02  0.40371139956E+03  0.42481666299E+03  0.00000000000E+00 0.  1.
</event>
<event>
12    1  0.8747122E-002  0.1786529E+03  0.7818608E-02  0.1169291E+00
         21   -1    0    0  503  502  0.00000000000E+00  0.00000000000E+00  0.43473160708E+02  0.43473160708E+02  0.00000000000E+00 0.  1.
         21   -1    0    0  501  503 -0.00000000000E+00 -0.00000000000E+00 -0.73809834966E+03  0.73809834966E+03  0.00000000000E+00 0.  1.
          6    2    1    2  501    0  0.12834901202E+02 -0.45908165192E+02 -0.30879607571E+03  0.35638804380E+03  0.17142090616E+03 0.  0.
         24    2    3    3    0    0 -0.44451308001E+02 -0.34154146328E+02 -0.10086331960E+03  0.14033715214E+03  0.79866654710E+02 0.  0.
         -6    2    1    2    0  502 -0.12834901202E+02  0.45908165192E+02 -0.38582911324E+03  0.42518346657E+03  0.17217601836E+03 0.  0.
        -24    2    5    5    0    0  0.44794754545E+01  0.38948614403E+02 -0.81502732413E+02  0.12024927850E+03  0.79247292222E+02 0.  0.
          5    1    3    3  501    0  0.57286209204E+02 -0.11754018864E+02 -0.20793275611E+03  0.21605089166E+03  0.47000000000E+01 0. -1.
        -13    1    4    4    0    0  0.13825915530E+01 -0.49288487244E+02 -0.51154104837E+02  0.71049341840E+02  0.00000000000E+00 0.  1.
         14    1    4    4    0    0 -0.45833899554E+02  0.15134340916E+02 -0.49709214765E+02  0.69287810298E+02  0.00000000000E+00 0. -1.
         -5    1    5    5    0  502 -0.17314376657E+02  0.69595507892E+01 -0.30432638083E+03  0.30493418807E+03  0.47000000000E+01 0.  1.
         11    1    6    6    0    0  0.34068482059E+02  0.12125056008E+02 -0.69834902766E+02  0.78642177597E+02  0.00000000000E+00 0. -1.
        -12    1    6    6    0    0 -0.29589006604E+02  0.26823558394E+02 -0.11667829648E+02  0.41607100902E+02  0.00000000000E+00 0.  1.
</event>
<event>
12    1  0.8747122E-002  0.2052388E+03  0.7818608E-02  0.1145560E+00
         21   -1    0    0  501  502  0.00000000000E+00  0.00000000000E+00  0.14533436497E+03  0.14533436497E+03  0.00000000000E+00 0.  1.
         21   -1    0    0  502  503 -0.00000000000E+00 -0.00000000000E+00 -0.31012590287E+03  0.31012590287E+03  0.00000000000E+00 0. -1.
         -6    2    1    2    0  503 -0.76412903776E+02  0.81112995110E+02 -0.14243851497E+03  0.24982334525E+03  0.17235058296E+03 0.  0.
        -24    2    3    3    0    0 -0.84478740009E+02  0.10469665991E+00 -0.49362353938E+02  0.12607899635E+03  0.79514796480E+02 0.  0.
          6    2    1    2  501    0  0.76412903776E+02 -0.81112995110E+02 -0.22353022925E+02  0.20563692258E+03  0.17137279964E+03 0.  0.
         24    2    5    5    0    0  0.78072691499E+02  0.34165927964E+01  0.16263512836E+02  0.11257063996E+03  0.79376500723E+02 0.  0.
          5    1    5    5  501    0 -0.16597877230E+01 -0.84529587906E+02 -0.38616535761E+02  0.93066282622E+02  0.47000000000E+01 0. -1.
        -13    1    6    6    0    0  0.20529887374E+02  0.24093168807E+02 -0.23683647663E+02  0.39533178791E+02  0.00000000000E+00 0.  1.
         14    1    6    6    0    0  0.57542804125E+02 -0.20676576010E+02  0.39947160499E+02  0.73037461169E+02  0.00000000000E+00 0. -1.
         -5    1    3    3    0  503  0.80658362331E+01  0.81008298450E+02 -0.93076161037E+02  0.12374434890E+03  0.47000000000E+01 0.  1.
         11    1    4    4    0    0  0.36685819023E+01  0.23563282670E+02 -0.17026202438E+02  0.29301507688E+02  0.00000000000E+00 0. -1.
        -12    1    4    4    0    0 -0.88147321912E+02 -0.23458586010E+02 -0.32336151500E+02  0.96777488661E+02  0.00000000000E+00 0.  1.
</event>
<event>
12    1  0.8747122E-002  0.2518105E+03  0.7818608E-02  0.1112287E+00
         21   -1    0    0  503  502  0.00000000000E+00  0.00000000000E+00  0.32139572572E+03  0.32139572572E+03  0.00000000000E+00 0. -1.
         21   -1    0    0  501  503 -0.00000000000E+00 -0.00000000000E+00 -0.19669845346E+03  0.19669845346E+03  0.00000000000E+00 0. -1.
          6    2    1    2  501    0  0.63853692668E+02 -0.17267791617E+03  0.64420771129E+02  0.25992034331E+03  0.17179520458E+03 0.  0.
         24    2    3    3    0    0  0.37760488334E+01 -0.66045798498E+02 -0.27457579658E+02  0.10680779272E+03  0.79231810910E+02 0.  0.
         -6    2    1    2    0  502 -0.63853692668E+02  0.17267791617E+03  0.60276501128E+02  0.25817383586E+03  0.17066199383E+03 0.  0.
        -24    2    5    5    0    0 -0.77844647797E+02  0.11589456844E+03  0.97800659762E+02  0.18853011478E+03  0.80543745545E+02 0.  0.
          5    1    3    3  501    0  0.60077643835E+02 -0.10663211767E+03  0.91878350787E+02  0.15311255060E+03  0.47000000000E+01 0. -1.
        -11    1    4    4    0    0  0.37785340954E+02 -0.17042992479E+02 -0.76164712963E+00  0.41458119711E+02  0.00000000000E+00 0.  1.
         12    1    4    4    0    0 -0.34009292120E+02 -0.49002806019E+02 -0.26695932528E+02  0.65349673004E+02  0.00000000000E+00 0. -1.
         -5    1    5    5    0  502  0.13990955129E+02  0.56783347728E+02 -0.37524158634E+02  0.69643721080E+02  0.47000000000E+01 0.  1.
         11    1    6    6    0    0 -0.21962260888E+02  0.93214567894E+02  0.36362589116E+02  0.10243795419E+03  0.00000000000E+00 0. -1.
        -12    1    6    6    0    0 -0.55882386909E+02  0.22680000544E+02  0.61438070646E+02  0.86092160596E+02  0.00000000000E+00 0.  1.
</event>
<event>
12    1  0.8747122E-002  0.3877966E+03  0.7818608E-02  0.1048119E+00
         21   -1    0    0  501  502  0.00000000000E+00  0.00000000000E+00  0.62325382240E+03  0.62325382240E+03  0.00000000000E+00 0. -1.
         21   -1    0    0  502  503 -0.00000000000E+00 -0.00000000000E+00 -0.24732059133E+03  0.24732059133E+03  0.00000000000E+00 0.  1.
         -6    2    1    2    0  503  0.26174622751E+03  0.22845845671E+03  0.11892017344E+03  0.40562079685E+03  0.17228426837E+03 0.  0.
        -24    2    3    3    0    0  0.73059225846E+02  0.29101842300E+02  0.50890133094E+02  0.12278511895E+03  0.79383953551E+02 0.  0.
          6    2    1    2  501    0 -0.26174622751E+03 -0.22845845671E+03  0.25701305763E+03  0.46495361687E+03  0.17152784028E+03 0.  0.
         24    2    5    5    0    0 -0.84836314075E+02 -0.13110947157E+03  0.17346161224E+03  0.24637439461E+03  0.78895612517E+02 0.  0.
          5    1    5    5  501    0 -0.17690991344E+03 -0.97348985136E+02  0.83551445383E+02  0.21857922226E+03  0.47000000000E+01 0. -1.
        -11    1    6    6    0    0 -0.25350730701E+02 -0.22012519662E+01  0.58149842786E+02  0.63473689615E+02  0.00000000000E+00 0.  1.
         12    1    6    6    0    0 -0.59485583374E+02 -0.12890821961E+03  0.11531176946E+03  0.18290070500E+03  0.00000000000E+00 0. -1.
         -5    1    3    3    0  503  0.18868700167E+03  0.19935661441E+03  0.68030040349E+02  0.28283567791E+03  0.47000000000E+01 0.  1.
         11    1    4    4    0    0  0.38705359826E+02 -0.18471464436E+02 -0.31625955328E+01  0.43003510185E+02  0.00000000000E+00 0. -1.
        -12    1    4    4    0    0  0.34353866020E+02  0.47573306736E+02  0.54052728627E+02  0.79781608760E+02  0.00000000000E+00 0.  1.
</event>
<event>
12    1  0.8747122E-002  0.1852542E+03  0.7818608E-02  0.1162846E+00
         21   -1    0    0  501  502  0.00000000000E+00  0.00000000000E+00  0.58498545471E+02  0.58498545471E+02  0.00000000000E+00 0. -1.
         21   -1    0    0  502  503 -0.00000000000E+00 -0.00000000000E+00 -0.14459489599E+04  0.14459489599E+04  0.00000000000E+00 0.  1.
         -6    2    1    2    0  503  0.56479427273E+02  0.39850520000E+02 -0.12738659694E+04  0.12872659568E+04  0.17187537895E+03 0.  0.
        -24    2    3    3    0    0 -0.32552071976E+02  0.39480101653E+02 -0.72593106684E+03  0.73212499045E+03  0.80079785409E+02 0.  0.
          6    2    1    2  501    0 -0.56479427273E+02 -0.39850520000E+02 -0.11358444499E+03  0.21718154854E+03  0.17172189503E+03 0.  0.
         24    2    5    5    0    0 -0.10341762118E+01 -0.72955929626E+02 -0.10781401829E+03  0.15217745762E+03  0.78806591603E+02 0.  0.
          5    1    5    5  501    0 -0.55445251061E+02  0.33105409626E+02 -0.57704267045E+01  0.65004090918E+02  0.47000000000E+01 0. -1.
        -13    1    6    6    0    0 -0.24240087516E+02 -0.35742346061E+02 -0.98204191859E+02  0.10728075523E+03  0.00000000000E+00 0.  1.
         14    1    6    6    0    0  0.23205911305E+02 -0.37213583565E+02 -0.96098264300E+01  0.44896702387E+02  0.00000000000E+00 0. -1.
         -5    1    3    3    0  503  0.89031499249E+02  0.37041834703E+00 -0.54793490260E+03  0.55514096638E+03  0.47000000000E+01 0.  1.
         11    1    4    4    0    0 -0.37230944369E+02  0.49007266073E+02 -0.30956931277E+03  0.31562796891E+03  0.00000000000E+00 0. -1.
        -12    1    4    4    0    0  0.46788723927E+01 -0.95271644206E+01 -0.41636175406E+03  0.41649702154E+03  0.00000000000E+00 0.  1.
</event>
<event>
12    1  0.8747122E-002  0.1727445E+03  0.7818608E-02  0.1176261E+00
         21   -1    0    0  503  502  0.00000000000E+00  0.00000000000E+00  0.28358663046E+03  0.28358663046E+03  0.00000000000E+00 0. -1.
         21   -1    0    0  501  503 -0.00000000000E+00 -0.00000000000E+00 -0.16980626608E+03  0.16980626608E+03  0.00000000000E+00 0. -1.
          6    2    1    2  501    0  0.10860926891E+02 -0.99507102601E+01 -0.85532484413E+02  0.19276011202E+03  0.17211530591E+03 0.  0.
         24    2    3    3    0    0  0.24696803044E+02 -0.61538504372E+02 -0.91608025560E+02  0.13879962490E+03  0.80475995948E+02 0.  0.
         -6    2    1    2    0  502 -0.10860926891E+02  0.99507102601E+01  0.19931284880E+03  0.26063278452E+03  0.16729273834E+03 0.  0.
        -24    2    5    5    0    0 -0.33574943356E+02  0.21834573082E+02  0.38839562374E+02  0.98056899482E+02  0.80638815267E+02 0.  0.
          5    1    3    3  501    0 -0.13835876152E+02  0.51587794112E+02  0.60755411467E+01  0.53960487122E+02  0.47000000000E+01 0. -1.
        -11    1    4    4    0    0  0.36129250411E+02 -0.45446738052E+02 -0.15384640645E+02  0.60061767395E+02  0.00000000000E+00 0.  1.
         12    1    4    4    0    0 -0.11432447368E+02 -0.16091766319E+02 -0.76223384915E+02  0.78737857502E+02  0.00000000000E+00 0. -1.
         -5    1    5    5    0  502  0.22714016465E+02 -0.11883862822E+02  0.16047328643E+03  0.16257588504E+03  0.47000000000E+01 0.  1.
         13    1    6    6    0    0  0.11511761945E+02  0.41844987431E+01  0.47339210768E+02  0.48898175517E+02  0.00000000000E+00 0. -1.
        -14    1    6    6    0    0 -0.45086705301E+02  0.17650074339E+02 -0.84996483941E+01  0.49158723965E+02  0.00000000000E+00 0.  1.
</event>
<event>
12    1  0.8747122E-002  0.3372338E+03  0.7818608E-02  0.1068403E+00
         21   -1    0    0  501  502  0.00000000000E+00  0.00000000000E+00  0.11593166034E+03  0.11593166034E+03  0.00000000000E+00 0.  1.
         21   -1    0    0  502  503 -0.00000000000E+00 -0.00000000000E+00 -0.11357527753E+04  0.11357527753E+04  0.00000000000E+00 0.  1.
         -6    2    1    2    0  503  0.28331472242E+03  0.33616253932E+02 -0.75177515268E+03  0.82394934961E+03  0.17980368759E+03 0.  0.
        -24    2    3    3    0    0  0.11499031684E+03 -0.39775904573E+02 -0.24480653803E+03  0.28472881895E+03  0.79594998143E+02 0.  0.
          6    2    1    2  501    0 -0.28331472242E+03 -0.33616253932E+02 -0.26804596227E+03  0.42773508603E+03  0.17236989721E+03 0.  0.
         24    2    5    5    0    0 -0.27597848013E+03  0.11259079182E+02 -0.22496427252E+03  0.36491997666E+03  0.79162978061E+02 0.  0.
          5    1    5    5  501    0 -0.73362422836E+01 -0.44875333114E+02 -0.43081689749E+02  0.62815109365E+02  0.47000000000E+01 0. -1.
        -11    1    6    6    0    0 -0.15408106575E+03  0.13972865156E+02 -0.17381853586E+03  0.23269959001E+03  0.00000000000E+00 0.  1.
         12    1    6    6    0    0 -0.12189741438E+03 -0.27137859739E+01 -0.51145736664E+02  0.13222038665E+03  0.00000000000E+00 0. -1.
         -5    1    3    3    0  503  0.16832440558E+03  0.73392158505E+02 -0.50696861465E+03  0.53922053065E+03  0.47000000000E+01 0.  1.
         13    1    4    4    0    0  0.12174805117E+03 -0.21611861615E+02 -0.19093359499E+03  0.22747592888E+03  0.00000000000E+00 0. -1.
        -14    1    4    4    0    0 -0.67577343259E+01 -0.18164042958E+02 -0.53872943041E+02  0.57252890072E+02  0.00000000000E+00 0.  1.
</event>
<event>
12    1  0.8747122E-002  0.1981509E+03  0.7818608E-02  0.1151432E+00
         21   -1    0    0  501  502  0.00000000000E+00  0.00000000000E+00  0.74597162350E+02  0.74597162350E+02  0.00000000000E+00 0. -1.
         21   -1    0    0  502  503 -0.00000000000E+00 -0.00000000000E+00 -0.52490465857E+03  0.52490465857E+03  0.00000000000E+00 0.  1.
         -6    2    1    2    0  503  0.14423283920E+02 -0.96128732317E+02 -0.22887182694E+03  0.30235283184E+03  0.17200627157E+03 0.  0.
        -24    2    3    3    0    0 -0.27547974889E+02 -0.10827102584E+03 -0.11332680276E+03  0.17873339780E+03  0.81370494096E+02 0.  0.
          6    2    1    2  501    0 -0.14423283920E+02  0.96128732317E+02 -0.22143566928E+03  0.29714898909E+03  0.17267021106E+03 0.  0.
         24    2    5    5    0    0  0.14366824953E+02  0.10021044729E+03 -0.23261824921E+03  0.26564230948E+03  0.78778469862E+02 0.  0.
          5    1    5    5  501    0 -0.28790108874E+02 -0.40817149724E+01  0.11182579926E+02  0.31506679607E+02  0.47000000000E+01 0. -1.
        -11    1    6    6    0    0 -0.16692744845E+02  0.91411190768E+02 -0.19543266716E+03  0.21639912413E+03  0.00000000000E+00 0.  1.
         12    1    6    6    0    0  0.31059569798E+02  0.87992565219E+01 -0.37185582047E+02  0.49243185351E+02  0.00000000000E+00 0. -1.
         -5    1    3    3    0  503  0.41971258809E+02  0.12142293527E+02 -0.11554502418E+03  0.12361943404E+03  0.47000000000E+01 0.  1.
         13    1    4    4    0    0 -0.15775562272E+02 -0.10759370626E+02  0.96110431700E+01  0.21377665263E+02  0.00000000000E+00 0. -1.
        -14    1    4    4    0    0 -0.11772412617E+02 -0.97511655218E+02 -0.12293784593E+03  0.15735573254E+03  0.00000000000E+00 0.  1.
</event>
<event>
12    1  0.8747122E-002  0.1778257E+03  0.7818608E-02  0.1173906E+00
         21   -1    0    0  503  502  0.00000000000E+00  0.00000000000E+00  0.73749380466E+03  0.73749380466E+03  0.00000000000E+00 0.  1.
         21   -1    0    0  501  503 -0.00000000000E+00 -0.00000000000E+00 -0.16125719440E+03  0.16125719440E+03  0.00000000000E+00 0.  1.
          6    2    1    2  501    0  0.43113905405E+02 -0.68358599816E+00 -0.10586335902E+03  0.19385216739E+03  0.15656415902E+03 0.  0.
         24    2    3    3    0    0  0.15367611389E+02  0.45148251436E+02 -0.48227941754E+02  0.11502104741E+03  0.92894450289E+02 0.  0.
         -6    2    1    2    0  502 -0.43113905405E+02  0.68358599816E+00  0.68209996928E+03  0.70489883167E+03  0.17251874875E+03 0.  0.
        -24    2    5    5    0    0  0.33581631133E+02 -0.24369542475E+02  0.25436022491E+03  0.26959061501E+03  0.79109892804E+02 0.  0.
          5    1    3    3  501    0  0.27746294016E+02 -0.45831837434E+02 -0.57635417264E+02  0.78831119980E+02  0.47000000000E+01 0. -1.
        -13    1    4    4    0    0 -0.36650182569E+02  0.39743067615E+01 -0.25780285447E+02  0.44985043229E+02  0.00000000000E+00 0.  1.
         14    1    4    4    0    0  0.52017793958E+02  0.41173944674E+02 -0.22447656306E+02  0.70036004183E+02  0.00000000000E+00 0. -1.
         -5    1    5    5    0  502 -0.76695536538E+02  0.25053128473E+02  0.42773974437E+03  0.43530821665E+03  0.47000000000E+01 0.  1.
         11    1    6    6    0    0  0.41957177611E+02 -0.41032453022E+02  0.11621392603E+03  0.13019118079E+03  0.00000000000E+00 0. -1.
        -12    1    6    6    0    0 -0.83755464776E+01  0.16662910548E+02  0.13814629888E+03  0.13939943422E+03  0.00000000000E+00 0.  1.
</event>
<event>
12    1  0.8747122E-002  0.1799416E+03  0.7818608E-02  0.1169523E+00
         21   -1    0    0  503  502  0.00000000000E+00  0.00000000000E+00  0.19538570656E+03  0.19538570656E+03  0.00000000000E+00 0. -1.
         21   -1    0    0  501  503 -0.00000000000E+00 -0.00000000000E+00 -0.16301128370E+03  0.16301128370E+03  0.00000000000E+00 0. -1.
          6    2    1    2  501    0 -0.14294143882E+01 -0.38030243501E+02 -0.95219437840E+01  0.18019337676E+03  0.17587109759E+03 0.  0.
         24    2    3    3    0    0  0.31209826443E+02  0.32880820957E+02  0.25680036496E+02  0.94432263659E+02  0.78757770994E+02 0.  0.
         -6    2    1    2    0  502  0.14294143882E+01  0.38030243501E+02  0.41896366644E+02  0.17820361350E+03  0.16897597368E+03 0.  0.
        -24    2    5    5    0    0 -0.46972255752E+02  0.19344187046E+02  0.71279374761E+02  0.11839273202E+03  0.79721385746E+02 0.  0.
          5    1    3    3  501    0 -0.32639240831E+02 -0.70911064458E+02 -0.35201980280E+02  0.85761113100E+02  0.47000000000E+01 0. -1.
        -13    1    4    4    0    0 -0.16892883389E+02  0.22469122918E+02  0.34425317987E+02  0.44444724235E+02  0.00000000000E+00 0.  1.
         14    1    4    4    0    0  0.48102709832E+02  0.10411698039E+02 -0.87452814908E+01  0.49987539423E+02  0.00000000000E+00 0. -1.
         -5    1    5    5    0  502  0.48401670140E+02  0.18686056455E+02 -0.29383008117E+02  0.59810881486E+02  0.47000000000E+01 0.  1.
         11    1    6    6    0    0  0.19999044178E+02  0.77495231145E+01  0.35772123182E+02  0.41709251654E+02  0.00000000000E+00 0. -1.
        -12    1    6    6    0    0 -0.66971299930E+02  0.11594663932E+02  0.35507251579E+02  0.76683480363E+02  0.00000000000E+00 0.  1.
</event>
<event>
12    1  0.8747122E-002  0.2036861E+03  0.7818608E-02  0.1146733E+00
         21   -1    0    0  503  502  0.00000000000E+00  0.00000000000E+00  0.31652275399E+03  0.31652275399E+03  0.00000000000E+00 0. -1.
         21   -1    0    0  501  503 -0.00000000000E+00 -0.00000000000E+00 -0.13251320642E+03  0.13251320642E+03  0.00000000000E+00 0. -1.
          6    2    1    2  501    0  0.90968376680E+02  0.60546902877E+02  0.67037553631E+02  0.21443425052E+03  0.17189194628E+03 0.  0.
         24    2    3    3    0    0  0.10871866896E+03 -0.24828293240E+01  0.12370980802E+02  0.12900390344E+03  0.68286547095E+02 0.  0.
         -6    2    1    2    0  502 -0.90968376680E+02 -0.60546902877E+02  0.11697199394E+03  0.23460170989E+03  0.17150609876E+03 0.  0.
        -24    2    5    5    0    0 -0.10166846332E+03 -0.99713022689E+02  0.10216781723E+03  0.19113067996E+03  0.76246381012E+02 0.  0.
          5    1    3    3  501    0 -0.17750292285E+02  0.63029732201E+02  0.54666572829E+02  0.85430347081E+02  0.47000000000E+01 0. -1.
        -13    1    4    4    0    0  0.32193781158E+02  0.61700591287E+01 -0.27039725060E+02  0.42493010087E+02  0.00000000000E+00 0.  1.
         14    1    4    4    0    0  0.76524887807E+02 -0.86528884527E+01  0.39410705862E+02  0.86510893354E+02  0.00000000000E+00 0. -1.
         -5    1    5    5    0  502  0.10700086636E+02  0.39166119812E+02  0.14804176708E+02  0.43471029929E+02  0.47000000000E+01 0.  1.
         13    1    6    6    0    0 -0.88469540404E+02 -0.72590727204E+02  0.11127790299E+03  0.15962156793E+03  0.00000000000E+00 0. -1.
        -14    1    6    6    0    0 -0.13198922911E+02 -0.27122295484E+02 -0.91100857567E+01  0.31509112029E+02  0.00000000000E+00 0.  1.
</event>
<event>
12    1  0.8747122E-002  0.1750359E+03  0.7818608E-02  0.1173162E+00
         21   -1    0    0  501  502  0.00000000000E+00  0.00000000000E+00  0.30020888128E+03  0.30020888128E+03  0.00000000000E+00 0.  1.
         21   -1    0    0  502  503 -0.00000000000E+00 -0.00000000000E+00 -0.30401038246E+03  0.30401038246E+03  0.00000000000E+00 0.  1.
         -6    2    1    2    0  503  0.16458322910E+02 -0.40178001325E+01  0.24498333066E+03  0.30108867426E+03  0.17421405900E+03 0.  0.
        -24    2    3    3    0    0  0.55673181427E+02 -0.48140724772E+02  0.92980098707E+02  0.13795771419E+03  0.70498224359E+02 0.  0.
          6    2    1    2  501    0 -0.16458322910E+02  0.40178001325E+01 -0.24878483185E+03  0.30313058949E+03  0.17235789107E+03 0.  0.
         24    2    5    5    0    0  0.22423725888E+02  0.21192956020E+02 -0.24567076651E+03  0.26025184065E+03  0.80155662186E+02 0.  0.
          5    1    5    5  501    0 -0.38882048798E+02 -0.17175155887E+02 -0.31140653404E+01  0.42878748832E+02  0.47000000000E+01 0. -1.
        -11    1    6    6    0    0  0.41826202990E+02 -0.14673438765E+02 -0.14540399904E+03  0.15201007861E+03  0.00000000000E+00 0.  1.
         12    1    6    6    0    0 -0.19402477102E+02  0.35866394785E+02 -0.10026676746E+03  0.10824176204E+03  0.00000000000E+00 0. -1.
         -5    1    3    3    0  503 -0.39214858517E+02  0.44122924639E+02  0.15200323195E+03  0.16313096006E+03  0.47000000000E+01 0.  1.
         11    1    4    4    0    0  0.40480050444E+02 -0.66462665531E+02  0.66610480634E+02  0.10243474276E+03  0.00000000000E+00 0. -1.
        -12    1    4    4    0    0  0.15193130983E+02  0.18321940759E+02  0.26369618073E+02  0.35522971435E+02  0.00000000000E+00 0.  1.
</event>
<event>
12    1  0.8747122E-002  0.2076044E+03  0.7818608E-02  0.1144803E+00
         21   -1    0    0  503  502  0.00000000000E+00  0.00000000000E+00  0.19808096949E+03  0.19808096949E+03  0.00000000000E+00 0.  1.
         21   -1    0    0  501  503 -0.00000000000E+00 -0.00000000000E+00 -0.22517099540E+03  0.22517099540E+03  0.00000000000E+00 0.  1.
          6    2    1    2  501    0 -0.19152778508E+02  0.10223581285E+03 -0.66726835184E+02  0.21189765366E+03  0.17213121373E+03 0.  0.
         24    2    3    3    0    0 -0.10335665803E+02  0.11467567587E+03 -0.10209263726E+03  0.17309917915E+03  0.79265898184E+02 0.  0.
         -6    2    1    2    0  502  0.19152778508E+02 -0.10223581285E+03  0.39636809275E+02  0.21135431122E+03  0.17966796561E+03 0.  0.
        -24    2    5    5    0    0  0.47652084450E+02 -0.55707334358E+02 -0.38951695314E+02  0.11556624931E+03  0.80400840536E+02 0.  0.
          5    1    3    3  501    0 -0.88171127048E+01 -0.12439863013E+02  0.35365802078E+02  0.38798474517E+02  0.47000000000E+01 0. -1.
        -13    1    4    4    0    0 -0.33531321961E+02  0.98562980284E+02 -0.53888114697E+02  0.11723028423E+03  0.00000000000E+00 0.  1.
         14    1    4    4    0    0  0.23195656157E+02  0.16112695581E+02 -0.48204522565E+02  0.55868894916E+02  0.00000000000E+00 0. -1.
         -5    1    5    5    0  502 -0.28499305942E+02 -0.46528478494E+02  0.78588504589E+02  0.95788061906E+02  0.47000000000E+01 0.  1.
         11    1    6    6    0    0  0.80347775138E+01  0.10637653479E+02 -0.35830115524E+02  0.38229759347E+02  0.00000000000E+00 0. -1.
        -12    1    6    6    0    0  0.39617306937E+02 -0.66344987837E+02 -0.31215797901E+01  0.77336489967E+02  0.00000000000E+00 0.  1.
</event>
<event>
12    1  0.8747122E-002  0.2291790E+03  0.7818608E-02  0.1127247E+00
         21   -1    0    0  501  502  0.00000000000E+00  0.00000000000E+00  0.84564264231E+03  0.84564264231E+03  0.00000000000E+00 0.  1.
         21   -1    0    0  502  503 -0.00000000000E+00 -0.00000000000E+00 -0.95894074399E+02  0.95894074399E+02  0.00000000000E+00 0.  1.
         -6    2    1    2    0  503 -0.10586698275E+03 -0.10616003149E+03  0.65456295241E+03  0.69352410644E+03  0.17333567786E+03 0.  0.
        -24    2    3    3    0    0  0.10243421762E+01 -0.85041208434E+02  0.27920142033E+03  0.30264032601E+03  0.80029228456E+02 0.  0.
          6    2    1    2  501    0  0.10586698275E+03  0.10616003149E+03  0.95185615500E+02  0.24801261027E+03  0.17312476175E+03 0.  0.
         24    2    5    5    0    0  0.12988906983E+03  0.54855100868E+02  0.10177474732E+03  0.19078706325E+03  0.78494278511E+02 0.  0.
          5    1    5    5  501    0 -0.24022087073E+02  0.51304930621E+02 -0.65891318238E+01  0.57225547018E+02  0.47000000000E+01 0. -1.
        -13    1    6    6    0    0  0.77458290259E+02  0.71711770216E+02  0.58049989155E+02  0.12046645159E+03  0.00000000000E+00 0.  1.
         14    1    6    6    0    0  0.52430779568E+02 -0.16856669347E+02  0.43724758169E+02  0.70320611662E+02  0.00000000000E+00 0. -1.
         -5    1    3    3    0  503 -0.10689132493E+03 -0.21118823055E+02  0.37536153208E+03  0.39088378042E+03  0.47000000000E+01 0.  1.
         13    1    4    4    0    0 -0.34928474548E+02 -0.26930891125E+02  0.71724537127E+02  0.84200240244E+02  0.00000000000E+00 0. -1.
        -14    1    4    4    0    0  0.35952816724E+02 -0.58110317309E+02  0.20747688320E+03  0.21844008577E+03  0.00000000000E+00 0.  1.
</event>
<event>
12    1  0.8747122E-002  0.1844329E+03  0.7818608E-02  0.1164202E+00
         21   -1    0    0  503  502  0.00000000000E+00  0.00000000000E+00  0.89077937189E+03  0.89077937189E+03  0.00000000000E+00 0. -1.
         21   -1    0    0  501  503 -0.00000000000E+00 -0.00000000000E+00 -0.40872242043E+02  0.40872242043E+02  0.00000000000E+00 0. -1.
          6    2    1    2  501    0  0.65238857035E+02  0.13621703428E+02  0.55869468128E+03  0.58834959891E+03  0.17197047530E+03 0.  0.
         24    2    3    3    0    0  0.77514990794E+02  0.45627701788E+02  0.52951573160E+03  0.54308826336E+03  0.80420711394E+02 0.  0.
         -6    2    1    2    0  502 -0.65238857035E+02 -0.13621703428E+02  0.29121244857E+03  0.34330201503E+03  0.16914468377E+03 0.  0.
        -24    2    5    5    0    0 -0.17535328008E+02 -0.63047329542E+02  0.11794677187E+03  0.15685737466E+03  0.80064608286E+02 0.  0.
          5    1    3    3  501    0 -0.12276133760E+02 -0.32005998360E+02  0.29178949676E+02  0.45261335545E+02  0.47000000000E+01 0. -1.
        -11    1    4    4    0    0  0.32780795042E+02  0.36307010474E+02  0.43875764826E+03  0.44147599418E+03  0.00000000000E+00 0.  1.
         12    1    4    4    0    0  0.44734195752E+02  0.93206913134E+01  0.90758083343E+02  0.10161226918E+03  0.00000000000E+00 0. -1.
         -5    1    5    5    0  502 -0.47703529026E+02  0.49425626114E+02  0.17326567671E+03  0.18644464037E+03  0.47000000000E+01 0.  1.
         13    1    6    6    0    0 -0.79739865216E+01  0.19045095687E+02  0.20737103331E+02  0.29263075459E+02  0.00000000000E+00 0. -1.
        -14    1    6    6    0    0 -0.95613414866E+01 -0.82092425229E+02  0.97209668535E+02  0.12759429920E+03  0.00000000000E+00 0.  1.
</event>
<event>
12    1  0.8747122E-002  0.2295318E+03  0.7818608E-02  0.1127468E+00
         21   -1    0    0  503  502  0.00000000000E+00  0.00000000000E+00  0.96283524099E+02  0.96283524099E+02  0.00000000000E+00 0. -1.
         21   -1    0    0  501  503 -0.00000000000E+00 -0.00000000000E+00 -0.11427374622E+04  0.11427374622E+04  0.00000000000E+00 0.  1.
          6    2    1    2  501    0  0.29947850342E+02 -0.14883499793E+03 -0.97447717655E+03  0.10011446487E+04  0.17215141492E+03 0.  0.
         24    2    3    3    0    0 -0.45634833027E+02 -0.58984402655E+02 -0.39854699394E+03  0.41334915983E+03  0.80350008168E+02 0.  0.
         -6    2    1    2    0  502 -0.29947850342E+02  0.14883499793E+03 -0.71976761593E+02  0.23787633764E+03  0.16839170838E+03 0.  0.
        -24    2    5    5    0    0  0.15046634781E+02  0.14821660359E+03 -0.86949971933E+02  0.19021951094E+03  0.80178562758E+02 0.  0.
          5    1    3    3  501    0  0.75582683369E+02 -0.89850595275E+02 -0.57593018261E+03  0.58779548887E+03  0.47000000000E+01 0. -1.
        -13    1    4    4    0    0 -0.25082519728E+02 -0.16930246844E+02 -0.32342593774E+03  0.32483858031E+03  0.00000000000E+00 0.  1.
         14    1    4    4    0    0 -0.20552313299E+02 -0.42054155811E+02 -0.75121056206E+02  0.88510579528E+02  0.00000000000E+00 0. -1.
         -5    1    5    5    0  502 -0.44994485123E+02  0.61839434405E+00  0.14973210341E+02  0.47656826699E+02  0.47000000000E+01 0.  1.
         13    1    6    6    0    0  0.62870391490E+01  0.45348251813E+02  0.11881829181E+02  0.47298717408E+02  0.00000000000E+00 0. -1.
        -14    1    6    6    0    0  0.87595956325E+01  0.10286835177E+03 -0.98831801114E+02  0.14292079353E+03  0.00000000000E+00 0.  1.
</event>
<event>
12    1  0.8747122E-002  0.2415942E+03  0.7818608E-02  0.1118833E+00
         21   -1    0    0  501  502  0.00000000000E+00  0.00000000000E+00  0.26333800941E+03  0.26333800941E+03  0.00000000000E+00 0. -1.
         21   -1    0    0  502  503 -0.00000000000E+00 -0.00000000000E+00 -0.22840207039E+03  0.22840207039E+03  0.00000000000E+00 0.  1.
         -6    2    1    2    0  503 -0.99786448461E+02 -0.13689821443E+03 -0.26460796741E+02  0.24303897094E+03  0.17224781920E+03 0.  0.
        -24    2    3    3    0    0 -0.13098334785E+02 -0.22848060919E+02 -0.48812672239E+02  0.97973596341E+02  0.80762295330E+02 0.  0.
          6    2    1    2  501    0  0.99786448461E+02  0.13689821443E+03  0.61396735757E+02  0.24870110887E+03  0.17141827785E+03 0.  0.
         24    2    5    5    0    0  0.13130484166E+02  0.23923752235E+01  0.15261128545E+02  0.82112810416E+02  0.79570588261E+02 0.  0.
          5    1    5    5  501    0  0.86655964295E+02  0.13450583921E+03  0.46135607212E+02  0.16658829845E+03  0.47000000000E+01 0. -1.
        -11    1    6    6    0    0  0.30573948663E+02 -0.28354593895E+02 -0.39404339181E+01  0.41884082314E+02  0.00000000000E+00 0.  1.
         12    1    6    6    0    0 -0.17443464497E+02  0.30746969119E+02  0.19201562464E+02  0.40228728102E+02  0.00000000000E+00 0. -1.
         -5    1    3    3    0  503 -0.86688113677E+02 -0.11405015351E+03  0.22351875499E+02  0.14506537460E+03  0.47000000000E+01 0.  1.
         13    1    4    4    0    0  0.17411585945E+02 -0.44216238434E+02 -0.24201327140E+02  0.53328634913E+02  0.00000000000E+00 0. -1.
        -14    1    4    4    0    0 -0.30509920730E+02  0.21368177515E+02 -0.24611345099E+02  0.44644961428E+02  0.00000000000E+00 0.  1.
</event>
<event>
12    1  0.8747122E-002  0.3979352E+03  0.7818608E-02  0.1044541E+00
         21   -1    0    0  503  502  0.00000000000E+00  0.00000000000E+00  0.65345975122E+03  0.65345975122E+03  0.00000000000E+00 0.  1.
         21   -1    0    0  501  503 -0.00000000000E+00 -0.00000000000E+00 -0.27824182355E+03  0.27824182355E+03  0.00000000000E+00 0. -1.
          6    2    1    2  501    0 -0.35352967985E+03  0.59157288790E+02  0.19431019411E+02  0.39790689690E+03  0.17166687140E+03 0.  0.
         24    2    3    3    0    0 -0.33643533673E+03  0.55769313878E+02  0.58638843331E+02  0.35474396840E+03  0.78139727365E+02 0.  0.
         -6    2    1    2    0  502  0.35352967985E+03 -0.59157288790E+02  0.35578690826E+03  0.53379467788E+03  0.17282828094E+03 0.  0.
        -24    2    5    5    0    0  0.13142233171E+03  0.33516178102E+02  0.13849867312E+03  0.20951653694E+03  0.79499266209E+02 0.  0.
          5    1    3    3  501    0 -0.17094343112E+02  0.33879749126E+01 -0.39207823920E+02  0.43162928503E+02  0.47000000000E+01 0. -1.
        -13    1    4    4    0    0 -0.17197242813E+03 -0.44731608402E+01  0.71315535750E+01  0.17217835016E+03  0.00000000000E+00 0.  1.
         14    1    4    4    0    0 -0.16446290860E+03  0.60242474718E+02  0.51507289756E+02  0.18256561824E+03  0.00000000000E+00 0. -1.
         -5    1    5    5    0  502  0.22210734814E+03 -0.92673466892E+02  0.21728823514E+03  0.32427814094E+03  0.47000000000E+01 0.  1.
         11    1    6    6    0    0  0.44400347343E+02 -0.26270835314E+02  0.47691680841E+02  0.70256985800E+02  0.00000000000E+00 0. -1.
        -12    1    6    6    0    0  0.87021984368E+02  0.59787013416E+02  0.90806992282E+02  0.13925955114E+03  0.00000000000E+00 0.  1.
</event>
<event>
12    1  0.8747122E-002  0.1769698E+03  0.7818608E-02  0.1170775E+00
         21   -1    0    0  503  502  0.00000000000E+00  0.00000000000E+00  0.46822074373E+03  0.46822074373E+03  0.00000000000E+00 0.  1.
         21   -1    0    0  501  503 -0.00000000000E+00 -0.00000000000E+00 -0.75895918283E+02  0.75895918283E+02  0.00000000000E+00 0.  1.
          6    2    1    2  501    0 -0.40085602340E+02 -0.18203669754E+02  0.10239433237E+03  0.20445759335E+03  0.17140618154E+03 0.  0.
         24    2    3    3    0    0 -0.47291971696E+02  0.50495481154E+02  0.55376832201E+02  0.12076625320E+03  0.82046146545E+02 0.  0.
         -6    2    1    2    0  502  0.40085602340E+02  0.18203669754E+02  0.28993049308E+03  0.33965906866E+03  0.17137783695E+03 0.  0.
        -24    2    5    5    0    0  0.86743913337E+02  0.12696748133E+02  0.25709003740E+03  0.28214463829E+03  0.76319038749E+02 0.  0.
          5    1    3    3  501    0  0.72063693566E+01 -0.68699150908E+02  0.47017500167E+02  0.83691340154E+02  0.47000000000E+01 0. -1.
        -13    1    4    4    0    0 -0.42152855293E+02  0.60718736221E+02  0.10747700527E+02  0.74693649022E+02  0.00000000000E+00 0.  1.
         14    1    4    4    0    0 -0.51391164034E+01 -0.10223255067E+02  0.44629131673E+02  0.46072604175E+02  0.00000000000E+00 0. -1.
         -5    1    5    5    0  502 -0.46658310997E+02  0.55069216213E+01  0.32840455679E+02  0.57514430364E+02  0.47000000000E+01 0.  1.
         11    1    6    6    0    0  0.63773250087E+02  0.16359886181E+00  0.76171869754E+02  0.99343887246E+02  0.00000000000E+00 0. -1.
        -12    1    6    6    0    0  0.22970663249E+02  0.12533149271E+02  0.18091816764E+03  0.18280075105E+03  0.00000000000E+00 0.  1.
</event>
<event>
12    1  0.8747122E-002  0.2064834E+03  0.7818608E-02  0.1144409E+00
         21   -1    0    0  501  502  0.00000000000E+00  0.00000000000E+00  0.90937159264E+02  0.90937159264E+02  0.00000000000E+00 0. -1.
         21   -1    0    0  502  503 -0.00000000000E+00 -0.00000000000E+00 -0.64558807255E+03  0.64558807255E+03  0.00000000000E+00 0. -1.
         -6    2    1    2    0  503  0.10549119989E+03  0.47260205418E+02 -0.47011483319E+03  0.51340696454E+03  0.17092932629E+03 0.  0.
        -24    2    3    3    0    0  0.72446581736E+02  0.53550481019E+02 -0.15289447157E+03  0.19437348326E+03  0.79297984427E+02 0.  0.
          6    2    1    2  501    0 -0.10549119989E+03 -0.47260205418E+02 -0.84536080098E+02  0.22311826727E+03  0.17109497971E+03 0.  0.
         24    2    5    5    0    0 -0.18998220121E+02  0.17192659646E+02  0.35395383339E+01  0.83781940613E+02  0.79689179490E+02 0.  0.
          5    1    5    5  501    0 -0.86492979772E+02 -0.64452865064E+02 -0.88075618432E+02  0.13933632666E+03  0.47000000000E+01 0. -1.
        -11    1    6    6    0    0 -0.20555700780E+02  0.45565276518E+02 -0.11982582428E+02  0.51403438994E+02  0.00000000000E+00 0.  1.
         12    1    6    6    0    0  0.15574806595E+01 -0.28372616872E+02  0.15522120761E+02  0.32378501619E+02  0.00000000000E+00 0. -1.
         -5    1    3    3    0  503  0.33044618157E+02 -0.62902756006E+01 -0.31722036162E+03  0.31903348128E+03  0.47000000000E+01 0.  1.
         11    1    4    4    0    0  0.41174561329E+02  0.57114125073E+02 -0.14609036177E+03  0.16217201234E+03  0.00000000000E+00 0. -1.
        -12    1    4    4    0    0  0.31272020407E+02 -0.35636440549E+01 -0.68041098031E+01  0.32201470922E+02  0.00000000000E+00 0.  1.
</event>
<event>
12    1  0.8747122E-002  0.2204269E+03  0.7818608E-02  0.1133877E+00
         21   -1    0    0  503  502  0.00000000000E+00  0.00000000000E+00  0.77373113781E+02  0.77373113781E+02  0.00000000000E+00 0. -1.
         21   -1    0    0  501  503 -0.00000000000E+00 -0.00000000000E+00 -0.73704874276E+03  0.73704874276E+03  0.00000000000E+00 0. -1.
          6    2    1    2  501    0 -0.64835859402E+02 -0.11823110732E+03 -0.49091938235E+03  0.53813552013E+03  0.17437234487E+03 0.  0.
         24    2    3    3    0    0  0.83703529829E+01 -0.64894146025E+02 -0.37741168331E+03  0.39284247586E+03  0.87202747340E+02 0.  0.
         -6    2    1    2    0  502  0.64835859402E+02  0.11823110732E+03 -0.16875624663E+03  0.27628633641E+03  0.17225906510E+03 0.  0.
        -24    2    5    5    0    0  0.28841973051E+01  0.12859734365E+03 -0.14103294857E+03  0.20746672767E+03  0.81280718009E+02 0.  0.
          5    1    3    3  501    0 -0.73206212385E+02 -0.53336961291E+02 -0.11350769904E+03  0.14529304427E+03  0.47000000000E+01 0. -1.
        -13    1    4    4    0    0  0.28851149657E+02 -0.55794352721E+02 -0.12959846384E+03  0.14401791716E+03  0.00000000000E+00 0.  1.
         14    1    4    4    0    0 -0.20480796674E+02 -0.90997933044E+01 -0.24781321947E+03  0.24882455871E+03  0.00000000000E+00 0. -1.
         -5    1    5    5    0  502  0.61951662097E+02 -0.10366236331E+02 -0.27723298059E+02  0.68819608742E+02  0.47000000000E+01 0.  1.
         11    1    6    6    0    0 -0.28382035060E+02  0.30323760977E+02 -0.13971074970E+02  0.43820786503E+02  0.00000000000E+00 0. -1.
        -12    1    6    6    0    0  0.31266232365E+02  0.98273582670E+02 -0.12706187360E+03  0.16364594117E+03  0.00000000000E+00 0.  1.
</event>
<event>
12    1  0.8747122E-002  0.2310893E+03  0.7818608E-02  0.1126018E+00
         21   -1    0    0  501  502  0.00000000000E+00  0.00000000000E+00  0.21143823750E+03  0.21143823750E+03  0.00000000000E+00 0. -1.
         21   -1    0    0  502  503 -0.00000000000E+00 -0.00000000000E+00 -0.69979137583E+03  0.69979137583E+03  0.00000000000E+00 0. -1.
         -6    2    1    2    0  503 -0.14099066253E+03 -0.56516548164E+02 -0.60892377057E+03  0.65129903826E+03  0.17415450534E+03 0.  0.
        -24    2    3    3    0    0 -0.10632482700E+03 -0.10523757204E+03 -0.41861145196E+03  0.45175874926E+03  0.80439445616E+02 0.  0.
          6    2    1    2  501    0  0.14099066253E+03  0.56516548164E+02  0.12057063225E+03  0.25993057507E+03  0.17307264186E+03 0.  0.
         24    2    5    5    0    0  0.71554159728E+02  0.78907447756E+02  0.13030432235E+03  0.18617682921E+03  0.79600328043E+02 0.  0.
          5    1    5    5  501    0  0.69436502801E+02 -0.22390899592E+02 -0.97336901055E+01  0.73753745863E+02  0.47000000000E+01 0. -1.
        -11    1    6    6    0    0  0.54448714665E+02  0.48252357692E+02  0.27893772901E+02  0.77916719118E+02  0.00000000000E+00 0.  1.
         12    1    6    6    0    0  0.17105445063E+02  0.30655090064E+02  0.10241054945E+03  0.10826011009E+03  0.00000000000E+00 0. -1.
         -5    1    3    3    0  503 -0.34665835525E+02  0.48721023871E+02 -0.19031231861E+03  0.19954028900E+03  0.47000000000E+01 0.  1.
         11    1    4    4    0    0 -0.23884128262E+02 -0.56957564240E+02 -0.25428516965E+03  0.26167835832E+03  0.00000000000E+00 0. -1.
        -12    1    4    4    0    0 -0.82440698741E+02 -0.48280007795E+02 -0.16432628231E+03  0.19008039094E+03  0.00000000000E+00 0.  1.
</event>
<event>
12    1  0.8747122E-002  0.1779432E+03  0.7818608E-02  0.1170337E+00
         21   -1    0    0  501  502  0.00000000000E+00  0.00000000000E+00  0.26354513995E+03  0.26354513995E+03  0.00000000000E+00 0. -1.
         21   -1    0    0  502  503 -0.00000000000E+00 -0.00000000000E+00 -0.17501168634E+03  0.17501168634E+03  0.00000000000E+00 0. -1.
         -6    2    1    2    0  503 -0.29393004959E+02 -0.30830831270E+02 -0.80289040604E+02  0.19327162656E+03  0.17056700353E+03 0.  0.
        -24    2    3    3    0    0  0.29844688020E+02  0.27717228333E+02 -0.29025152907E+02  0.95358115057E+02  0.81189657325E+02 0.  0.
          6    2    1    2  501    0  0.29393004959E+02  0.30830831270E+02  0.16882249421E+03  0.24528519973E+03  0.17276951628E+03 0.  0.
         24    2    5    5    0    0  0.31134718799E+02 -0.43764679448E+02  0.61572761358E+02  0.11454836872E+03  0.80283285635E+02 0.  0.
          5    1    5    5  501    0 -0.17417138403E+01  0.74595510719E+02  0.10724973285E+03  0.13073683101E+03  0.47000000000E+01 0. -1.
        -11    1    6    6    0    0 -0.26398564868E+02 -0.22132469561E+02  0.15732548231E+02  0.37871407550E+02  0.00000000000E+00 0.  1.
         12    1    6    6    0    0  0.57533283667E+02 -0.21632209887E+02  0.45840213127E+02  0.76676961166E+02  0.00000000000E+00 0. -1.
         -5    1    3    3    0  503 -0.59237692979E+02 -0.58548059603E+02 -0.51263887697E+02  0.97913511502E+02  0.47000000000E+01 0.  1.
         11    1    4    4    0    0  0.28311690584E+02 -0.16817462410E+02 -0.37598019786E+02  0.49979895533E+02  0.00000000000E+00 0. -1.
        -12    1    4    4    0    0  0.15329974363E+01  0.44534690743E+02  0.85728668788E+01  0.45378219525E+02  0.00000000000E+00 0.  1.
</event>
<event>
12    1  0.8747122E-002  0.1797802E+03  0.7818608E-02  0.1168756E+00
         21   -1    0    0  503  502  0.00000000000E+00  0.00000000000E+00  0.13684287601E+03  0.13684287601E+03  0.00000000000E+00 0. -1.
         21   -1    0    0  501  503 -0.00000000000E+00 -0.00000000000E+00 -0.29344948334E+03  0.29344948334E+03  0.00000000000E+00 0. -1.
          6    2    1    2  501    0  0.39276141021E+02  0.18724250442E+02 -0.17709380885E+03  0.25235514946E+03  0.17443535055E+03 0.  0.
         24    2    3    3    0    0  0.51509614182E+02 -0.25998909941E+02 -0.18031904578E+03  0.20563993681E+03  0.80272297006E+02 0.  0.
         -6    2    1    2    0  502 -0.39276141021E+02 -0.18724250442E+02  0.20487201513E+02  0.17793720988E+03  0.17131465911E+03 0.  0.
        -24    2    5    5    0    0  0.73887436308E+01 -0.47157090594E+02 -0.34333056215E+02  0.10039116862E+03  0.81371022247E+02 0.  0.
          5    1    3    3  501    0 -0.12233473161E+02  0.44723160383E+02  0.32252369395E+01  0.46715212656E+02  0.47000000000E+01 0. -1.
        -13    1    4    4    0    0  0.53369447714E+02 -0.98653002649E+01 -0.18141795966E+03  0.18936234627E+03  0.00000000000E+00 0.  1.
         14    1    4    4    0    0 -0.18598335325E+01 -0.16133609676E+02  0.10989138749E+01  0.16277590536E+02  0.00000000000E+00 0. -1.
         -5    1    5    5    0  502 -0.46664884652E+02  0.28432840152E+02  0.54820257728E+02  0.77546041266E+02  0.47000000000E+01 0.  1.
         13    1    6    6    0    0 -0.68249117524E+01 -0.18506266529E+02 -0.57571916991E+02  0.60857102685E+02  0.00000000000E+00 0. -1.
        -14    1    6    6    0    0  0.14213655383E+02 -0.28650824065E+02  0.23238860776E+02  0.39534065932E+02  0.00000000000E+00 0.  1.
</event>
<event>
12    1  0.8747122E-002  0.1791566E+03  0.7818608E-02  0.1168981E+00
         21   -1    0    0  501  502  0.00000000000E+00  0.00000000000E+00  0.38708816564E+02  0.38708816564E+02  0.00000000000E+00 0. -1.
         21   -1    0    0  502  503 -0.00000000000E+00 -0.00000000000E+00 -0.15878887852E+04  0.15878887852E+04  0.00000000000E+00 0. -1.
         -6    2    1    2    0  503 -0.35905944891E+02  0.27158723113E+02 -0.13409209869E+04  0.13528363507E+04  0.17340780130E+03 0.  0.
        -24    2    3    3    0    0 -0.36433491237E+02  0.19253807796E+02 -0.13401368533E+04  0.13435913058E+04  0.87021278857E+02 0.  0.
          6    2    1    2  501    0  0.35905944891E+02 -0.27158723113E+02 -0.20825898172E+03  0.27376125105E+03  0.17189120393E+03 0.  0.
         24    2    5    5    0    0 -0.41748501711E+02  0.10917347564E+02 -0.10765948552E+03  0.14101205568E+03  0.80197937326E+02 0.  0.
          5    1    5    5  501    0  0.77654446602E+02 -0.38076070677E+02 -0.10059949621E+03  0.13274919537E+03  0.47000000000E+01 0. -1.
        -11    1    6    6    0    0 -0.18097564747E+02  0.22739829317E+02 -0.11064932623E+03  0.11440233862E+03  0.00000000000E+00 0.  1.
         12    1    6    6    0    0 -0.23650936963E+02 -0.11822481753E+02  0.29898407159E+01  0.26609717051E+02  0.00000000000E+00 0. -1.
         -5    1    3    3    0  503  0.52754634609E+00  0.79049153172E+01 -0.78413366377E+00  0.92450449930E+01  0.47000000000E+01 0.  1.
         11    1    4    4    0    0  0.24697036296E+02 -0.10672032276E+02 -0.48772013029E+03  0.48846162732E+03  0.00000000000E+00 0. -1.
        -12    1    4    4    0    0 -0.61130527533E+02  0.29925840072E+02 -0.85241672299E+03  0.85512967843E+03  0.00000000000E+00 0.  1.
</event>
<event>
12    1  0.8747122E-002  0.1875733E+03  0.7818608E-02  0.1162500E+00
         21   -1    0    0  501  502  0.00000000000E+00  0.00000000000E+00  0.21919095372E+03  0.21919095372E+03  0.00000000000E+00 0. -1.
         21   -1    0    0  502  503 -0.00000000000E+00 -0.00000000000E+00 -0.16274585347E+03  0.16274585347E+03  0.00000000000E+00 0.  1.
         -6    2    1    2    0  503 -0.38014776110E+02  0.32861546811E+02 -0.16850998880E+02  0.18055141015E+03  0.17259736696E+03 0.  0.
        -24    2    3    3    0    0 -0.50760928043E+00 -0.44715351353E+02  0.36907505353E+01  0.91843934918E+02  0.80137172573E+02 0.  0.
          6    2    1    2  501    0  0.38014776110E+02 -0.32861546811E+02  0.73296099125E+02  0.20138539704E+03  0.18071733601E+03 0.  0.
         24    2    5    5    0    0  0.16833776865E+02 -0.86567206988E+02  0.78378896573E+02  0.14324025542E+03  0.81223530931E+02 0.  0.
          5    1    5    5  501    0  0.21180999245E+02  0.53705660177E+02 -0.50827974476E+01  0.58145141619E+02  0.47000000000E+01 0. -1.
        -11    1    6    6    0    0 -0.28387286117E+02 -0.50086845321E+02  0.20187118014E+02  0.61008604484E+02  0.00000000000E+00 0.  1.
         12    1    6    6    0    0  0.45221062983E+02 -0.36480361667E+02  0.58191778559E+02  0.82231650941E+02  0.00000000000E+00 0. -1.
         -5    1    3    3    0  503 -0.37507166830E+02  0.77576898164E+02 -0.20541749415E+02  0.88707475229E+02  0.47000000000E+01 0.  1.
         11    1    4    4    0    0  0.20117208801E+02  0.86325267308E+01  0.22734663145E+02  0.31560854171E+02  0.00000000000E+00 0. -1.
        -12    1    4    4    0    0 -0.20624818081E+02 -0.53347878084E+02 -0.19043912610E+02  0.60283080748E+02  0.00000000000E+00 0.  1.
</event>
<event>
12    1  0.8747122E-002  0.4615398E+03  0.7818608E-02  0.1024349E+00
         21   -1    0    0  501  502  0.00000000000E+00  0.00000000000E+00  0.54635453413E+03  0.54635453413E+03  0.00000000000E+00 0. -1.
         21   -1    0    0  502  503 -0.00000000000E+00 -0.00000000000E+00 -0.41205760145E+03  0.41205760145E+03  0.00000000000E+00 0.  1.
         -6    2    1    2    0  503  0.42710728021E+03 -0.33723120593E+02 -0.44363305687E+02  0.46366703999E+03  0.17164248722E+03 0.  0.
        -24    2    3    3    0    0  0.36528539652E+03 -0.64612100184E+02 -0.76667821940E+02  0.38723572356E+03  0.80407750078E+02 0.  0.
          6    2    1    2  501    0 -0.42710728021E+03  0.33723120593E+02  0.17866023837E+03  0.49474509558E+03  0.17115884773E+03 0.  0.
         24    2    5    5    0    0 -0.17696727753E+03  0.61145710256E+02  0.80821939732E+02  0.22471464907E+03  0.94383644583E+02 0.  0.
          5    1    5    5  501    0 -0.25014000267E+03 -0.27422589663E+02  0.97838298634E+02  0.27003044651E+03  0.47000000000E+01 0. -1.
        -13    1    6    6    0    0 -0.16807208393E+03  0.53623957541E+02  0.38170975861E+02  0.18050146153E+03  0.00000000000E+00 0.  1.
         14    1    6    6    0    0 -0.88951936094E+01  0.75217527148E+01  0.42650963871E+02  0.44213187539E+02  0.00000000000E+00 0. -1.
         -5    1    3    3    0  503  0.61821883682E+02  0.30888979591E+02  0.32304516254E+02  0.76431316438E+02  0.47000000000E+01 0.  1.
         11    1    4    4    0    0  0.23390548514E+03 -0.26343419417E+02 -0.11485635369E+02  0.23566431962E+03  0.00000000000E+00 0. -1.
        -12    1    4    4    0    0  0.13137991139E+03 -0.38268680767E+02 -0.65182186571E+02  0.15157140393E+03  0.00000000000E+00 0.  1.
</event>
<event>
12    1  0.8747122E-002  0.3994588E+03  0.7818608E-02  0.1044006E+00
         21   -1    0    0  503  502  0.00000000000E+00  0.00000000000E+00  0.82249934091E+02  0.82249934091E+02  0.00000000000E+00 0.  1.
         21   -1    0    0  501  503 -0.00000000000E+00 -0.00000000000E+00 -0.22184189091E+04  0.22184189091E+04  0.00000000000E+00 0. -1.
          6    2    1    2  501    0  0.15143592917E+03  0.32678039305E+03 -0.14766582501E+04  0.15296164896E+04  0.17172289276E+03 0.  0.
         24    2    3    3    0    0  0.98522379042E+01  0.10359892234E+03 -0.59679155802E+03  0.61089814525E+03  0.78781830697E+02 0.  0.
         -6    2    1    2    0  502 -0.15143592917E+03 -0.32678039305E+03 -0.65951072492E+03  0.77105235355E+03  0.17276883313E+03 0.  0.
        -24    2    5    5    0    0 -0.23592923853E+02 -0.15689077005E+03 -0.38109108184E+03  0.42070123586E+03  0.81165124369E+02 0.  0.
          5    1    3    3  501    0  0.14158369127E+03  0.22318147071E+03 -0.87986669204E+03  0.91871834436E+03  0.47000000000E+01 0. -1.
        -13    1    4    4    0    0  0.17040945540E+02  0.38201292642E+02 -0.42311622496E+03  0.42517887107E+03  0.00000000000E+00 0.  1.
         14    1    4    4    0    0 -0.71887076360E+01  0.65397629700E+02 -0.17367533306E+03  0.18571927418E+03  0.00000000000E+00 0. -1.
         -5    1    5    5    0  502 -0.12784300532E+03 -0.16988962300E+03 -0.27841964308E+03  0.35035111769E+03  0.47000000000E+01 0.  1.
         13    1    6    6    0    0 -0.41999809065E+02 -0.10946347788E+03 -0.32225447170E+03  0.34292008031E+03  0.00000000000E+00 0. -1.
        -14    1    6    6    0    0  0.18406885212E+02 -0.47427292168E+02 -0.58836610143E+02  0.77781155550E+02  0.00000000000E+00 0.  1.
</event>
<event>
12    1  0.8747122E-002  0.1921024E+03  0.7818608E-02  0.1156619E+00
         21   -1    0    0  501  502  0.00000000000E+00  0.00000000000E+00  0.15942792654E+03  0.15942792654E+03  0.00000000000E+00 0.  1.
         21   -1    0    0  502  503 -0.00000000000E+00 -0.00000000000E+00 -0.23143166735E+03  0.23143166735E+03  0.00000000000E+00 0.  1.
         -6    2    1    2    0  503 -0.33522103774E+02 -0.78677964101E+02 -0.41393186448E+02  0.19633370013E+03  0.17181260852E+03 0.  0.
        -24    2    3    3    0    0  0.17181430151E+02 -0.20123396146E+02  0.33777734585E+02  0.88295544137E+02  0.77168744620E+02 0.  0.
          6    2    1    2  501    0  0.33522103774E+02  0.78677964101E+02 -0.30610554364E+02  0.19452589376E+03  0.17201559181E+03 0.  0.
         24    2    5    5    0    0  0.32179220082E+02  0.75014870235E+02  0.41754245221E+02  0.12190374967E+03  0.80339120156E+02 0.  0.
          5    1    5    5  501    0  0.13428836917E+01  0.36630938655E+01 -0.72364799585E+02  0.72622144091E+02  0.47000000000E+01 0. -1.
        -13    1    6    6    0    0  0.42128834092E+02  0.82665123613E+02  0.17248409692E+02  0.94370911625E+02  0.00000000000E+00 0.  1.
         14    1    6    6    0    0 -0.99496140097E+01 -0.76502533779E+01  0.24505835530E+02  0.27532838043E+02  0.00000000000E+00 0. -1.
         -5    1    3    3    0  503 -0.50703533925E+02 -0.58554567955E+02 -0.75170921033E+02  0.10803815599E+03  0.47000000000E+01 0.  1.
         13    1    4    4    0    0 -0.23334572218E+02 -0.57128913256E+01 -0.10815314162E+02  0.26345975182E+02  0.00000000000E+00 0. -1.
        -14    1    4    4    0    0  0.40516002369E+02 -0.14410504821E+02  0.44593048747E+02  0.61949568955E+02  0.00000000000E+00 0.  1.
</event>
<event>
12    1  0.8747122E-002  0.2369998E+03  0.7818608E-02  0.1123123E+00
         21   -1    0    0  501  502  0.00000000000E+00  0.00000000000E+00  0.17739404876E+03  0.17739404876E+03  0.00000000000E+00 0.  1.
         21   -1    0    0  502  503 -0.00000000000E+00 -0.00000000000E+00 -0.48806143788E+03  0.48806143788E+03  0.00000000000E+00 0. -1.
         -6    2    1    2    0  503  0.16272948753E+03  0.21213461251E+02  0.45980877411E+02  0.24141900259E+03  0.17099121813E+03 0.  0.
        -24    2    3    3    0    0  0.16907352959E+03  0.34751633755E+02 -0.25479227854E+01  0.19042230238E+03  0.80378024825E+02 0.  0.
          6    2    1    2  501    0 -0.16272948753E+03 -0.21213461251E+02 -0.35664826653E+03  0.42403648405E+03  0.16024374166E+03 0.  0.
         24    2    5    5    0    0 -0.52179704900E+02  0.54192840471E+01 -0.25375615369E+03  0.27061081982E+03  0.78012435058E+02 0.  0.
          5    1    5    5  501    0 -0.11054978263E+03 -0.26632745298E+02 -0.10289211284E+03  0.15342566424E+03  0.47000000000E+01 0. -1.
        -13    1    6    6    0    0  0.49306320458E+01  0.29441835914E+02 -0.57200869468E+02  0.64521874603E+02  0.00000000000E+00 0.  1.
         14    1    6    6    0    0 -0.57110336946E+02 -0.24022551866E+02 -0.19655528422E+03  0.20608894522E+03  0.00000000000E+00 0. -1.
         -5    1    3    3    0  503 -0.63440420628E+01 -0.13538172504E+02  0.48528800196E+02  0.50996700216E+02  0.47000000000E+01 0.  1.
         11    1    4    4    0    0  0.10150580889E+03  0.57382840599E+02 -0.16642958913E+02  0.11778458182E+03  0.00000000000E+00 0. -1.
        -12    1    4    4    0    0  0.67567720700E+02 -0.22631206843E+02  0.14095036127E+02  0.72637720554E+02  0.00000000000E+00 0.  1.
</event>
<event>
12    1  0.8747122E-002  0.1938077E+03  0.7818608E-02  0.1155292E+00
         21   -1    0    0  501  502  0.00000000000E+00  0.00000000000E+00  0.85314957165E+03  0.85314957165E+03  0.00000000000E+00 0.  1.
         21   -1    0    0  502  503 -0.00000000000E+00 -0.00000000000E+00 -0.44151202625E+02  0.44151202625E+02  0.00000000000E+00 0.  1.
         -6    2    1    2    0  503  0.80760974368E+02  0.36537406529E+02  0.36341826488E+03  0.41139640181E+03  0.17122163159E+03 0.  0.
        -24    2    3    3    0    0  0.69622407263E+02 -0.68732306507E+01  0.34773639875E+03  0.36368307010E+03  0.80313458233E+02 0.  0.
          6    2    1    2  501    0 -0.80760974368E+02 -0.36537406529E+02  0.44558010415E+03  0.48590437246E+03  0.17234881173E+03 0.  0.
         24    2    5    5    0    0 -0.85587033999E+02 -0.23424792327E+02  0.16020358557E+03  0.20014734479E+03  0.80745956649E+02 0.  0.
          5    1    5    5  501    0  0.48260596313E+01 -0.13112614202E+02  0.28537651858E+03  0.28575702767E+03  0.47000000000E+01 0. -1.
        -13    1    6    6    0    0 -0.42051860467E+02  0.29518000863E+02  0.65715317877E+02  0.83415672073E+02  0.00000000000E+00 0.  1.
         14    1    6    6    0    0 -0.43535173533E+02 -0.52942793190E+02  0.94488267688E+02  0.11673167272E+03  0.00000000000E+00 0. -1.
         -5    1    3    3    0  503  0.11138567106E+02  0.43410637180E+02  0.15681866126E+02  0.47713331709E+02  0.47000000000E+01 0.  1.
         13    1    4    4    0    0 -0.14213756375E+02  0.13567353491E+02  0.80323259282E+02  0.82691776694E+02  0.00000000000E+00 0. -1.
        -14    1    4    4    0    0  0.83836163637E+02 -0.20440584142E+02  0.26741313947E+03  0.28099129341E+03  0.00000000000E+00 0.  1.
</event>
<event>
12    1  0.8747122E-002  0.1787430E+03  0.7818608E-02  0.1169486E+00
         21   -1    0    0  503  502  0.00000000000E+00  0.00000000000E+00  0.49061933303E+03  0.49061933303E+03  0.00000000000E+00 0.  1.
         21   -1    0    0  501  503 -0.00000000000E+00 -0.00000000000E+00 -0.65042976923E+02  0.65042976923E+02  0.00000000000E+00 0.  1.
          6    2    1    2  501    0 -0.17575079074E+02  0.48257481885E+02  0.23846464464E+03  0.29689627474E+03  0.16924639803E+03 0.  0.
         24    2    3    3    0    0 -0.25885247282E+02  0.15676097760E+02  0.24771695751E+03  0.26170677658E+03  0.78809642848E+02 0.  0.
         -6    2    1    2    0  502  0.17575079074E+02 -0.48257481885E+02  0.18711171146E+03  0.25876603521E+03  0.17120572552E+03 0.  0.
        -24    2    5    5    0    0  0.21500494283E+01 -0.82432238666E+02  0.65682218273E+02  0.13159269934E+03  0.78757780813E+02 0.  0.
          5    1    3    3  501    0  0.83101682078E+01  0.32581384125E+02 -0.92523128621E+01  0.35189498156E+02  0.47000000000E+01 0. -1.
        -13    1    4    4    0    0  0.26669496777E+01  0.42121236833E+02  0.92309791121E+02  0.10150078202E+03  0.00000000000E+00 0.  1.
         14    1    4    4    0    0 -0.28552196960E+02 -0.26445139072E+02  0.15540716638E+03  0.16020599457E+03  0.00000000000E+00 0. -1.
         -5    1    5    5    0  502  0.15425029646E+02  0.34174756780E+02  0.12142949319E+03  0.12717333587E+03  0.47000000000E+01 0.  1.
         11    1    6    6    0    0  0.37223910249E+02 -0.64042096284E+02  0.47658605271E+02  0.88081509110E+02  0.00000000000E+00 0. -1.
        -12    1    6    6    0    0 -0.35073860821E+02 -0.18390142382E+02  0.18023613002E+02  0.43511190231E+02  0.00000000000E+00 0.  1.
</event>
<event>
12    1  0.8747122E-002  0.2277450E+03  0.7818608E-02  0.1128354E+00
         21   -1    0    0  503  502  0.00000000000E+00  0.00000000000E+00  0.96680614426E+02  0.96680614426E+02  0.00000000000E+00 0. -1.
         21   -1    0    0  501  503 -0.00000000000E+00 -0.00000000000E+00 -0.63252294084E+03  0.63252294084E+03  0.00000000000E+00 0.  1.
          6    2    1    2  501    0 -0.22654041986E+02 -0.14655814508E+03 -0.12503962832E+03  0.25981279571E+03  0.17284468362E+03 0.  0.
         24    2    3    3    0    0 -0.72249078550E+02 -0.59537743863E+02 -0.96185583237E+02  0.15547266058E+03  0.78456417653E+02 0.  0.
         -6    2    1    2    0  502  0.22654041986E+02  0.14655814508E+03 -0.41080269809E+03  0.46939075956E+03  0.17197771044E+03 0.  0.
        -24    2    5    5    0    0 -0.43064153034E+02  0.87240378343E+02 -0.16308760433E+03  0.20628937932E+03  0.80575036100E+02 0.  0.
          5    1    3    3  501    0  0.49595036564E+02 -0.87020401219E+02 -0.28854045086E+02  0.10434013512E+03  0.47000000000E+01 0. -1.
        -13    1    4    4    0    0 -0.48554496099E+02 -0.63873940207E+02 -0.31061085269E+02  0.86036099092E+02  0.00000000000E+00 0.  1.
         14    1    4    4    0    0 -0.23694582451E+02  0.43361963435E+01 -0.65124497968E+02  0.69436561492E+02  0.00000000000E+00 0. -1.
         -5    1    5    5    0  502  0.65718195020E+02  0.59317766739E+02 -0.24771509376E+03  0.26310138024E+03  0.47000000000E+01 0.  1.
         13    1    6    6    0    0  0.20796988345E+02  0.30988592296E+02 -0.75196008139E+02  0.83947883933E+02  0.00000000000E+00 0. -1.
        -14    1    6    6    0    0 -0.63861141379E+02  0.56251786047E+02 -0.87891596194E+02  0.12234149539E+03  0.00000000000E+00 0.  1.
</event>
<event>
12    1  0.8747122E-002  0.1829194E+03  0.7818608E-02  0.1165074E+00
         21   -1    0    0  503  502  0.00000000000E+00  0.00000000000E+00  0.10448267678E+02  0.10448267678E+02  0.00000000000E+00 0. -1.
         21   -1    0    0  501  503 -0.00000000000E+00 -0.00000000000E+00 -0.31975477707E+04  0.31975477707E+04  0.00000000000E+00 0. -1.
          6    2    1    2  501    0  0.61608310386E+02 -0.15119707914E+02 -0.15865450300E+04  0.15970549863E+04  0.17156721074E+03 0.  0.
         24    2    3    3    0    0  0.66482160651E+02 -0.50971983209E+02 -0.67449393127E+03  0.68427437924E+03  0.79191805177E+02 0.  0.
         -6    2    1    2    0  502 -0.61608310386E+02  0.15119707914E+02 -0.16005544730E+04  0.16109410520E+04  0.17126664139E+03 0.  0.
        -24    2    5    5    0    0 -0.33217304065E+02  0.74474097739E+02 -0.88287791434E+03  0.89023950094E+03  0.80019853015E+02 0.  0.
          5    1    3    3  501    0 -0.48738502648E+01  0.35852275296E+02 -0.91205109871E+03  0.91278060711E+03  0.47000000000E+01 0. -1.
        -13    1    4    4    0    0  0.56633293596E+02 -0.61183350853E+01 -0.21245143629E+03  0.21995539718E+03  0.00000000000E+00 0.  1.
         14    1    4    4    0    0  0.98488670548E+01 -0.44853648124E+02 -0.46204249497E+03  0.46431898205E+03  0.00000000000E+00 0. -1.
         -5    1    5    5    0  502 -0.28391006321E+02 -0.59354389825E+02 -0.71767655869E+03  0.72070155107E+03  0.47000000000E+01 0.  1.
         13    1    6    6    0    0 -0.11656047352E+02  0.57466442203E+02 -0.25072403167E+03  0.25748940847E+03  0.00000000000E+00 0. -1.
        -14    1    6    6    0    0 -0.21561256713E+02  0.17007655536E+02 -0.63215388267E+03  0.63275009246E+03  0.00000000000E+00 0.  1.
</event>
<event>
12    1  0.8747122E-002  0.2440465E+03  0.7818608E-02  0.1117194E+00
         21   -1    0    0  503  502  0.00000000000E+00  0.00000000000E+00  0.17106325875E+04  0.17106325875E+04  0.00000000000E+00 0. -1.
         21   -1    0    0  501  503 -0.00000000000E+00 -0.00000000000E+00 -0.41881892059E+02  0.41881892059E+02  0.00000000000E+00 0. -1.
          6    2    1    2  501    0  0.12299156366E+03 -0.12166581195E+03  0.47355719462E+03  0.53274299892E+03  0.17213132136E+03 0.  0.
         24    2    3    3    0    0  0.11618145503E+03 -0.26143181613E+02  0.33406492566E+03  0.36347654156E+03  0.79587846273E+02 0.  0.
         -6    2    1    2    0  502 -0.12299156366E+03  0.12166581195E+03  0.11951935008E+04  0.12197714806E+04  0.17153852642E+03 0.  0.
        -24    2    5    5    0    0 -0.89631477921E+02  0.13858879137E+03  0.11268948647E+04  0.11417581725E+04  0.80492443340E+02 0.  0.
          5    1    3    3  501    0  0.68101086218E+01 -0.95522630334E+02  0.13949226896E+03  0.16926645735E+03  0.47000000000E+01 0. -1.
        -11    1    4    4    0    0  0.40605065141E+02  0.28562924443E+02  0.12724617641E+03  0.13658770581E+03  0.00000000000E+00 0.  1.
         12    1    4    4    0    0  0.75576389894E+02 -0.54706106056E+02  0.20681874925E+03  0.22688883575E+03  0.00000000000E+00 0. -1.
         -5    1    5    5    0  502 -0.33360085735E+02 -0.16922979419E+02  0.68298636147E+02  0.78013308174E+02  0.47000000000E+01 0.  1.
         11    1    6    6    0    0 -0.97690394365E+02  0.97389112410E+02  0.94925189802E+03  0.95922219441E+03  0.00000000000E+00 0. -1.
        -12    1    6    6    0    0  0.80589164442E+01  0.41199678956E+02  0.17764296666E+03  0.18253597805E+03  0.00000000000E+00 0.  1.
</event>
<event>
12    1  0.8747122E-002  0.2032852E+03  0.7818608E-02  0.1147194E+00
         21   -1    0    0  503  502  0.00000000000E+00  0.00000000000E+00  0.19153288635E+04  0.19153288635E+04  0.00000000000E+00 0.  1.
         21   -1    0    0  501  503 -0.00000000000E+00 -0.00000000000E+00 -0.21487599941E+02  0.21487599941E+02  0.00000000000E+00 0.  1.
          6    2    1    2  501    0 -0.19061087452E+02 -0.10757232951E+03  0.96858320090E+03  0.98949004871E+03  0.17029976012E+03 0.  0.
         24    2    3    3    0    0 -0.62488771085E+02 -0.18151690839E+02  0.59581800661E+03  0.60366885385E+03  0.71990678006E+02 0.  0.
         -6    2    1    2    0  502  0.19061087452E+02  0.10757232951E+03  0.92525806269E+03  0.94732641477E+03  0.17143430929E+03 0.  0.
        -24    2    5    5    0    0  0.12068747909E+02  0.49790249821E+02  0.22125876141E+03  0.24090956350E+03  0.80357044691E+02 0.  0.
          5    1    3    3  501    0  0.43427683633E+02 -0.89420638671E+02  0.37276519429E+03  0.38582119486E+03  0.47000000000E+01 0. -1.
        -11    1    4    4    0    0 -0.24846010232E+02 -0.14127283677E+02  0.49740572317E+03  0.49822621149E+03  0.00000000000E+00 0.  1.
         12    1    4    4    0    0 -0.37642760854E+02 -0.40244071613E+01  0.98412283437E+02  0.10544264237E+03  0.00000000000E+00 0. -1.
         -5    1    5    5    0  502  0.69923395423E+01  0.57782079688E+02  0.70399930128E+03  0.70641685127E+03  0.47000000000E+01 0.  1.
         11    1    6    6    0    0 -0.41516085957E+01 -0.19144963530E+02  0.86337015633E+02  0.88531608767E+02  0.00000000000E+00 0. -1.
        -12    1    6    6    0    0  0.16220356505E+02  0.68935213351E+02  0.13492174578E+03  0.15237795473E+03  0.00000000000E+00 0.  1.
</event>
<event>
12    1  0.8747122E-002  0.1746714E+03  0.7818608E-02  0.1173464E+00
         21   -1    0    0  501  502  0.00000000000E+00  0.00000000000E+00  0.12118146378E+03  0.12118146378E+03  0.00000000000E+00 0. -1.
         21   -1    0    0  502  503 -0.00000000000E+00 -0.00000000000E+00 -0.36721908009E+03  0.36721908009E+03  0.00000000000E+00 0. -1.
         -6    2    1    2    0  503  0.71150260851E+01  0.51398414385E+01 -0.26090642793E+03  0.31309742015E+03  0.17286060512E+03 0.  0.
        -24    2    3    3    0    0 -0.45686344746E+02  0.72988873881E+01 -0.72173426376E+02  0.11704925740E+03  0.79693220104E+02 0.  0.
          6    2    1    2  501    0 -0.71150260851E+01 -0.51398414385E+01  0.14868811621E+02  0.17530312372E+03  0.17445074393E+03 0.  0.
         24    2    5    5    0    0  0.31837120120E+02  0.21305196393E+02 -0.43042793314E+02  0.10052041378E+03  0.82365999773E+02 0.  0.
          5    1    5    5  501    0 -0.38952146205E+02 -0.26445037831E+02  0.57911604935E+02  0.74782709940E+02  0.47000000000E+01 0. -1.
        -11    1    6    6    0    0  0.22507747824E+02  0.44286090004E+02  0.13200066516E+01  0.49695059086E+02  0.00000000000E+00 0.  1.
         12    1    6    6    0    0  0.93293722967E+01 -0.22980893611E+02 -0.44362799965E+02  0.50825354690E+02  0.00000000000E+00 0. -1.
         -5    1    3    3    0  503  0.52801370831E+02 -0.21590459496E+01 -0.18873300156E+03  0.19604816275E+03  0.47000000000E+01 0.  1.
         13    1    4    4    0    0 -0.53714892895E+02  0.16017352915E+01 -0.85193527223E+02  0.10072632404E+03  0.00000000000E+00 0. -1.
        -14    1    4    4    0    0  0.80285481489E+01  0.56971520966E+01  0.13020100847E+02  0.16322933360E+02  0.00000000000E+00 0.  1.
</event>
<event>
12    1  0.8747122E-002  0.2009351E+03  0.7818608E-02  0.1150060E+00
         21   -1    0    0  501  502  0.00000000000E+00  0.00000000000E+00  0.11976868772E+03  0.11976868772E+03  0.00000000000E+00 0. -1.
         21   -1    0    0  502  503 -0.00000000000E+00 -0.00000000000E+00 -0.91565187741E+03  0.91565187741E+03  0.00000000000E+00 0. -1.
         -6    2    1    2    0  503  0.19539419188E+02 -0.10208709431E+03 -0.81439827824E+03  0.83882027363E+03  0.17196317085E+03 0.  0.
        -24    2    3    3    0    0 -0.46846901969E+02 -0.25357862079E+02 -0.47609310104E+03  0.48559654618E+03  0.79383319471E+02 0.  0.
          6    2    1    2  501    0 -0.19539419188E+02  0.10208709431E+03  0.18515088546E+02  0.19660029151E+03  0.16584722605E+03 0.  0.
         24    2    5    5    0    0  0.11730650328E+02  0.11029456887E+03 -0.28338908502E+02  0.13948140737E+03  0.79683556563E+02 0.  0.
          5    1    5    5  501    0 -0.31270069515E+02 -0.82074745576E+01  0.46853997048E+02  0.57118884141E+02  0.47000000000E+01 0. -1.
        -11    1    6    6    0    0  0.35691363733E+00  0.21671719960E+02 -0.43738420624E+02  0.48814344941E+02  0.00000000000E+00 0.  1.
         12    1    6    6    0    0  0.11373736690E+02  0.88622848910E+02  0.15399512122E+02  0.90667062425E+02  0.00000000000E+00 0. -1.
         -5    1    3    3    0  503  0.66386321157E+02 -0.76729232233E+02 -0.33830517720E+03  0.35322372745E+03  0.47000000000E+01 0.  1.
         13    1    4    4    0    0 -0.46868586434E+02 -0.21832352486E+02 -0.13617836385E+03  0.14566352595E+03  0.00000000000E+00 0. -1.
        -14    1    4    4    0    0  0.21684464702E-01 -0.35255095933E+01 -0.33991473719E+03  0.33993302023E+03  0.00000000000E+00 0.  1.
</event>
<event>
12    1  0.8747122E-002  0.1774372E+03  0.7818608E-02  0.1170734E+00
         21   -1    0    0  501  502  0.00000000000E+00  0.00000000000E+00  0.40592599858E+02  0.40592599858E+02  0.00000000000E+00 0.  1.
         21   -1    0    0  502  503 -0.00000000000E+00 -0.00000000000E+00 -0.10481601749E+04  0.10481601749E+04  0.00000000000E+00 0.  1.
         -6    2    1    2    0  503 -0.24815348060E+02 -0.21179813238E+02 -0.78697514448E+03  0.80673034074E+03  0.17441209432E+03 0.  0.
        -24    2    3    3    0    0  0.31417830132E+02 -0.17295385092E+02 -0.68161186643E+03  0.68714451602E+03  0.79288328530E+02 0.  0.
          6    2    1    2  501    0  0.24815348060E+02  0.21179813238E+02 -0.22059243055E+03  0.28202243401E+03  0.17265933766E+03 0.  0.
         24    2    5    5    0    0  0.36095234547E+02  0.76901886118E+02 -0.13048556557E+03  0.17537571647E+03  0.80705594973E+02 0.  0.
          5    1    5    5  501    0 -0.11279886487E+02 -0.55722072880E+02 -0.90106864975E+02  0.10664671753E+03  0.47000000000E+01 0. -1.
        -11    1    6    6    0    0 -0.20032339327E+02  0.20163514440E+02 -0.86182628386E+01  0.29700780930E+02  0.00000000000E+00 0.  1.
         12    1    6    6    0    0  0.56127573874E+02  0.56738371678E+02 -0.12186730273E+03  0.14567493554E+03  0.00000000000E+00 0. -1.
         -5    1    3    3    0  503 -0.56233178192E+02 -0.38844281454E+01 -0.10536327805E+03  0.11958582471E+03  0.47000000000E+01 0.  1.
         13    1    4    4    0    0 -0.22123593447E+02  0.83244273102E+01 -0.11317629185E+03  0.11561843501E+03  0.00000000000E+00 0. -1.
        -14    1    4    4    0    0  0.53541423579E+02 -0.25619812402E+02 -0.56843557459E+03  0.57152608102E+03  0.00000000000E+00 0.  1.
</event>
<event>
12    1  0.8747122E-002  0.1767529E+03  0.7818608E-02  0.1171156E+00
         21   -1    0    0  503  502  0.00000000000E+00  0.00000000000E+00  0.49643146660E+02  0.49643146660E+02  0.00000000000E+00 0.  1.
         21   -1    0    0  501  503 -0.00000000000E+00 -0.00000000000E+00 -0.14606431411E+04  0.14606431411E+04  0.00000000000E+00 0.  1.
          6    2    1    2  501    0  0.38049165385E+02  0.15630820739E+01 -0.12766349567E+04  0.12888127861E+04  0.17260186173E+03 0.  0.
         24    2    3    3    0    0  0.78086543291E+02  0.24768094192E+02 -0.11098450376E+04  0.11156584291E+04  0.78909798281E+02 0.  0.
         -6    2    1    2    0  502 -0.38049165385E+02 -0.15630820739E+01 -0.13436503772E+03  0.22147350166E+03  0.17189056509E+03 0.  0.
        -24    2    5    5    0    0  0.21503958738E+02  0.52389208005E+02 -0.83025079757E+02  0.12599939271E+03  0.75997590336E+02 0.  0.
          5    1    3    3  501    0 -0.40037377906E+02 -0.23205012118E+02 -0.16678991911E+03  0.17315435695E+03  0.47000000000E+01 0. -1.
        -11    1    4    4    0    0  0.66331267578E+01  0.34201573110E+02 -0.56409962506E+03  0.56517442702E+03  0.00000000000E+00 0.  1.
         12    1    4    4    0    0  0.71453416534E+02 -0.94334789184E+01 -0.54574541255E+03  0.55048400211E+03  0.00000000000E+00 0. -1.
         -5    1    5    5    0  502 -0.59553124123E+02 -0.53952290079E+02 -0.51339957965E+02  0.95474108959E+02  0.47000000000E+01 0.  1.
         13    1    6    6    0    0 -0.18418048134E+02 -0.47891469755E+01 -0.20593156126E+01  0.19141609300E+02  0.00000000000E+00 0. -1.
        -14    1    6    6    0    0  0.39922006872E+02  0.57178354980E+02 -0.80965764144E+02  0.10685778341E+03  0.00000000000E+00 0.  1.
</event>
<event>
12    1  0.8747122E-002  0.1978310E+03  0.7818608E-02  0.1152514E+00
         21   -1    0    0  501  502  0.00000000000E+00  0.00000000000E+00  0.61480409951E+02  0.61480409951E+02  0.00000000000E+00 0.  1.
         21   -1    0    0  502  503 -0.00000000000E+00 -0.00000000000E+00 -0.74626716190E+03  0.74626716190E+03  0.00000000000E+00 0. -1.
         -6    2    1    2    0  503  0.69835801062E+02 -0.55232050496E+02 -0.50351842038E+03  0.53942815317E+03  0.17182640734E+03 0.  0.
        -24    2    3    3    0    0 -0.26808486522E+02 -0.24216294861E+02 -0.17391092547E+03  0.19451470588E+03  0.79283270111E+02 0.  0.
          6    2    1    2  501    0 -0.69835801062E+02  0.55232050496E+02 -0.18126833157E+03  0.26831941868E+03  0.17666206129E+03 0.  0.
         24    2    5    5    0    0 -0.47144894131E+02  0.74352578352E+02 -0.44589809412E+02  0.12837807289E+03  0.82108047994E+02 0.  0.
          5    1    5    5  501    0 -0.22690906931E+02 -0.19120527856E+02 -0.13667852216E+03  0.13994134579E+03  0.47000000000E+01 0. -1.
        -13    1    6    6    0    0 -0.59227650484E+02  0.85174449223E+02 -0.42134116344E+02  0.11197269820E+03  0.00000000000E+00 0.  1.
         14    1    6    6    0    0  0.12082756353E+02 -0.10821870872E+02 -0.24556930682E+01  0.16405374689E+02  0.00000000000E+00 0. -1.
         -5    1    3    3    0  503  0.96644287583E+02 -0.31015755635E+02 -0.32960749491E+03  0.34491344729E+03  0.47000000000E+01 0.  1.
         13    1    4    4    0    0 -0.28643700825E+02 -0.40742543155E+02 -0.54015315617E+02  0.73471564166E+02  0.00000000000E+00 0. -1.
        -14    1    4    4    0    0  0.18352143039E+01  0.16526248295E+02 -0.11989560985E+03  0.12104314171E+03  0.00000000000E+00 0.  1.
</event>
<event>
12    1  0.8747122E-002  0.1728715E+03  0.7818608E-02  0.1174973E+00
         21   -1    0    0  501  502  0.00000000000E+00  0.00000000000E+00  0.53456879630E+03  0.53456879630E+03  0.00000000000E+00 0.  1.
         21   -1    0    0  502  503 -0.00000000000E+00 -0.00000000000E+00 -0.97112959902E+02  0.97112959902E+02  0.00000000000E+00 0.  1.
         -6    2    1    2    0  503  0.42883237270E+00 -0.10445423364E+02  0.12586103264E+02  0.17298922089E+03  0.17221373285E+03 0.  0.
        -24    2    3    3    0    0 -0.28422088971E+02  0.38909564490E+02  0.48892865271E+02  0.10510283451E+03  0.79588467739E+02 0.  0.
          6    2    1    2  501    0 -0.42883237270E+00  0.10445423364E+02  0.42486973314E+03  0.45869253532E+03  0.17255509570E+03 0.  0.
         24    2    5    5    0    0  0.19476069499E+02 -0.57756267418E+02  0.22355929990E+03  0.24516114120E+03  0.80063230463E+02 0.  0.
          5    1    5    5  501    0 -0.19904901871E+02  0.68201690782E+02  0.20131043324E+03  0.21353139412E+03  0.47000000000E+01 0. -1.
        -13    1    6    6    0    0  0.35228053935E+02  0.47326081452E+00  0.12251848507E+03  0.12748340654E+03  0.00000000000E+00 0.  1.
         14    1    6    6    0    0 -0.15751984436E+02 -0.58229528233E+02  0.10104081483E+03  0.11767773465E+03  0.00000000000E+00 0. -1.
         -5    1    3    3    0  503  0.28850921343E+02 -0.49354987854E+02 -0.36306762007E+02  0.67886386381E+02  0.47000000000E+01 0.  1.
         13    1    4    4    0    0 -0.99858803834E+01 -0.35959953237E+01  0.57075731003E+02  0.58054182097E+02  0.00000000000E+00 0. -1.
        -14    1    4    4    0    0 -0.18436208587E+02  0.42505559814E+02 -0.81828657323E+01  0.47048652412E+02  0.00000000000E+00 0.  1.
</event>
<event>
12    1  0.8747122E-002  0.2216213E+03  0.7818608E-02  0.1132716E+00
         21   -1    0    0  503  502  0.00000000000E+00  0.00000000000E+00  0.33037170049E+03  0.33037170049E+03  0.00000000000E+00 0. -1.
         21   -1    0    0  501  503 -0.00000000000E+00 -0.00000000000E+00 -0.15590850949E+03  0.15590850949E+03  0.00000000000E+00 0. -1.
          6    2    1    2  501    0  0.13944286806E+03 -0.49416454930E+00  0.34336915999E+02  0.22407537088E+03  0.17200636727E+03 0.  0.
         24    2    3    3    0    0  0.12476593706E+02 -0.18366365604E+01  0.51495452092E+02  0.95861711639E+02  0.79866435678E+02 0.  0.
         -6    2    1    2    0  502 -0.13944286806E+03  0.49416454930E+00  0.14012627501E+03  0.26220483910E+03  0.17225401896E+03 0.  0.
        -24    2    5    5    0    0 -0.13689793344E+03  0.32848960280E+02  0.15665277560E+03  0.22548257445E+03  0.80512116529E+02 0.  0.
          5    1    3    3  501    0  0.12696627435E+03  0.13424720111E+01 -0.17158536092E+02  0.12821365924E+03  0.47000000000E+01 0. -1.
        -13    1    4    4    0    0  0.27176738875E+02 -0.21162730537E+02  0.60783294497E+02  0.69864477308E+02  0.00000000000E+00 0.  1.
         14    1    4    4    0    0 -0.14700145168E+02  0.19326093976E+02 -0.92878424048E+01  0.25997234332E+02  0.00000000000E+00 0. -1.
         -5    1    5    5    0  502 -0.25449346214E+01 -0.32354795730E+02 -0.16526500593E+02  0.36722264647E+02  0.47000000000E+01 0.  1.
         11    1    6    6    0    0 -0.14257501117E+03  0.30278249881E+02  0.12142029350E+03  0.18970317314E+03  0.00000000000E+00 0. -1.
        -12    1    6    6    0    0  0.56770777290E+01  0.25707103991E+01  0.35232482102E+02  0.35779401316E+02  0.00000000000E+00 0.  1.
</event>
<event>
12    1  0.8747122E-002  0.1804806E+03  0.7818608E-02  0.1167770E+00
         21   -1    0    0  503  502  0.00000000000E+00  0.00000000000E+00  0.34354718809E+03  0.34354718809E+03  0.00000000000E+00 0.  1.
         21   -1    0    0  501  503 -0.00000000000E+00 -0.00000000000E+00 -0.10024405244E+03  0.10024405244E+03  0.00000000000E+00 0.  1.
          6    2    1    2  501    0  0.39347165944E+02  0.29447272450E+02  0.17698690591E+03  0.25151257783E+03  0.17181056609E+03 0.  0.
         24    2    3    3    0    0  0.28061818534E+02 -0.32164755768E+01  0.19473526016E+03  0.21237980921E+03  0.79909639178E+02 0.  0.
         -6    2    1    2    0  502 -0.39347165944E+02 -0.29447272450E+02  0.66316229739E+02  0.19227866270E+03  0.17366030197E+03 0.  0.
        -24    2    5    5    0    0 -0.34873106496E+02 -0.15722615424E+02 -0.32030214521E+02  0.92767374314E+02  0.78208163911E+02 0.  0.
          5    1    3    3  501    0  0.11285347410E+02  0.32663748027E+02 -0.17748354252E+02  0.39132768621E+02  0.47000000000E+01 0. -1.
        -11    1    4    4    0    0  0.10004682646E+02  0.29816510282E+02  0.30233959447E+02  0.43625798149E+02  0.00000000000E+00 0.  1.
         12    1    4    4    0    0  0.18057135888E+02 -0.33032985859E+02  0.16450130072E+03  0.16875401106E+03  0.00000000000E+00 0. -1.
         -5    1    5    5    0  502 -0.44740594477E+01 -0.13724657026E+02  0.98346444260E+02  0.99511288390E+02  0.47000000000E+01 0.  1.
         13    1    6    6    0    0  0.28424954133E+01  0.25960835068E+02  0.33749866252E+01  0.26333159179E+02  0.00000000000E+00 0. -1.
        -14    1    6    6    0    0 -0.37715601910E+02 -0.41683450493E+02 -0.35405201146E+02  0.66434215135E+02  0.00000000000E+00 0.  1.
</event>
<event>
12    1  0.8747122E-002  0.1904485E+03  0.7818608E-02  0.1158279E+00
         21   -1    0    0  501  502  0.00000000000E+00  0.00000000000E+00  0.87484578240E+02  0.87484578240E+02  0.00000000000E+00 0.  1.
         21   -1    0    0  502  503 -0.00000000000E+00 -0.00000000000E+00 -0.64997139060E+03  0.64997139060E+03  0.00000000000E+00 0.  1.
         -6    2    1    2    0  503 -0.49408290370E+02 -0.63112317247E+02 -0.50459955907E+03  0.53934342747E+03  0.17276074205E+03 0.  0.
        -24    2    3    3    0    0  0.24881682553E+02 -0.33008556031E+01 -0.32743927902E+03  0.33808671119E+03  0.80350165287E+02 0.  0.
          6    2    1    2  501    0  0.49408290370E+02  0.63112317247E+02 -0.57887253285E+02  0.19811254137E+03  0.17167789959E+03 0.  0.
         24    2    5    5    0    0  0.44555266810E+02  0.66981899265E+02 -0.10353499494E+03  0.15180561078E+03  0.76509487360E+02 0.  0.
          5    1    5    5  501    0  0.48530235595E+01 -0.38695820185E+01  0.45647741654E+02  0.46306930591E+02  0.47000000000E+01 0. -1.
        -13    1    6    6    0    0  0.54220556831E+02  0.48837350459E+02 -0.36309039889E+02  0.81506453490E+02  0.00000000000E+00 0.  1.
         14    1    6    6    0    0 -0.96652900202E+01  0.18144548806E+02 -0.67225955051E+02  0.70299157285E+02  0.00000000000E+00 0. -1.
         -5    1    3    3    0  503 -0.74289972922E+02 -0.59811461644E+02 -0.17716028005E+03  0.20125671628E+03  0.47000000000E+01 0.  1.
         11    1    4    4    0    0  0.34081317828E+02 -0.35637149489E+02 -0.16528028076E+03  0.17247931429E+03  0.00000000000E+00 0. -1.
        -12    1    4    4    0    0 -0.91996352757E+01  0.32336293886E+02 -0.16215899825E+03  0.16560739690E+03  0.00000000000E+00 0.  1.
</event>
<event>
12    1  0.8747122E-002  0.2781449E+03  0.7818608E-02  0.1096798E+00
         21   -1    0    0  503  502  0.00000000000E+00  0.00000000000E+00  0.13470395307E+04  0.13470395307E+04  0.00000000000E+00 0.  1.
         21   -1    0    0  501  503 -0.00000000000E+00 -0.00000000000E+00 -0.59562000304E+02  0.59562000304E+02  0.00000000000E+00 0. -1.
          6    2    1    2  501    0 -0.48495640083E+02 -0.21290077984E+03  0.78167313879E+03  0.82968518481E+03  0.17229637495E+03 0.  0.
         24    2    3    3    0    0  0.77170573807E+01 -0.30528858641E+02  0.26806762930E+03  0.28175079606E+03  0.80818890212E+02 0.  0.
         -6    2    1    2    0  502  0.48495640083E+02  0.21290077984E+03  0.50580439165E+03  0.57691634624E+03  0.17121862862E+03 0.  0.
        -24    2    5    5    0    0 -0.15997015247E+02  0.10378057664E+03  0.14925731776E+03  0.19847952558E+03  0.78038853034E+02 0.  0.
          5    1    3    3  501    0 -0.56212697464E+02 -0.18237192120E+03  0.51360550949E+03  0.54793438875E+03  0.47000000000E+01 0. -1.
        -11    1    4    4    0    0  0.35483242103E+02 -0.10601055978E+01  0.19509141152E+03  0.19829483892E+03  0.00000000000E+00 0.  1.
         12    1    4    4    0    0 -0.27766184722E+02 -0.29468753043E+02  0.72976217788E+02  0.83455957143E+02  0.00000000000E+00 0. -1.
         -5    1    5    5    0  502  0.64492655330E+02  0.10912020319E+03  0.35654707389E+03  0.37843682066E+03  0.47000000000E+01 0.  1.
         13    1    6    6    0    0  0.31049649996E+02  0.53404309034E+02  0.66198176537E+02  0.90544461814E+02  0.00000000000E+00 0. -1.
        -14    1    6    6    0    0 -0.47046665243E+02  0.50376267610E+02  0.83059141227E+02  0.10793506377E+03  0.00000000000E+00 0.  1.
</event>
<event>
12    1  0.8747122E-002  0.2237571E+03  0.7818608E-02  0.1131458E+00
         21   -1    0    0  501  502  0.00000000000E+00  0.00000000000E+00  0.67994840040E+03  0.67994840040E+03  0.00000000000E+00 0. -1.
         21   -1    0    0  502  503 -0.00000000000E+00 -0.00000000000E+00 -0.94863055516E+02  0.94863055516E+02  0.00000000000E+00 0.  1.
         -6    2    1    2    0  503 -0.12091948554E+03  0.70184565183E+02  0.10757801092E+03  0.24827455244E+03  0.17469925525E+03 0.  0.
        -24    2    3    3    0    0 -0.94166556949E+02 -0.51073131632E+01  0.11586161667E+03  0.16780533934E+03  0.76428349438E+02 0.  0.
          6    2    1    2  501    0  0.12091948554E+03 -0.70184565183E+02  0.47750733397E+03  0.52653690348E+03  0.17228018330E+03 0.  0.
         24    2    5    5    0    0  0.25389986311E+01 -0.25867649069E+02  0.26979602433E+03  0.28334149463E+03  0.82564677986E+02 0.  0.
          5    1    5    5  501    0  0.11838048691E+03 -0.44316916114E+02  0.20771130964E+03  0.24319540885E+03  0.47000000000E+01 0. -1.
        -13    1    6    6    0    0  0.19581514334E+02 -0.40048439089E+02  0.74707822825E+02  0.86997540013E+02  0.00000000000E+00 0.  1.
         14    1    6    6    0    0 -0.17042515703E+02  0.14180790020E+02  0.19508820150E+03  0.19634395461E+03  0.00000000000E+00 0. -1.
         -5    1    3    3    0  503 -0.26752928588E+02  0.75291878347E+02 -0.82836057544E+01  0.80469213102E+02  0.47000000000E+01 0.  1.
         13    1    4    4    0    0 -0.26752500153E+02  0.22913813184E+02  0.77958109932E+02  0.85546513683E+02  0.00000000000E+00 0. -1.
        -14    1    4    4    0    0 -0.67414056796E+02 -0.28021126347E+02  0.37903506742E+02  0.82258825659E+02  0.00000000000E+00 0.  1.
</event>
<event>
12    1  0.8747122E-002  0.1743546E+03  0.7818608E-02  0.1173577E+00
         21   -1    0    0  501  502  0.00000000000E+00  0.00000000000E+00  0.19935443360E+03  0.19935443360E+03  0.00000000000E+00 0. -1.
         21   -1    0    0  502  503 -0.00000000000E+00 -0.00000000000E+00 -0.42553720530E+03  0.42553720530E+03  0.00000000000E+00 0. -1.
         -6    2    1    2    0  503 -0.23695939421E+02 -0.28751647113E+01 -0.36359009547E+03  0.40289994164E+03  0.17193266512E+03 0.  0.
        -24    2    3    3    0    0  0.37397786946E+02  0.41022345691E+02 -0.20214105062E+03  0.22472216833E+03  0.80979141005E+02 0.  0.
          6    2    1    2  501    0  0.23695939421E+02  0.28751647113E+01  0.13740732377E+03  0.22199169726E+03  0.17271298998E+03 0.  0.
         24    2    5    5    0    0 -0.10724382537E+02  0.56094381882E+02  0.11586786766E+03  0.15488669141E+03  0.85457196073E+02 0.  0.
          5    1    5    5  501    0  0.34420321958E+02 -0.53219217170E+02  0.21539456111E+02  0.67105005845E+02  0.47000000000E+01 0. -1.
        -13    1    6    6    0    0  0.10093185772E+02 -0.20789343698E+02  0.27399584236E+02  0.35844196556E+02  0.00000000000E+00 0.  1.
         14    1    6    6    0    0 -0.20817568309E+02  0.76883725580E+02  0.88468283423E+02  0.11904249485E+03  0.00000000000E+00 0. -1.
         -5    1    3    3    0  503 -0.61093726367E+02 -0.43897510403E+02 -0.16144904484E+03  0.17817777331E+03  0.47000000000E+01 0.  1.
         13    1    4    4    0    0  0.14222329410E+02 -0.23114378378E+02 -0.84416573163E+02  0.88671906297E+02  0.00000000000E+00 0. -1.
        -14    1    4    4    0    0  0.23175457536E+02  0.64136724070E+02 -0.11772447746E+03  0.13605026204E+03  0.00000000000E+00 0.  1.
</event>
<event>
12    1  0.8747122E-002  0.2241108E+03  0.7818608E-02  0.1131080E+00
         21   -1    0    0  501  502  0.00000000000E+00  0.00000000000E+00  0.14254150716E+03  0.14254150716E+03  0.00000000000E+00 0. -1.
         21   -1    0    0  502  503 -0.00000000000E+00 -0.00000000000E+00 -0.51760785164E+03  0.51760785164E+03  0.00000000000E+00 0. -1.
         -6    2    1    2    0  503  0.73128931687E+02  0.12306634245E+03 -0.37477292662E+03  0.43603839737E+03  0.17082614600E+03 0.  0.
        -24    2    3    3    0    0  0.98932738670E+02  0.13997256817E+03 -0.29748036548E+03  0.35268441167E+03  0.80695227681E+02 0.  0.
          6    2    1    2  501    0 -0.73128931687E+02 -0.12306634245E+03 -0.29341785802E+00  0.22411096144E+03  0.17243106347E+03 0.  0.
         24    2    5    5    0    0 -0.33523696123E+02 -0.23406189470E+02  0.52120299623E+02  0.10465382036E+03  0.81019803601E+02 0.  0.
          5    1    5    5  501    0 -0.39605235564E+02 -0.99660152976E+02 -0.52413717481E+02  0.11945714108E+03  0.47000000000E+01 0. -1.
        -13    1    6    6    0    0 -0.41295477935E+01  0.10685908579E+02 -0.17995191180E+02  0.21332339599E+02  0.00000000000E+00 0.  1.
         14    1    6    6    0    0 -0.29394148330E+02 -0.34092098049E+02  0.70115490804E+02  0.83321480760E+02  0.00000000000E+00 0. -1.
         -5    1    3    3    0  503 -0.25803806983E+02 -0.16906225727E+02 -0.77292561144E+02  0.83353985696E+02  0.47000000000E+01 0.  1.
         11    1    4    4    0    0  0.74589574702E+02  0.14231909980E+03 -0.27926079714E+03  0.32218771492E+03  0.00000000000E+00 0. -1.
        -12    1    4    4    0    0  0.24343163968E+02 -0.23465316288E+01 -0.18219568331E+02  0.30496696752E+02  0.00000000000E+00 0.  1.
</event>
<event>
12    1  0.8747122E-002  0.2283630E+03  0.7818608E-02  0.1128168E+00
         21   -1    0    0  503  502  0.00000000000E+00  0.00000000000E+00  0.10255618955E+03  0.10255618955E+03  0.00000000000E+00 0. -1.
         21   -1    0    0  501  503 -0.00000000000E+00 -0.00000000000E+00 -0.69513165650E+03  0.69513165650E+03  0.00000000000E+00 0.  1.
          6    2    1    2  501    0  0.34113104010E+01  0.14921438546E+03 -0.88069213743E+02  0.24475673261E+03  0.17283836924E+03 0.  0.
         24    2    3    3    0    0  0.69057399324E+02  0.11360249956E+03 -0.65001115525E+02  0.16645065007E+03  0.76198566784E+02 0.  0.
         -6    2    1    2    0  502 -0.34113104010E+01 -0.14921438546E+03 -0.50450625321E+03  0.55293111343E+03  0.17008729174E+03 0.  0.
        -24    2    5    5    0    0  0.21088620976E+02 -0.85087468171E+02 -0.14522087231E+03  0.18711615600E+03  0.78985738626E+02 0.  0.
          5    1    3    3  501    0 -0.65646088923E+02  0.35611885900E+02 -0.23068098218E+02  0.78306082545E+02  0.47000000000E+01 0. -1.
        -11    1    4    4    0    0  0.14033207108E+02 -0.70563308603E+01 -0.22016185242E+02  0.27045057211E+02  0.00000000000E+00 0.  1.
         12    1    4    4    0    0  0.55024192215E+02  0.12065883042E+03 -0.42984930284E+02  0.13940559286E+03  0.00000000000E+00 0. -1.
         -5    1    5    5    0  502 -0.24499931377E+02 -0.64126917293E+02 -0.35928538090E+03  0.36581495744E+03  0.47000000000E+01 0.  1.
         11    1    6    6    0    0 -0.28672957273E+02 -0.16039879794E+02 -0.38498506099E+02  0.50611769327E+02  0.00000000000E+00 0. -1.
        -12    1    6    6    0    0  0.49761578248E+02 -0.69047588377E+02 -0.10672236621E+03  0.13650438667E+03  0.00000000000E+00 0.  1.
</event>
<event>
12    1  0.8747122E-002  0.2239902E+03  0.7818608E-02  0.1131104E+00
         21   -1    0    0  501  502  0.00000000000E+00  0.00000000000E+00  0.48425798031E+03  0.48425798031E+03  0.00000000000E+00 0.  1.
         21   -1    0    0  502  503 -0.00000000000E+00 -0.00000000000E+00 -0.10320633594E+03  0.10320633594E+03  0.00000000000E+00 0. -1.
         -6    2    1    2    0  503 -0.14242095096E+03  0.33866331527E+01  0.18820244721E+03  0.29256070120E+03  0.17284792794E+03 0.  0.
        -24    2    3    3    0    0 -0.79752746437E+02 -0.64813360030E+02  0.12688390556E+03  0.18138248176E+03  0.78986118996E+02 0.  0.
          6    2    1    2  501    0  0.14242095096E+03 -0.33866331527E+01  0.19284919715E+03  0.29490361506E+03  0.17170361899E+03 0.  0.
         24    2    5    5    0    0  0.15536330788E+03 -0.35449372321E+02  0.18898896412E+03  0.25979641857E+03  0.79893273266E+02 0.  0.
          5    1    5    5  501    0 -0.12942356923E+02  0.32062739168E+02  0.38602330365E+01  0.35107196482E+02  0.47000000000E+01 0. -1.
        -13    1    6    6    0    0  0.69815891891E+02  0.67917398922E+01  0.12973948891E+03  0.14748803841E+03  0.00000000000E+00 0.  1.
         14    1    6    6    0    0  0.85547415989E+02 -0.42241112213E+02  0.59249475210E+02  0.11230838017E+03  0.00000000000E+00 0. -1.
         -5    1    3    3    0  503 -0.62668204520E+02  0.68199993183E+02  0.61318541650E+02  0.11117821944E+03  0.47000000000E+01 0.  1.
         13    1    4    4    0    0 -0.94388838792E+02 -0.53146377175E+02  0.11942684679E+03  0.16123449392E+03  0.00000000000E+00 0. -1.
        -14    1    4    4    0    0  0.14636092355E+02 -0.11666982855E+02  0.74570587782E+01  0.20147987839E+02  0.00000000000E+00 0.  1.
</event>
<event>
12    1  0.8747122E-002  0.2259543E+03  0.7818608E-02  0.1132462E+00
         21   -1    0    0  503  502  0.00000000000E+00  0.00000000000E+00  0.21541589339E+04  0.21541589339E+04  0.00000000000E+00 0.  1.
         21   -1    0    0  501  503 -0.00000000000E+00 -0.00000000000E+00 -0.44796037112E+02  0.44796037112E+02  0.00000000000E+00 0.  1.
          6    2    1    2  501    0 -0.12869282467E+03 -0.13487726810E+02  0.29073004169E+03  0.36821095896E+03  0.18523388260E+03 0.  0.
         24    2    3    3    0    0 -0.10057299616E+03 -0.76371108942E+02  0.15796774925E+03  0.21856818166E+03  0.82890086228E+02 0.  0.
         -6    2    1    2    0  502  0.12869282467E+03  0.13487726810E+02  0.18186328551E+04  0.18307440120E+04  0.16569373591E+03 0.  0.
        -24    2    5    5    0    0  0.92801018424E+02  0.66850520248E+02  0.14204888414E+04  0.14274121945E+04  0.81461666593E+02 0.  0.
          5    1    3    3  501    0 -0.28119828509E+02  0.62883382132E+02  0.13276229244E+03  0.14964277730E+03  0.47000000000E+01 0. -1.
        -11    1    4    4    0    0 -0.18347252639E+02 -0.17982047334E+02 -0.57094888975E+01  0.26316800132E+02  0.00000000000E+00 0.  1.
         12    1    4    4    0    0 -0.82225743521E+02 -0.58389061608E+02  0.16367723815E+03  0.19225138153E+03  0.00000000000E+00 0. -1.
         -5    1    5    5    0  502  0.35891806245E+02 -0.53362793439E+02  0.39814401364E+03  0.40333181759E+03  0.47000000000E+01 0.  1.
         11    1    6    6    0    0  0.21756032297E+02  0.96090585807E+01  0.71711340155E+02  0.75552466901E+02  0.00000000000E+00 0. -1.
        -12    1    6    6    0    0  0.71044986128E+02  0.57241461668E+02  0.13487775013E+04  0.13518597275E+04  0.00000000000E+00 0.  1.
</event>
<event>
12    1  0.8747122E-002  0.2098494E+03  0.7818608E-02  0.1141746E+00
         21   -1    0    0  503  502  0.00000000000E+00  0.00000000000E+00  0.16435263313E+03  0.16435263313E+03  0.00000000000E+00 0.  1.
         21   -1    0    0  501  503 -0.00000000000E+00 -0.00000000000E+00 -0.27818610248E+03  0.27818610248E+03  0.00000000000E+00 0.  1.
          6    2    1    2  501    0 -0.40236605370E+02  0.11257403070E+03 -0.10021703396E+03  0.23255159010E+03  0.17246707328E+03 0.  0.
         24    2    3    3    0    0 -0.42779213845E+02 -0.26531611663E+01 -0.64730426184E+02  0.11186538569E+03  0.80540275894E+02 0.  0.
         -6    2    1    2    0  502  0.40236605370E+02 -0.11257403070E+03 -0.13616435389E+02  0.20998714550E+03  0.17209676686E+03 0.  0.
        -24    2    5    5    0    0  0.74858407560E+02 -0.26065598679E+02 -0.27482952685E+02  0.11566456974E+03  0.79622756714E+02 0.  0.
          5    1    3    3  501    0  0.25426084755E+01  0.11522719187E+03 -0.35486607774E+02  0.12068620441E+03  0.47000000000E+01 0. -1.
        -13    1    4    4    0    0 -0.10449918420E+02  0.35674787785E+02 -0.11909388365E+02  0.39034917827E+02  0.00000000000E+00 0.  1.
         14    1    4    4    0    0 -0.32329295425E+02 -0.38327948951E+02 -0.52821037819E+02  0.72830467867E+02  0.00000000000E+00 0. -1.
         -5    1    5    5    0  502 -0.34621802190E+02 -0.86508432020E+02  0.13866517296E+02  0.94322575768E+02  0.47000000000E+01 0.  1.
         13    1    6    6    0    0  0.83322267740E+01 -0.36194276155E+01  0.25911130814E+02  0.27457475473E+02  0.00000000000E+00 0. -1.
        -14    1    6    6    0    0  0.66526180786E+02 -0.22446171064E+02 -0.53394083499E+02  0.88207094262E+02  0.00000000000E+00 0.  1.
</event>
<event>
12    1  0.8747122E-002  0.2470312E+03  0.7818608E-02  0.1116393E+00
         21   -1    0    0  501  502  0.00000000000E+00  0.00000000000E+00  0.35020524553E+03  0.35020524553E+03  0.00000000000E+00 0. -1.
         21   -1    0    0  502  503 -0.00000000000E+00 -0.00000000000E+00 -0.16943489074E+03  0.16943489074E+03  0.00000000000E+00 0.  1.
         -6    2    1    2    0  503 -0.12222655110E+02 -0.16753240346E+03  0.80365535971E+02  0.25977498661E+03  0.18112958011E+03 0.  0.
        -24    2    3    3    0    0  0.44461739647E+02 -0.30605270555E+02  0.95196708980E+01  0.95447913580E+02  0.78141865825E+02 0.  0.
          6    2    1    2  501    0  0.12222655110E+02  0.16753240346E+03  0.10040481882E+03  0.25986514966E+03  0.17097446845E+03 0.  0.
         24    2    5    5    0    0  0.12407777498E+02  0.11349836084E+03  0.13567694417E+03  0.19516642589E+03  0.81522204073E+02 0.  0.
          5    1    5    5  501    0 -0.18512238747E+00  0.54034042613E+02 -0.35272125352E+02  0.64698723776E+02  0.47000000000E+01 0. -1.
        -11    1    6    6    0    0 -0.13443167040E+02 -0.11825482118E+00 -0.32633562817E+01  0.13834096230E+02  0.00000000000E+00 0.  1.
         12    1    6    6    0    0  0.25850944538E+02  0.11361661567E+03  0.13894030045E+03  0.18133232966E+03  0.00000000000E+00 0. -1.
         -5    1    3    3    0  503 -0.56684394757E+02 -0.13692713290E+03  0.70845865073E+02  0.16432707303E+03  0.47000000000E+01 0.  1.
         11    1    4    4    0    0 -0.16757739202E+02 -0.26308756902E+00  0.20248112360E+02  0.26284540939E+02  0.00000000000E+00 0. -1.
        -12    1    4    4    0    0  0.61219478849E+02 -0.30342182986E+02 -0.10728441462E+02  0.69163372641E+02  0.00000000000E+00 0.  1.
</event>
<event>
12    1  0.8747122E-002  0.1788680E+03  0.7818608E-02  0.1169180E+00
         21   -1    0    0  503  502  0.00000000000E+00  0.00000000000E+00  0.23962494318E+02  0.23962494318E+02  0.00000000000E+00 0. -1.
         21   -1    0    0  501  503 -0.00000000000E+00 -0.00000000000E+00 -0.13469209974E+04  0.13469209974E+04  0.00000000000E+00 0. -1.
          6    2    1    2  501    0  0.13892480736E+02  0.44706120944E+02 -0.74746929936E+03  0.76857277603E+03  0.17263290619E+03 0.  0.
         24    2    3    3    0    0 -0.18518646329E+02  0.35199126212E+01 -0.17793785622E+03  0.19661566257E+03  0.81489312457E+02 0.  0.
         -6    2    1    2    0  502 -0.13892480736E+02 -0.44706120944E+02 -0.57548920374E+03  0.60231071571E+03  0.17146059711E+03 0.  0.
        -24    2    5    5    0    0 -0.21657534484E+02 -0.93964376896E+02 -0.37106022661E+03  0.39183513867E+03  0.80936587511E+02 0.  0.
          5    1    3    3  501    0  0.32411127065E+02  0.41186208323E+02 -0.56953144314E+03  0.57195711347E+03  0.47000000000E+01 0. -1.
        -11    1    4    4    0    0 -0.23627463815E+02 -0.18889182164E+02 -0.16942726677E+03  0.17210652799E+03  0.00000000000E+00 0.  1.
         12    1    4    4    0    0  0.51088174857E+01  0.22409094786E+02 -0.85105894443E+01  0.24509134581E+02  0.00000000000E+00 0. -1.
         -5    1    5    5    0  502  0.77650537483E+01  0.49258255952E+02 -0.20442897713E+03  0.21047557704E+03  0.47000000000E+01 0.  1.
         11    1    6    6    0    0  0.24511917252E+02 -0.91606756279E+01 -0.48195679270E+02  0.54841367285E+02  0.00000000000E+00 0. -1.
        -12    1    6    6    0    0 -0.46169451736E+02 -0.84803701268E+02 -0.32286454734E+03  0.33699377138E+03  0.00000000000E+00 0.  1.
</event>
<event>
12    1  0.8747122E-002  0.1940112E+03  0.7818608E-02  0.1156192E+00
         21   -1    0    0  501  502  0.00000000000E+00  0.00000000000E+00  0.37671110935E+03  0.37671110935E+03  0.00000000000E+00 0.  1.
         21   -1    0    0  502  503 -0.00000000000E+00 -0.00000000000E+00 -0.10657400751E+03  0.10657400751E+03  0.00000000000E+00 0. -1.
         -6    2    1    2    0  503  0.10394424368E+02  0.75549315380E+02  0.20958123302E+03  0.28559522503E+03  0.17839449602E+03 0.  0.
        -24    2    3    3    0    0 -0.40028021947E+02  0.23716202989E+02  0.37055911696E+02  0.98469141514E+02  0.78475030511E+02 0.  0.
          6    2    1    2  501    0 -0.10394424368E+02 -0.75549315380E+02  0.60555868823E+02  0.19768989184E+03  0.17204225345E+03 0.  0.
         24    2    5    5    0    0  0.45234010818E+02  0.88075193170E+00  0.16924362725E+02  0.93469566011E+02  0.80020211559E+02 0.  0.
          5    1    5    5  501    0 -0.55628435186E+02 -0.76430067312E+02  0.43631506098E+02  0.10422032582E+03  0.47000000000E+01 0. -1.
        -11    1    6    6    0    0  0.29217640908E+02  0.35890498440E+02  0.27123375021E+02  0.53642109308E+02  0.00000000000E+00 0.  1.
         12    1    6    6    0    0  0.16016369911E+02 -0.35009746508E+02 -0.10199012296E+02  0.39827456704E+02  0.00000000000E+00 0. -1.
         -5    1    3    3    0  503  0.50422446315E+02  0.51833112391E+02  0.17252532133E+03  0.18712608351E+03  0.47000000000E+01 0.  1.
         13    1    4    4    0    0 -0.37817845144E+02  0.40708227300E+02 -0.22303049139E+01  0.55608663365E+02  0.00000000000E+00 0. -1.
        -14    1    4    4    0    0 -0.22101768031E+01 -0.16992024310E+02  0.39286216610E+02  0.42860478149E+02  0.00000000000E+00 0.  1.
</event>
<event>
12    1  0.8747122E-002  0.2667267E+03  0.7818608E-02  0.1103205E+00
         21   -1    0    0  501  502  0.00000000000E+00  0.00000000000E+00  0.31500687936E+03  0.31500687936E+03  0.00000000000E+00 0.  1.
         21   -1    0    0  502  503 -0.00000000000E+00 -0.00000000000E+00 -0.22851227145E+03  0.22851227145E+03  0.00000000000E+00 0.  1.
         -6    2    1    2    0  503 -0.11425798525E+03  0.16921114776E+03  0.12755301265E+02  0.26703155710E+03  0.17162708136E+03 0.  0.
        -24    2    3    3    0    0 -0.70419971769E+02  0.63092327674E+02 -0.54037018339E+02  0.13411700048E+03  0.78279986157E+02 0.  0.
          6    2    1    2  501    0  0.11425798525E+03 -0.16921114776E+03  0.73739306644E+02  0.27648759371E+03  0.17123260324E+03 0.  0.
         24    2    5    5    0    0  0.12003007476E+03 -0.96053866532E+02  0.14699196396E+01  0.17338444579E+03  0.80165087499E+02 0.  0.
          5    1    5    5  501    0 -0.57720895132E+01 -0.73157281229E+02  0.72269387004E+02  0.10310314793E+03  0.47000000000E+01 0. -1.
        -13    1    6    6    0    0  0.55064449214E+02 -0.87157202065E+02 -0.18707880477E+02  0.10477812859E+03  0.00000000000E+00 0.  1.
         14    1    6    6    0    0  0.64965625548E+02 -0.88966644663E+01  0.20177800117E+02  0.68606317195E+02  0.00000000000E+00 0. -1.
         -5    1    3    3    0  503 -0.43838013480E+02  0.10611882009E+03  0.66792319604E+02  0.13291455662E+03  0.47000000000E+01 0.  1.
         11    1    4    4    0    0 -0.83111640464E+02  0.36590938550E+02 -0.28472295601E+02  0.95168866660E+02  0.00000000000E+00 0. -1.
        -12    1    4    4    0    0  0.12691668695E+02  0.26501389124E+02 -0.25564722738E+02  0.38948133825E+02  0.00000000000E+00 0.  1.
</event>
<event>
12    1  0.8747122E-002  0.2384451E+03  0.7818608E-02  0.1120912E+00
         21   -1    0    0  501  502  0.00000000000E+00  0.00000000000E+00  0.31654549799E+03  0.31654549799E+03  0.00000000000E+00 0. -1.
         21   -1    0    0  502  503 -0.00000000000E+00 -0.00000000000E+00 -0.22969710763E+03  0.22969710763E+03  0.00000000000E+00 0. -1.
         -6    2    1    2    0  503 -0.83831550732E+02 -0.14073104687E+03 -0.84525836309E+02  0.25298356190E+03  0.17327177825E+03 0.  0.
        -24    2    3    3    0    0 -0.68166627580E+02 -0.14905513745E+03 -0.16873420671E+02  0.18288634624E+03  0.79363594936E+02 0.  0.
          6    2    1    2  501    0  0.83831550732E+02  0.14073104687E+03  0.17137422666E+03  0.29325904372E+03  0.17262324498E+03 0.  0.
         24    2    5    5    0    0  0.77674812954E+01  0.56969768616E+01  0.86021942655E+02  0.11626456610E+03  0.77620135279E+02 0.  0.
          5    1    5    5  501    0  0.76064069437E+02  0.13503407001E+03  0.85352284008E+02  0.17699447762E+03  0.47000000000E+01 0. -1.
        -13    1    6    6    0    0 -0.63970805215E+01  0.24680035644E+02 -0.15533373556E+01  0.25542898338E+02  0.00000000000E+00 0.  1.
         14    1    6    6    0    0  0.14164561817E+02 -0.18983058782E+02  0.87575280010E+02  0.90721667760E+02  0.00000000000E+00 0. -1.
         -5    1    3    3    0  503 -0.15664923152E+02  0.83240905804E+01 -0.67652415637E+02  0.70097215657E+02  0.47000000000E+01 0.  1.
         13    1    4    4    0    0 -0.45678632371E+02 -0.99231854213E+02  0.27306470176E+02  0.11260169474E+03  0.00000000000E+00 0. -1.
        -14    1    4    4    0    0 -0.22487995209E+02 -0.49823283238E+02 -0.44179890847E+02  0.70284651500E+02  0.00000000000E+00 0.  1.
</event>
<event>
12    1  0.8747122E-002  0.2007804E+03  0.7818608E-02  0.1149334E+00
         21   -1    0    0  503  502  0.00000000000E+00  0.00000000000E+00  0.60471032485E+02  0.60471032485E+02  0.00000000000E+00 0. -1.
         21   -1    0    0  501  503 -0.00000000000E+00 -0.00000000000E+00 -0.67212127745E+03  0.67212127745E+03  0.00000000000E+00 0. -1.
          6    2    1    2  501    0 -0.29846135881E+02  0.98258895795E+02 -0.26153045247E+03  0.32898774169E+03  0.17114074378E+03 0.  0.
         24    2    3    3    0    0  0.34555399678E+02  0.23819009226E+02 -0.69422797786E+02  0.11307966985E+03  0.78778588680E+02 0.  0.
         -6    2    1    2    0  502  0.29846135881E+02 -0.98258895795E+02 -0.35011979250E+03  0.40360456825E+03  0.17253166661E+03 0.  0.
        -24    2    5    5    0    0  0.45725899230E+02 -0.62961212762E+02 -0.99820481412E+02  0.15028672750E+03  0.81037027221E+02 0.  0.
          5    1    3    3  501    0 -0.64401535559E+02  0.74439886569E+02 -0.19210765468E+03  0.21590807183E+03  0.47000000000E+01 0. -1.
        -13    1    4    4    0    0  0.12162326419E+02 -0.29079421560E+02 -0.20251286782E+02  0.37465311403E+02  0.00000000000E+00 0.  1.
         14    1    4    4    0    0  0.22393073259E+02  0.52898430786E+02 -0.49171511004E+02  0.75614358452E+02  0.00000000000E+00 0. -1.
         -5    1    5    5    0  502 -0.15879763349E+02 -0.35297683034E+02 -0.25029931108E+03  0.25331784075E+03  0.47000000000E+01 0.  1.
         11    1    6    6    0    0  0.79693945043E+01 -0.72718054523E+02 -0.60816802795E+02  0.95132067173E+02  0.00000000000E+00 0. -1.
        -12    1    6    6    0    0  0.37756504726E+02  0.97568417612E+01 -0.39003678616E+02  0.55154660328E+02  0.00000000000E+00 0.  1.
</event>
<event>
12    1  0.8747122E-002  0.1809210E+03  0.7818608E-02  0.1167487E+00
         21   -1    0    0  503  502  0.00000000000E+00  0.00000000000E+00  0.54901659033E+03  0.54901659033E+03  0.00000000000E+00 0.  1.
         21   -1    0    0  501  503 -0.00000000000E+00 -0.00000000000E+00 -0.11824417241E+03  0.11824417241E+03  0.00000000000E+00 0.  1.
          6    2    1    2  501    0 -0.28489009597E+02  0.46785393550E+02 -0.20374329878E+02  0.18206460960E+03  0.17242944073E+03 0.  0.
         24    2    3    3    0    0 -0.71709117828E+01 -0.40529047556E+02 -0.20956896081E+02  0.92060707994E+02  0.79636403682E+02 0.  0.
         -6    2    1    2    0  502  0.28489009597E+02 -0.46785393550E+02  0.45114674780E+03  0.48519615314E+03  0.16994535078E+03 0.  0.
        -24    2    5    5    0    0  0.83173661804E+02 -0.35608785108E+02  0.34447734014E+03  0.36471470106E+03  0.78525993839E+02 0.  0.
          5    1    3    3  501    0 -0.21318097814E+02  0.87314441107E+02  0.58256620230E+00  0.90003901602E+02  0.47000000000E+01 0. -1.
        -13    1    4    4    0    0  0.27607681259E+02 -0.38647952697E+02 -0.29871638623E+02  0.56108494064E+02  0.00000000000E+00 0.  1.
         14    1    4    4    0    0 -0.34778593042E+02 -0.18810948599E+01  0.89147425418E+01  0.35952213930E+02  0.00000000000E+00 0. -1.
         -5    1    5    5    0  502 -0.54684652206E+02 -0.11176608442E+02  0.10666940766E+03  0.12048145207E+03  0.47000000000E+01 0.  1.
         13    1    6    6    0    0  0.34240158653E+02 -0.56141922684E+02  0.16726041701E+03  0.17972298419E+03  0.00000000000E+00 0. -1.
        -14    1    6    6    0    0  0.48933503151E+02  0.20533137576E+02  0.17721692313E+03  0.18499171687E+03  0.00000000000E+00 0.  1.
</event>
<event>
12    1  0.8747122E-002  0.2510479E+03  0.7818608E-02  0.1112965E+00
         21   -1    0    0  503  502  0.00000000000E+00  0.00000000000E+00  0.34579724960E+03  0.34579724960E+03  0.00000000000E+00 0.  1.
         21   -1    0    0  501  503 -0.00000000000E+00 -0.00000000000E+00 -0.28794029115E+03  0.28794029115E+03  0.00000000000E+00 0.  1.
          6    2    1    2  501    0 -0.30083424486E+02  0.17920407738E+03 -0.16429434493E+03  0.30002948499E+03  0.17322224542E+03 0.  0.
         24    2    3    3    0    0  0.14493205989E+02  0.18167920379E+03 -0.10334774775E+03  0.22433417508E+03  0.80172807326E+02 0.  0.
         -6    2    1    2    0  502  0.30083424486E+02 -0.17920407738E+03  0.22215130338E+03  0.33370805575E+03  0.17026670580E+03 0.  0.
        -24    2    5    5    0    0  0.10049556371E+02 -0.12658842221E+02  0.24427529283E+02  0.74371494371E+02  0.68360625498E+02 0.  0.
          5    1    3    3  501    0 -0.44576630475E+02 -0.24751264063E+01 -0.60946597172E+02  0.75695309908E+02  0.47000000000E+01 0. -1.
        -13    1    4    4    0    0  0.20008545774E+02  0.11532434871E+03 -0.10569811158E+03  0.15770902986E+03  0.00000000000E+00 0.  1.
         14    1    4    4    0    0 -0.55153397848E+01  0.66354855077E+02  0.23503638217E+01  0.66625145218E+02  0.00000000000E+00 0. -1.
         -5    1    5    5    0  502  0.20033868115E+02 -0.16654523516E+03  0.19772377410E+03  0.25933656138E+03  0.47000000000E+01 0.  1.
         11    1    6    6    0    0  0.93470577174E+01  0.12925520373E+02  0.40923306034E+02  0.43922130432E+02  0.00000000000E+00 0. -1.
        -12    1    6    6    0    0  0.70249865335E+00 -0.25584362593E+02 -0.16495776752E+02  0.30449363939E+02  0.00000000000E+00 0.  1.
</event>
<event>
12    1  0.8747122E-002  0.2017227E+03  0.7818608E-02  0.1148608E+00
         21   -1    0    0  501  502  0.00000000000E+00  0.00000000000E+00  0.43847179865E+02  0.43847179865E+02  0.00000000000E+00 0.  1.
         21   -1    0    0  502  503 -0.00000000000E+00 -0.00000000000E+00 -0.95826017468E+03  0.95826017468E+03  0.00000000000E+00 0. -1.
         -6    2    1    2    0  503 -0.10666656215E+02  0.10583290795E+03 -0.55415629950E+03  0.58921882991E+03  0.16963267164E+03 0.  0.
        -24    2    3    3    0    0 -0.68730527433E+02  0.75369889048E+02 -0.39766703422E+03  0.41948259687E+03  0.86151456112E+02 0.  0.
          6    2    1    2  501    0  0.10666656215E+02 -0.10583290795E+03 -0.36025669531E+03  0.41288852463E+03  0.17139914030E+03 0.  0.
         24    2    5    5    0    0  0.69095096001E+02 -0.42226851344E+02 -0.23056882833E+03  0.25700188038E+03  0.79565964184E+02 0.  0.
          5    1    5    5  501    0 -0.58428439785E+02 -0.63606056604E+02 -0.12968786698E+03  0.15588664425E+03  0.47000000000E+01 0. -1.
        -13    1    6    6    0    0 -0.14419416836E+02  0.54430612226E+01 -0.18020124825E+02  0.23712262567E+02  0.00000000000E+00 0.  1.
         14    1    6    6    0    0  0.83514512836E+02 -0.47669912566E+02 -0.21254870350E+03  0.23328961781E+03  0.00000000000E+00 0. -1.
         -5    1    3    3    0  503  0.58063871218E+02  0.30463018900E+02 -0.15648926528E+03  0.16973623305E+03  0.47000000000E+01 0.  1.
         11    1    4    4    0    0 -0.49336343707E+02  0.27900514129E+02 -0.82026346087E+02  0.99703735895E+02  0.00000000000E+00 0. -1.
        -12    1    4    4    0    0 -0.19394183726E+02  0.47469374920E+02 -0.31564068814E+03  0.31977886097E+03  0.00000000000E+00 0.  1.
</event>
<event>
12    1  0.8747122E-002  0.2116650E+03  0.7818608E-02  0.1141053E+00
         21   -1    0    0  501  502  0.00000000000E+00  0.00000000000E+00  0.22694827713E+03  0.22694827713E+03  0.00000000000E+00 0. -1.
         21   -1    0    0  502  503 -0.00000000000E+00 -0.00000000000E+00 -0.24924671737E+03  0.24924671737E+03  0.00000000000E+00 0. -1.
         -6    2    1    2    0  503  0.70897328359E+02  0.93190365163E+02 -0.12349711612E+03  0.24158201594E+03  0.17146269975E+03 0.  0.
        -24    2    3    3    0    0  0.19941113773E+02  0.26005472979E+02 -0.13161160738E+03  0.15673933498E+03  0.78559985305E+02 0.  0.
          6    2    1    2  501    0 -0.70897328359E+02 -0.93190365163E+02  0.10119867588E+03  0.23461297856E+03  0.17632697576E+03 0.  0.
         24    2    5    5    0    0  0.12436856543E+02  0.61143557530E+01  0.50985597160E+02  0.95510652038E+02  0.79565650804E+02 0.  0.
          5    1    5    5  501    0 -0.83334184902E+02 -0.99304720916E+02  0.50213078719E+02  0.13910232652E+03  0.47000000000E+01 0. -1.
        -11    1    6    6    0    0  0.20123082474E+02  0.28453436298E+02  0.60679051937E+02  0.69974879988E+02  0.00000000000E+00 0.  1.
         12    1    6    6    0    0 -0.76862259310E+01 -0.22339080544E+02 -0.96934547771E+01  0.25535772049E+02  0.00000000000E+00 0. -1.
         -5    1    3    3    0  503  0.50956214586E+02  0.67184892184E+02  0.81144912592E+01  0.84842680951E+02  0.47000000000E+01 0.  1.
         13    1    4    4    0    0 -0.26399801429E+01  0.50997142409E+02 -0.86364555894E+02  0.10033202153E+03  0.00000000000E+00 0. -1.
        -14    1    4    4    0    0  0.22581093916E+02 -0.24991669430E+02 -0.45247051485E+02  0.56407313457E+02  0.00000000000E+00 0.  1.
</event>
<event>
12    1  0.8747122E-002  0.2380436E+03  0.7818608E-02  0.1122032E+00
         21   -1    0    0  501  502  0.00000000000E+00  0.00000000000E+00  0.12189585997E+04  0.12189585997E+04  0.00000000000E+00 0. -1.
         21   -1    0    0  502  503 -0.00000000000E+00 -0.00000000000E+00 -0.48716230077E+02  0.48716230077E+02  0.00000000000E+00 0.  1.
         -6    2    1    2    0  503 -0.12178386126E+03  0.98651474463E+02  0.75610540667E+03  0.79269171352E+03  0.17916848052E+03 0.  0.
        -24    2    3    3    0    0 -0.77973646691E+02  0.12649386750E+03  0.41959287199E+03  0.45216666342E+03  0.79472795265E+02 0.  0.
          6    2    1    2  501    0  0.12178386126E+03 -0.98651474463E+02  0.41413696292E+03  0.47498311622E+03  0.17186074120E+03 0.  0.
         24    2    5    5    0    0 -0.54163156150E+01 -0.58280332951E+02  0.17767876134E+03  0.20342412602E+03  0.79910569604E+02 0.  0.
          5    1    5    5  501    0  0.12720017687E+03 -0.40371141512E+02  0.23645820158E+03  0.27155899020E+03  0.47000000000E+01 0. -1.
        -11    1    6    6    0    0 -0.12750322291E+02  0.18082725246E+02  0.45552871603E+02  0.50642075215E+02  0.00000000000E+00 0.  1.
         12    1    6    6    0    0  0.73340066759E+01 -0.76363058197E+02  0.13212588973E+03  0.15278205081E+03  0.00000000000E+00 0. -1.
         -5    1    3    3    0  503 -0.43810214565E+02 -0.27842393037E+02  0.33651253469E+03  0.34052505011E+03  0.47000000000E+01 0.  1.
         13    1    4    4    0    0 -0.40821367143E+02  0.69453080736E+01  0.77178599967E+02  0.87585144930E+02  0.00000000000E+00 0. -1.
        -14    1    4    4    0    0 -0.37152279548E+02  0.11954855943E+03  0.34241427202E+03  0.36458151849E+03  0.00000000000E+00 0.  1.
</event>
<event>
12    1  0.8747122E-002  0.2305391E+03  0.7818608E-02  0.1126284E+00
         21   -1    0    0  503  502  0.00000000000E+00  0.00000000000E+00  0.23884743504E+03  0.23884743504E+03  0.00000000000E+00 0. -1.
         21   -1    0    0  501  503 -0.00000000000E+00 -0.00000000000E+00 -0.22293887552E+03  0.22293887552E+03  0.00000000000E+00 0. -1.
          6    2    1    2  501    0  0.15221868895E+03  0.16654834784E+02 -0.34983111782E+01  0.23056560323E+03  0.17233788447E+03 0.  0.
         24    2    3    3    0    0  0.36560239381E+02  0.59694582675E+02 -0.13075330747E+01  0.10704966756E+03  0.80980413545E+02 0.  0.
         -6    2    1    2    0  502 -0.15221868895E+03 -0.16654834784E+02  0.19406870702E+02  0.23122070732E+03  0.17215828785E+03 0.  0.
        -24    2    5    5    0    0 -0.15364639517E+03 -0.45651338348E+02 -0.22087505155E+02  0.18036101020E+03  0.79693015205E+02 0.  0.
          5    1    3    3  501    0  0.11565844957E+03 -0.43039747891E+02 -0.21907781035E+01  0.12351593567E+03  0.47000000000E+01 0. -1.
        -11    1    4    4    0    0 -0.22266777664E+02  0.99050124888E+00 -0.79821366341E+01  0.23674986494E+02  0.00000000000E+00 0.  1.
         12    1    4    4    0    0  0.58827017044E+02  0.58704081426E+02  0.66746035594E+01  0.83374681067E+02  0.00000000000E+00 0. -1.
         -5    1    5    5    0  502  0.14277062187E+01  0.28996503564E+02  0.41494375857E+02  0.50859697126E+02  0.47000000000E+01 0.  1.
         13    1    6    6    0    0 -0.86662420106E+02 -0.65777470072E+02 -0.18207862653E+02  0.11031127272E+03  0.00000000000E+00 0. -1.
        -14    1    6    6    0    0 -0.66983975068E+02  0.20126131724E+02 -0.38796425017E+01  0.70049737472E+02  0.00000000000E+00 0.  1.
</event>
<event>
12    1  0.8747122E-002  0.1730057E+03  0.7818608E-02  0.1175169E+00
         21   -1    0    0  503  502  0.00000000000E+00  0.00000000000E+00  0.35161802221E+03  0.35161802221E+03  0.00000000000E+00 0.  1.
         21   -1    0    0  501  503 -0.00000000000E+00 -0.00000000000E+00 -0.18512366390E+03  0.18512366390E+03  0.00000000000E+00 0.  1.
          6    2    1    2  501    0 -0.49018387098E+01 -0.10861484905E+02 -0.11496819831E+03  0.20635986499E+03  0.17095235412E+03 0.  0.
         24    2    3    3    0    0 -0.51105013204E+02 -0.51207722228E+02 -0.97751922073E+02  0.14247682838E+03  0.74231092977E+02 0.  0.
         -6    2    1    2    0  502  0.49018387098E+01  0.10861484905E+02  0.28146255661E+03  0.33038182112E+03  0.17259483501E+03 0.  0.
        -24    2    5    5    0    0  0.28104484902E+02 -0.54687228739E+02  0.19620514685E+03  0.22026409970E+03  0.78988979657E+02 0.  0.
          5    1    3    3  501    0  0.46203174494E+02  0.40346237324E+02 -0.17216276232E+02  0.63883036612E+02  0.47000000000E+01 0. -1.
        -13    1    4    4    0    0  0.64635608691E+01  0.13180267305E+01 -0.51363051772E+02  0.51784919628E+02  0.00000000000E+00 0.  1.
         14    1    4    4    0    0 -0.57568574073E+02 -0.52525748959E+02 -0.46388870302E+02  0.90691908748E+02  0.00000000000E+00 0. -1.
         -5    1    5    5    0  502 -0.23202646192E+02  0.65548713644E+02  0.85257409766E+02  0.11011772142E+03  0.47000000000E+01 0.  1.
         11    1    6    6    0    0 -0.11337854055E+02 -0.56801472146E+02  0.14054754408E+03  0.15201502004E+03  0.00000000000E+00 0. -1.
        -12    1    6    6    0    0  0.39442338957E+02  0.21142434063E+01  0.55657602771E+02  0.68249079655E+02  0.00000000000E+00 0.  1.
</event>
<event>
12    1  0.8747122E-002  0.1739746E+03  0.7818608E-02  0.1174180E+00
         21   -1    0    0  503  502  0.00000000000E+00  0.00000000000E+00  0.37878574455E+03  0.37878574455E+03  0.00000000000E+00 0. -1.
         21   -1    0    0  501  503 -0.00000000000E+00 -0.00000000000E+00 -0.30262794386E+03  0.30262794386E+03  0.00000000000E+00 0. -1.
          6    2    1    2  501    0  0.90669920402E+01  0.45923316560E+01 -0.25474300509E+03  0.30756544448E+03  0.17204419240E+03 0.  0.
         24    2    3    3    0    0  0.36260370826E+02  0.60702048252E+02 -0.14239095073E+03  0.17898529723E+03  0.82225304017E+02 0.  0.
         -6    2    1    2    0  502 -0.90669920402E+01 -0.45923316560E+01  0.33090080578E+03  0.37384824393E+03  0.17367747801E+03 0.  0.
        -24    2    5    5    0    0 -0.53874991291E+02  0.43190006358E+02  0.16417501574E+03  0.19465424937E+03  0.78542661451E+02 0.  0.
          5    1    3    3  501    0 -0.27193378786E+02 -0.56109716596E+02 -0.11235205437E+03  0.12858014725E+03  0.47000000000E+01 0. -1.
        -13    1    4    4    0    0  0.53636423198E+02  0.12434197588E+02 -0.91077759198E+02  0.10642665730E+03  0.00000000000E+00 0.  1.
         14    1    4    4    0    0 -0.17376052371E+02  0.48267850664E+02 -0.51313191530E+02  0.72558639932E+02  0.00000000000E+00 0. -1.
         -5    1    5    5    0  502  0.44807999251E+02 -0.47782338014E+02  0.16672579004E+03  0.17919399456E+03  0.47000000000E+01 0.  1.
         11    1    6    6    0    0 -0.33376842844E+02 -0.40118951194E+01  0.12646237274E+03  0.13085427260E+03  0.00000000000E+00 0. -1.
        -12    1    6    6    0    0 -0.20498148447E+02  0.47201901477E+02  0.37712643007E+02  0.63799976767E+02  0.00000000000E+00 0.  1.
</event>
<event>
12    1  0.8747122E-002  0.2211432E+03  0.7818608E-02  0.1133149E+00
         21   -1    0    0  503  502  0.00000000000E+00  0.00000000000E+00  0.23689367927E+02  0.23689367927E+02  0.00000000000E+00 0. -1.
         21   -1    0    0  501  503 -0.00000000000E+00 -0.00000000000E+00 -0.21581282408E+04  0.21581282408E+04  0.00000000000E+00 0.  1.
          6    2    1    2  501    0 -0.79202955491E+02  0.11451610214E+03 -0.83436001374E+03  0.86316913503E+03  0.17180592926E+03 0.  0.
         24    2    3    3    0    0  0.25628584785E+02  0.96153717776E+01 -0.20739913399E+03  0.21888980911E+03  0.64413259660E+02 0.  0.
         -6    2    1    2    0  502  0.79202955491E+02 -0.11451610214E+03 -0.13000788591E+04  0.13186484737E+04  0.17100208017E+03 0.  0.
        -24    2    5    5    0    0  0.62513398109E+02 -0.63245626656E+02 -0.46402901796E+03  0.48084859908E+03  0.89356093796E+02 0.  0.
          5    1    3    3  501    0 -0.10483154028E+03  0.10490073036E+03 -0.62696087975E+03  0.64427932592E+03  0.47000000000E+01 0. -1.
        -11    1    4    4    0    0  0.82016750338E+01 -0.19711291532E+02 -0.15434466952E+03  0.15581424677E+03  0.00000000000E+00 0.  1.
         12    1    4    4    0    0  0.17426909752E+02  0.29326663310E+02 -0.53054464470E+02  0.63075562340E+02  0.00000000000E+00 0. -1.
         -5    1    5    5    0  502  0.16689557383E+02 -0.51270475480E+02 -0.83604984115E+03  0.83779987459E+03  0.47000000000E+01 0.  1.
         13    1    6    6    0    0  0.41340356675E+02  0.56167744755E+01 -0.81105440532E+02  0.91206719760E+02  0.00000000000E+00 0. -1.
        -14    1    6    6    0    0  0.21173041434E+02 -0.68862401131E+02 -0.38292357743E+03  0.38964187932E+03  0.00000000000E+00 0.  1.
</event>
<event>
12    1  0.8747122E-002  0.1814295E+03  0.7818608E-02  0.1166571E+00
         21   -1    0    0  503  502  0.00000000000E+00  0.00000000000E+00  0.29208390048E+03  0.29208390048E+03  0.00000000000E+00 0.  1.
         21   -1    0    0  501  503 -0.00000000000E+00 -0.00000000000E+00 -0.13914411575E+03  0.13914411575E+03  0.00000000000E+00 0.  1.
          6    2    1    2  501    0 -0.18720383144E+02  0.54587051642E+02 -0.18295643454E+02  0.18175208517E+03  0.17137354213E+03 0.  0.
         24    2    3    3    0    0 -0.77834489351E+02  0.36681917822E+02 -0.32540863810E+02  0.11819040117E+03  0.74204395309E+02 0.  0.
         -6    2    1    2    0  502  0.18720383144E+02 -0.54587051642E+02  0.17123542819E+03  0.24947593106E+03  0.17200717823E+03 0.  0.
        -24    2    5    5    0    0  0.11594390701E+02 -0.10328161696E+03  0.12036755682E+03  0.17854236498E+03  0.81163446572E+02 0.  0.
          5    1    3    3  501    0  0.59114106206E+02  0.17905133820E+02  0.14245220356E+02  0.63561683998E+02  0.47000000000E+01 0. -1.
        -11    1    4    4    0    0 -0.55452158460E+02  0.88274360163E+01 -0.52832235237E+02  0.77098058242E+02  0.00000000000E+00 0.  1.
         12    1    4    4    0    0 -0.22382330891E+02  0.27854481806E+02  0.20291371427E+02  0.41092342926E+02  0.00000000000E+00 0. -1.
         -5    1    5    5    0  502  0.71259924433E+01  0.48694565321E+02  0.50867871368E+02  0.70933566085E+02  0.47000000000E+01 0.  1.
         13    1    6    6    0    0 -0.15019553197E+02 -0.28126614661E+01 -0.46420508191E+01  0.15970180918E+02  0.00000000000E+00 0. -1.
        -14    1    6    6    0    0  0.26613943898E+02 -0.10046895550E+03  0.12500960764E+03  0.16257218406E+03  0.00000000000E+00 0.  1.
</event>
<event>
12    1  0.8747122E-002  0.1771772E+03  0.7818608E-02  0.1170735E+00
         21   -1    0    0  503  502  0.00000000000E+00  0.00000000000E+00  0.12226510945E+03  0.12226510945E+03  0.00000000000E+00 0. -1.
         21   -1    0    0  501  503 -0.00000000000E+00 -0.00000000000E+00 -0.47721100366E+03  0.47721100366E+03  0.00000000000E+00 0. -1.
          6    2    1    2  501    0 -0.32619222260E+02  0.22683103727E+02 -0.38147801791E+03  0.42032331765E+03  0.17195254101E+03 0.  0.
         24    2    3    3    0    0 -0.62641044244E+02 -0.39401428484E+00 -0.36450835410E+03  0.37856301760E+03  0.80743807283E+02 0.  0.
         -6    2    1    2    0  502  0.32619222260E+02 -0.22683103727E+02  0.26532123696E+02  0.17915279546E+03  0.17266509108E+03 0.  0.
        -24    2    5    5    0    0  0.58933717412E+01  0.52592116817E+02  0.28026019956E+01  0.95691366556E+02  0.79676348271E+02 0.  0.
          5    1    3    3  501    0  0.30021821983E+02  0.23077118012E+02 -0.16969663817E+02  0.41760300059E+02  0.47000000000E+01 0. -1.
        -11    1    4    4    0    0 -0.82320235844E+01  0.26371001600E+02 -0.41115207169E+02  0.49534394094E+02  0.00000000000E+00 0.  1.
         12    1    4    4    0    0 -0.54409020659E+02 -0.26765015885E+02 -0.32339314693E+03  0.32902862350E+03  0.00000000000E+00 0. -1.
         -5    1    5    5    0  502  0.26725850519E+02 -0.75275220544E+02  0.23729521700E+02  0.83461428900E+02  0.47000000000E+01 0.  1.
         11    1    6    6    0    0  0.29330708776E+02  0.60669256327E+02  0.13441509675E+02  0.68714796972E+02  0.00000000000E+00 0. -1.
        -12    1    6    6    0    0 -0.23437337034E+02 -0.80771395100E+01 -0.10638907680E+02  0.26976569585E+02  0.00000000000E+00 0.  1.
</event>
<event>
12    1  0.8747122E-002  0.2442594E+03  0.7818608E-02  0.1117310E+00
         21   -1    0    0  503  502  0.00000000000E+00  0.00000000000E+00  0.30634855245E+03  0.30634855245E+03  0.00000000000E+00 0. -1.
         21   -1    0    0  501  503 -0.00000000000E+00 -0.00000000000E+00 -0.19363037420E+03  0.19363037420E+03  0.00000000000E+00 0.  1.
          6    2    1    2  501    0 -0.17231793482E+03 -0.72438966931E+01  0.44570690541E+02  0.24829257886E+03  0.17296448641E+03 0.  0.
         24    2    3    3    0    0 -0.17877914790E+03 -0.46172863693E+01  0.80954106448E+02  0.21094971730E+03  0.77219899116E+02 0.  0.
         -6    2    1    2    0  502  0.17231793482E+03  0.72438966931E+01  0.68147487703E+02  0.25168634780E+03  0.17016460527E+03 0.  0.
        -24    2    5    5    0    0  0.47354027895E+02  0.45471724058E+02  0.62560829628E+02  0.12080225568E+03  0.79807555578E+02 0.  0.
          5    1    3    3  501    0  0.64612130792E+01 -0.26266103238E+01 -0.36383415907E+02  0.37342861558E+02  0.47000000000E+01 0. -1.
        -11    1    4    4    0    0 -0.73834864631E+02  0.19318576249E+02  0.91099410797E-01  0.76320396504E+02  0.00000000000E+00 0.  1.
         12    1    4    4    0    0 -0.10494428327E+03 -0.23935862618E+02  0.80863007037E+02  0.13462932079E+03  0.00000000000E+00 0. -1.
         -5    1    5    5    0  502  0.12496390693E+03 -0.38227827365E+02  0.55866580750E+01  0.13088409211E+03  0.47000000000E+01 0.  1.
         13    1    6    6    0    0  0.49521978907E+02  0.25916595019E+02  0.77883804157E+02  0.95864400286E+02  0.00000000000E+00 0. -1.
        -14    1    6    6    0    0 -0.21679510113E+01  0.19555129039E+02 -0.15322974529E+02  0.24937855396E+02  0.00000000000E+00 0.  1.
</event>
<event>
12    1  0.8747122E-002  0.2535020E+03  0.7818608E-02  0.1112552E+00
         21   -1    0    0  501  502  0.00000000000E+00  0.00000000000E+00  0.31881152431E+03  0.31881152431E+03  0.00000000000E+00 0. -1.
         21   -1    0    0  502  503 -0.00000000000E+00 -0.00000000000E+00 -0.57018209696E+03  0.57018209696E+03  0.00000000000E+00 0.  1.
         -6    2    1    2    0  503 -0.23260834574E+02  0.18430049630E+03 -0.48730280383E+03  0.54929707300E+03  0.17249786209E+03 0.  0.
        -24    2    3    3    0    0 -0.73122916774E+02  0.16004396328E+03 -0.41843712975E+03  0.46075794210E+03  0.79039347850E+02 0.  0.
          6    2    1    2  501    0  0.23260834574E+02 -0.18430049630E+03  0.23593223118E+03  0.33969654827E+03  0.15881431873E+03 0.  0.
         24    2    5    5    0    0 -0.44138861121E+02 -0.11540656350E+03  0.13151262454E+03  0.19751836004E+03  0.80318230684E+02 0.  0.
          5    1    5    5  501    0  0.67399695695E+02 -0.68893932807E+02  0.10441960663E+03  0.14217818823E+03  0.47000000000E+01 0. -1.
        -11    1    6    6    0    0 -0.41152845636E+02 -0.33999828476E+02  0.15175743297E+02  0.55496380287E+02  0.00000000000E+00 0.  1.
         12    1    6    6    0    0 -0.29860154846E+01 -0.81406735020E+02  0.11633688125E+03  0.14202197976E+03  0.00000000000E+00 0. -1.
         -5    1    3    3    0  503  0.49862082200E+02  0.24256533020E+02 -0.68865674080E+02  0.88539130908E+02  0.47000000000E+01 0.  1.
         13    1    4    4    0    0 -0.31771204008E+02  0.34660932379E+02 -0.46691615416E+02  0.66263840725E+02  0.00000000000E+00 0. -1.
        -14    1    4    4    0    0 -0.41351712766E+02  0.12538303090E+03 -0.37174551434E+03  0.39449410137E+03  0.00000000000E+00 0.  1.
</event>
<event>
12    1  0.8747122E-002  0.4930956E+03  0.7818608E-02  0.1015724E+00
         21   -1    0    0  501  502  0.00000000000E+00  0.00000000000E+00  0.17314131108E+04  0.17314131108E+04  0.00000000000E+00 0.  1.
         21   -1    0    0  502  503 -0.00000000000E+00 -0.00000000000E+00 -0.14093257469E+03  0.14093257469E+03  0.00000000000E+00 0. -1.
         -6    2    1    2    0  503 -0.19228343340E+03  0.41925526734E+03  0.71317044770E+03  0.86595797723E+03  0.16888822605E+03 0.  0.
        -24    2    3    3    0    0 -0.14399855555E+03  0.18740991122E+03  0.29918637830E+03  0.38900032890E+03  0.77140832878E+02 0.  0.
          6    2    1    2  501    0  0.19228343340E+03 -0.41925526734E+03  0.87731008843E+03  0.10063877083E+04  0.17434256552E+03 0.  0.
         24    2    5    5    0    0  0.18423560796E+03 -0.41128968933E+03  0.88158756178E+03  0.99340292080E+03  0.80936803643E+02 0.  0.
          5    1    5    5  501    0  0.80478254330E+01 -0.79655780149E+01 -0.42774733543E+01  0.12984787469E+02  0.47000000000E+01 0. -1.
        -13    1    6    6    0    0  0.42300617226E+02 -0.11617668029E+03  0.17126966586E+03  0.21123366612E+03  0.00000000000E+00 0.  1.
         14    1    6    6    0    0  0.14193499074E+03 -0.29511300904E+03  0.71031789592E+03  0.78216925468E+03  0.00000000000E+00 0. -1.
         -5    1    3    3    0  503 -0.48284877844E+02  0.23184535612E+03  0.41398406940E+03  0.47695764833E+03  0.47000000000E+01 0.  1.
         11    1    4    4    0    0 -0.27232963643E+02  0.77074485529E+02  0.14430447767E+03  0.16584900634E+03  0.00000000000E+00 0. -1.
        -12    1    4    4    0    0 -0.11676559191E+03  0.11033542569E+03  0.15488190063E+03  0.22315132256E+03  0.00000000000E+00 0.  1.
</event>
<event>
12    1  0.8747122E-002  0.1888937E+03  0.7818608E-02  0.1159519E+00
         21   -1    0    0  501  502  0.00000000000E+00  0.00000000000E+00  0.72174027898E+02  0.72174027898E+02  0.00000000000E+00 0.  1.
         21   -1    0    0  502  503 -0.00000000000E+00 -0.00000000000E+00 -0.12001313807E+04  0.12001313807E+04  0.00000000000E+00 0.  1.
         -6    2    1    2    0  503  0.88690601703E+01  0.78100058808E+02 -0.10521935850E+04  0.10690145853E+04  0.17176310380E+03 0.  0.
        -24    2    3    3    0    0 -0.38053322830E+02  0.84233706953E+02 -0.49187011393E+03  0.50667677409E+03  0.79004883791E+02 0.  0.
          6    2    1    2  501    0 -0.88690601703E+01 -0.78100058808E+02 -0.75763767743E+02  0.20329082325E+03  0.17148973993E+03 0.  0.
         24    2    5    5    0    0  0.45079277147E+01  0.16614632364E+02 -0.71099725543E+02  0.10740724896E+03  0.78643364225E+02 0.  0.
          5    1    5    5  501    0 -0.13376987885E+02 -0.94714691172E+02 -0.46640422006E+01  0.95883574288E+02  0.47000000000E+01 0. -1.
        -13    1    6    6    0    0 -0.32443772715E+02 -0.22089203604E+01 -0.10881890112E+02  0.34291299911E+02  0.00000000000E+00 0.  1.
         14    1    6    6    0    0  0.36951700430E+02  0.18823552725E+02 -0.60217835430E+02  0.73115949052E+02  0.00000000000E+00 0. -1.
         -5    1    3    3    0  503  0.46922383001E+02 -0.61336481455E+01 -0.56032347109E+03  0.56233781121E+03  0.47000000000E+01 0.  1.
         11    1    4    4    0    0  0.86940203078E+01 -0.33230006067E+01 -0.67254316071E+01  0.11483020180E+02  0.00000000000E+00 0. -1.
        -12    1    4    4    0    0 -0.46747343138E+02  0.87556707560E+02 -0.48514468232E+03  0.49519375391E+03  0.00000000000E+00 0.  1.
</event>
<event>
12    1  0.8747122E-002  0.2501783E+03  0.7818608E-02  0.1113498E+00
         21   -1    0    0  503  502  0.00000000000E+00  0.00000000000E+00  0.75025170261E+02  0.75025170261E+02  0.00000000000E+00 0.  1.
         21   -1    0    0  501  503 -0.00000000000E+00 -0.00000000000E+00 -0.11086143122E+04  0.11086143122E+04  0.00000000000E+00 0. -1.
          6    2    1    2  501    0 -0.35460662592E+02  0.17778856197E+03 -0.81612815649E+03  0.85361254255E+03  0.17240351974E+03 0.  0.
         24    2    3    3    0    0  0.10037737281E+02  0.72936534208E+02 -0.22781675373E+03  0.25428254269E+03  0.85665886110E+02 0.  0.
         -6    2    1    2    0  502  0.35460662592E+02 -0.17778856197E+03 -0.21746098548E+03  0.33002693994E+03  0.16959442656E+03 0.  0.
        -24    2    5    5    0    0  0.10255720261E+02 -0.19251807776E+02 -0.10448205912E+03  0.13367134580E+03  0.80471834259E+02 0.  0.
          5    1    3    3  501    0 -0.45498399872E+02  0.10485202777E+03 -0.58831140276E+03  0.59932999986E+03  0.47000000000E+01 0. -1.
        -11    1    4    4    0    0 -0.37924725877E+02  0.32304242243E+02 -0.91931070886E+02  0.10456180323E+03  0.00000000000E+00 0.  1.
         12    1    4    4    0    0  0.47962463157E+02  0.40632291966E+02 -0.13588568285E+03  0.14972073946E+03  0.00000000000E+00 0. -1.
         -5    1    5    5    0  502  0.25204942331E+02 -0.15853675420E+03 -0.11297892636E+03  0.19635559414E+03  0.47000000000E+01 0.  1.
         13    1    6    6    0    0 -0.24714289276E+02  0.19070906827E+02 -0.44629513645E+02  0.54463649068E+02  0.00000000000E+00 0. -1.
        -14    1    6    6    0    0  0.34970009537E+02 -0.38322714603E+02 -0.59852545472E+02  0.79207696728E+02  0.00000000000E+00 0.  1.
</event>
<event>
12    1  0.8747122E-002  0.2457418E+03  0.7818608E-02  0.1116130E+00
         21   -1    0    0  501  502  0.00000000000E+00  0.00000000000E+00  0.16096010123E+03  0.16096010123E+03  0.00000000000E+00 0. -1.
         21   -1    0    0  502  503 -0.00000000000E+00 -0.00000000000E+00 -0.23465403108E+04  0.23465403108E+04  0.00000000000E+00 0.  1.
         -6    2    1    2    0  503  0.56801966426E+02  0.16838648149E+03 -0.22424650909E+04  0.22558897813E+04  0.16973081966E+03 0.  0.
        -24    2    3    3    0    0  0.75669057369E+02  0.87661365113E+02 -0.92371889508E+03  0.93453209679E+03  0.81751584912E+02 0.  0.
          6    2    1    2  501    0 -0.56801966426E+02 -0.16838648149E+03  0.56884881339E+02  0.25161063068E+03  0.16879439921E+03 0.  0.
         24    2    5    5    0    0  0.22341286380E+01 -0.85120755285E+02 -0.22997024766E+02  0.12191232458E+03  0.84161852554E+02 0.  0.
          5    1    5    5  501    0 -0.59036095064E+02 -0.83265726209E+02  0.79881906105E+02  0.12969830610E+03  0.47000000000E+01 0. -1.
        -11    1    6    6    0    0  0.37739374137E+01  0.15116799144E+02 -0.14532563163E+02  0.21306234112E+02  0.00000000000E+00 0.  1.
         12    1    6    6    0    0 -0.15398087756E+01 -0.10023755443E+03 -0.84644616031E+01  0.10060609047E+03  0.00000000000E+00 0. -1.
         -5    1    3    3    0  503 -0.18867090943E+02  0.80725116382E+02 -0.13187461958E+04  0.13213576845E+04  0.47000000000E+01 0.  1.
         13    1    4    4    0    0  0.46520943631E+02  0.14368493842E+02 -0.57242695461E+03  0.57449392528E+03  0.00000000000E+00 0. -1.
        -14    1    4    4    0    0  0.29148113737E+02  0.73292871271E+02 -0.35129194047E+03  0.36003817152E+03  0.00000000000E+00 0.  1.
</event>
<event>
12    1  0.8747122E-002  0.1806972E+03  0.7818608E-02  0.1167192E+00
         21   -1    0    0  503  502  0.00000000000E+00  0.00000000000E+00  0.99560950457E+03  0.99560950457E+03  0.00000000000E+00 0.  1.
         21   -1    0    0  501  503 -0.00000000000E+00 -0.00000000000E+00 -0.36885809674E+02  0.36885809674E+02  0.00000000000E+00 0.  1.
          6    2    1    2  501    0 -0.53844365622E+02  0.17492570236E+02  0.30677238200E+03  0.35603479028E+03  0.17159916029E+03 0.  0.
         24    2    3    3    0    0 -0.67469352807E+02  0.49723963373E+02  0.29853113728E+03  0.31977860331E+03  0.78185223066E+02 0.  0.
         -6    2    1    2    0  502  0.53844365622E+02 -0.17492570236E+02  0.65195131289E+03  0.67646052396E+03  0.17132752368E+03 0.  0.
        -24    2    5    5    0    0 -0.28117505248E+02  0.19810408370E+02  0.25419337481E+03  0.26860916894E+03  0.79709268319E+02 0.  0.
          5    1    3    3  501    0  0.13624987185E+02 -0.32231393137E+02  0.82412447182E+01  0.36256186973E+02  0.47000000000E+01 0. -1.
        -11    1    4    4    0    0 -0.23896387670E+02  0.64305708361E+02  0.18417453794E+03  0.19653631191E+03  0.00000000000E+00 0.  1.
         12    1    4    4    0    0 -0.43572965137E+02 -0.14581744988E+02  0.11435659934E+03  0.12324229140E+03  0.00000000000E+00 0. -1.
         -5    1    5    5    0  502  0.81961870870E+02 -0.37302978606E+02  0.39775793808E+03  0.40785135502E+03  0.47000000000E+01 0.  1.
         11    1    6    6    0    0 -0.30721422405E+02  0.59713488318E+01  0.25249275760E+03  0.25442495051E+03  0.00000000000E+00 0. -1.
        -12    1    6    6    0    0  0.26039171569E+01  0.13839059538E+02  0.17006172145E+01  0.14184218427E+02  0.00000000000E+00 0.  1.
</event>
<event>
12    1  0.8747122E-002  0.2658932E+03  0.7818608E-02  0.1103911E+00
         21   -1    0    0  503  502  0.00000000000E+00  0.00000000000E+00  0.78803468345E+02  0.78803468345E+02  0.00000000000E+00 0. -1.
         21   -1    0    0  501  503 -0.00000000000E+00 -0.00000000000E+00 -0.98446316832E+03  0.98446316832E+03  0.00000000000E+00 0.  1.
          6    2    1    2  501    0  0.19352908316E+03  0.52020758550E+02 -0.61507072768E+03  0.66938705943E+03  0.17206792245E+03 0.  0.
         24    2    3    3    0    0  0.10777685928E+03  0.73262279556E+02 -0.24622155072E+03  0.29007656463E+03  0.80846448970E+02 0.  0.
         -6    2    1    2    0  502 -0.19352908316E+03 -0.52020758550E+02 -0.29058897229E+03  0.39387957723E+03  0.17475555840E+03 0.  0.
        -24    2    5    5    0    0 -0.93061936841E+02  0.33289429423E+02 -0.19600254166E+03  0.23158306303E+03  0.73790301161E+02 0.  0.
          5    1    3    3  501    0  0.85752223880E+02 -0.21241521005E+02 -0.36884917697E+03  0.37931049480E+03  0.47000000000E+01 0. -1.
        -13    1    4    4    0    0  0.28816751052E+02  0.67796385773E+02 -0.13093027291E+03  0.15023145952E+03  0.00000000000E+00 0.  1.
         14    1    4    4    0    0  0.78960108232E+02  0.54658937829E+01 -0.11529127781E+03  0.13984510512E+03  0.00000000000E+00 0. -1.
         -5    1    5    5    0  502 -0.10046714632E+03 -0.85310187974E+02 -0.94586430638E+02  0.16229651421E+03  0.47000000000E+01 0.  1.
         13    1    6    6    0    0 -0.71756551317E+02  0.29223890838E+02 -0.72233501927E+02  0.10592788704E+03  0.00000000000E+00 0. -1.
        -14    1    6    6    0    0 -0.21305385524E+02  0.40655385855E+01 -0.12376903973E+03  0.12565517599E+03  0.00000000000E+00 0.  1.
</event>
<event>
12    1  0.8747122E-002  0.2202550E+03  0.7818608E-02  0.1133951E+00
         21   -1    0    0  503  502  0.00000000000E+00  0.00000000000E+00  0.36833392164E+03  0.36833392164E+03  0.00000000000E+00 0. -1.
         21   -1    0    0  501  503 -0.00000000000E+00 -0.00000000000E+00 -0.20133674416E+03  0.20133674416E+03  0.00000000000E+00 0. -1.
          6    2    1    2  501    0 -0.80536792427E+02  0.11093933114E+03 -0.85164244423E+02  0.23486079913E+03  0.17062513389E+03 0.  0.
         24    2    3    3    0    0 -0.98883139950E+02  0.10534216316E+03 -0.19550323166E+02  0.16633931769E+03  0.80073133870E+02 0.  0.
         -6    2    1    2    0  502  0.80536792427E+02 -0.11093933114E+03  0.25216142190E+03  0.33480986667E+03  0.17239070160E+03 0.  0.
        -24    2    5    5    0    0  0.20290885628E+01 -0.22037058016E+02  0.17314780749E+03  0.19221843988E+03  0.80486124672E+02 0.  0.
          5    1    3    3  501    0  0.18346347523E+02  0.55971679774E+01 -0.65613921256E+02  0.68521481445E+02  0.47000000000E+01 0. -1.
        -11    1    4    4    0    0 -0.70282611760E+02  0.16995205847E+02 -0.97471628359E+01  0.72962248601E+02  0.00000000000E+00 0.  1.
         12    1    4    4    0    0 -0.28600528190E+02  0.88346957311E+02 -0.98031603303E+01  0.93377069087E+02  0.00000000000E+00 0. -1.
         -5    1    5    5    0  502  0.78507703864E+02 -0.88902273120E+02  0.79013614409E+02  0.14259142679E+03  0.47000000000E+01 0.  1.
         11    1    6    6    0    0  0.15292074059E+02 -0.34163418229E+02  0.16987773728E+03  0.17395238514E+03  0.00000000000E+00 0. -1.
        -12    1    6    6    0    0 -0.13262985496E+02  0.12126360213E+02  0.32700702058E+01  0.18266054731E+02  0.00000000000E+00 0.  1.
</event>
<event>
12    1  0.8747122E-002  0.2588604E+03  0.7818608E-02  0.1107940E+00
         21   -1    0    0  503  502  0.00000000000E+00  0.00000000000E+00  0.15225167149E+04  0.15225167149E+04  0.00000000000E+00 0. -1.
         21   -1    0    0  501  503 -0.00000000000E+00 -0.00000000000E+00 -0.47740777798E+02  0.47740777798E+02  0.00000000000E+00 0. -1.
          6    2    1    2  501    0  0.55526575067E+02 -0.18470574147E+03  0.51337690566E+03  0.57461859167E+03  0.17155543465E+03 0.  0.
         24    2    3    3    0    0  0.50044807431E+02 -0.17530647185E+03  0.52285128306E+03  0.55944460495E+03  0.79799498682E+02 0.  0.
         -6    2    1    2    0  502 -0.55526575067E+02  0.18470574147E+03  0.96139903143E+03  0.99563890102E+03  0.17265373473E+03 0.  0.
        -24    2    5    5    0    0 -0.38164984372E+01  0.17549149867E+03  0.86027527843E+03  0.88159093867E+03  0.79480794533E+02 0.  0.
          5    1    3    3  501    0  0.54817676361E+01 -0.93992696141E+01 -0.94743774003E+01  0.15173986715E+02  0.47000000000E+01 0. -1.
        -13    1    4    4    0    0 -0.96244690622E+01 -0.37239027431E+02  0.19473056862E+03  0.19849274527E+03  0.00000000000E+00 0.  1.
         14    1    4    4    0    0  0.59669276493E+02 -0.13806744442E+03  0.32812071444E+03  0.36095185968E+03  0.00000000000E+00 0. -1.
         -5    1    5    5    0  502 -0.51710076630E+02  0.92142427986E+01  0.10112375300E+03  0.11404796235E+03  0.47000000000E+01 0.  1.
         13    1    6    6    0    0 -0.13945479547E+02  0.13698185813E+03  0.48368336725E+03  0.50289969736E+03  0.00000000000E+00 0. -1.
        -14    1    6    6    0    0  0.10128981109E+02  0.38509640536E+02  0.37659191119E+03  0.37869124131E+03  0.00000000000E+00 0.  1.
</event>
<event>
12    1  0.8747122E-002  0.1920596E+03  0.7818608E-02  0.1156809E+00
         21   -1    0    0  501  502  0.00000000000E+00  0.00000000000E+00  0.33134032546E+03  0.33134032546E+03  0.00000000000E+00 0.  1.
         21   -1    0    0  502  503 -0.00000000000E+00 -0.00000000000E+00 -0.27344153684E+03  0.27344153684E+03  0.00000000000E+00 0. -1.
         -6    2    1    2    0  503 -0.60917063472E+02  0.58653284267E+02 -0.20426988435E+03  0.27979064583E+03  0.17148038799E+03 0.  0.
        -24    2    3    3    0    0 -0.26312995043E+02  0.60859066212E+01 -0.19906875454E+03  0.21646677596E+03  0.80623099002E+02 0.  0.
          6    2    1    2  501    0  0.60917063472E+02 -0.58653284267E+02  0.26216867298E+03  0.32499121647E+03  0.17244066028E+03 0.  0.
         24    2    5    5    0    0  0.28863765649E+02 -0.19112058222E+02  0.25964648846E+03  0.27381139747E+03  0.79737034556E+02 0.  0.
          5    1    5    5  501    0  0.32053297822E+02 -0.39541226045E+02  0.25221845189E+01  0.51179819003E+02  0.47000000000E+01 0. -1.
        -13    1    6    6    0    0 -0.68838756752E+01  0.27163346084E+02  0.71821293263E+02  0.77094314192E+02  0.00000000000E+00 0.  1.
         14    1    6    6    0    0  0.35747641325E+02 -0.46275404306E+02  0.18782519519E+03  0.19671708328E+03  0.00000000000E+00 0. -1.
         -5    1    3    3    0  503 -0.34604068428E+02  0.52567377645E+02 -0.52011298142E+01  0.63323869873E+02  0.47000000000E+01 0.  1.
         13    1    4    4    0    0 -0.39729001092E+02  0.31332735597E+02 -0.85455782026E+02  0.99311754236E+02  0.00000000000E+00 0. -1.
        -14    1    4    4    0    0  0.13416006048E+02 -0.25246828976E+02 -0.11361297251E+03  0.11715502172E+03  0.00000000000E+00 0.  1.
</event>
<event>
12    1  0.8747122E-002  0.2180582E+03  0.7818608E-02  0.1135377E+00
         21   -1    0    0  503  502  0.00000000000E+00  0.00000000000E+00  0.58082809100E+02  0.58082809100E+02  0.00000000000E+00 0. -1.
         21   -1    0    0  501  503 -0.00000000000E+00 -0.00000000000E+00 -0.11745531139E+04  0.11745531139E+04  0.00000000000E+00 0. -1.
          6    2    1    2  501    0  0.13259891868E+03  0.19135218940E+02 -0.21879435130E+03  0.30890182148E+03  0.17204864811E+03 0.  0.
         24    2    3    3    0    0  0.45323698245E+02  0.74031719806E+02 -0.13490850222E+03  0.17589988321E+03  0.72149371318E+02 0.  0.
         -6    2    1    2    0  502 -0.13259891868E+03 -0.19135218940E+02 -0.89767595346E+03  0.92373410147E+03  0.17179622513E+03 0.  0.
        -24    2    5    5    0    0 -0.77136384337E+02 -0.30071694398E+02 -0.81674897019E+03  0.82490614070E+03  0.80851295918E+02 0.  0.
          5    1    3    3  501    0  0.87275220435E+02 -0.54896500865E+02 -0.83885849078E+02  0.13300193827E+03  0.47000000000E+01 0. -1.
        -13    1    4    4    0    0  0.14396315815E+01  0.68644377169E+02 -0.81764587577E+02  0.10676877277E+03  0.00000000000E+00 0.  1.
         14    1    4    4    0    0  0.43884066663E+02  0.53873426361E+01 -0.53143914640E+02  0.69131110442E+02  0.00000000000E+00 0. -1.
         -5    1    5    5    0  502 -0.55462534343E+02  0.10936475458E+02 -0.80926983263E+02  0.98827960776E+02  0.47000000000E+01 0.  1.
         11    1    6    6    0    0 -0.92207216357E+02 -0.14191838484E+02 -0.69034610294E+03  0.69662136119E+03  0.00000000000E+00 0. -1.
        -12    1    6    6    0    0  0.15070832020E+02 -0.15879855914E+02 -0.12640286726E+03  0.12828477951E+03  0.00000000000E+00 0.  1.
</event>
<event>
12    1  0.8747122E-002  0.2345471E+03  0.7818608E-02  0.1123965E+00
         21   -1    0    0  501  502  0.00000000000E+00  0.00000000000E+00  0.34716193124E+03  0.34716193124E+03  0.00000000000E+00 0. -1.
         21   -1    0    0  502  503 -0.00000000000E+00 -0.00000000000E+00 -0.21961139335E+03  0.21961139335E+03  0.00000000000E+00 0.  1.
         -6    2    1    2    0  503  0.13987199229E+03  0.74580763169E+02 -0.87780905965E+02  0.25043532320E+03  0.17287538632E+03 0.  0.
        -24    2    3    3    0    0  0.41088754566E+02 -0.24456449715E+02 -0.47113667121E+02  0.10468755511E+03  0.80332950152E+02 0.  0.
          6    2    1    2  501    0 -0.13987199229E+03 -0.74580763169E+02  0.21533144386E+03  0.31633800138E+03  0.16904329606E+03 0.  0.
         24    2    5    5    0    0 -0.14010534485E+02  0.88684144127E+01  0.71471532478E+02  0.10771720687E+03  0.78866170514E+02 0.  0.
          5    1    5    5  501    0 -0.12586145780E+03 -0.83449177582E+02  0.14385991138E+03  0.20862079451E+03  0.47000000000E+01 0. -1.
        -11    1    6    6    0    0  0.28562415854E+02  0.13085546741E+02  0.10285251176E+02  0.33057972181E+02  0.00000000000E+00 0.  1.
         12    1    6    6    0    0 -0.42572950339E+02 -0.42171323284E+01  0.61186281301E+02  0.74659234694E+02  0.00000000000E+00 0. -1.
         -5    1    3    3    0  503  0.98783237719E+02  0.99037212884E+02 -0.40667238845E+02  0.14574776810E+03  0.47000000000E+01 0.  1.
         13    1    4    4    0    0  0.99103772197E+01 -0.34360413141E+02  0.11498367688E+02  0.37564158813E+02  0.00000000000E+00 0. -1.
        -14    1    4    4    0    0  0.31178377346E+02  0.99039634258E+01 -0.58612034809E+02  0.67123396293E+02  0.00000000000E+00 0.  1.
</event>
<event>
12    1  0.8747122E-002  0.1890277E+03  0.7818608E-02  0.1161481E+00
         21   -1    0    0  501  502  0.00000000000E+00  0.00000000000E+00  0.17580360706E+03  0.17580360706E+03  0.00000000000E+00 0.  1.
         21   -1    0    0  502  503 -0.00000000000E+00 -0.00000000000E+00 -0.23435908501E+03  0.23435908501E+03  0.00000000000E+00 0.  1.
         -6    2    1    2    0  503 -0.34308650621E+01  0.78613165554E+02 -0.11428994917E+03  0.21308958472E+03  0.16171944224E+03 0.  0.
        -24    2    3    3    0    0  0.26921331913E+01 -0.21640708022E+02 -0.48987238808E+02  0.93194362729E+02  0.76222515398E+02 0.  0.
          6    2    1    2  501    0  0.34308650621E+01 -0.78613165554E+02  0.55734471221E+02  0.19707310736E+03  0.17187110789E+03 0.  0.
         24    2    5    5    0    0 -0.11016416344E+02 -0.11767223026E+03  0.61369079844E+02  0.15478630930E+03  0.78895642361E+02 0.  0.
          5    1    5    5  501    0  0.14447281406E+02  0.39059064703E+02 -0.56346086225E+01  0.42286798056E+02  0.47000000000E+01 0. -1.
        -11    1    6    6    0    0  0.24406590469E+02 -0.11129531653E+02 -0.15889261439E-01  0.26824399072E+02  0.00000000000E+00 0.  1.
         12    1    6    6    0    0 -0.35423006812E+02 -0.10654269860E+03  0.61384969105E+02  0.12796191023E+03  0.00000000000E+00 0. -1.
         -5    1    3    3    0  503 -0.61229982533E+01  0.10025387358E+03 -0.65302710361E+02  0.11989522199E+03  0.47000000000E+01 0.  1.
         11    1    4    4    0    0  0.16588822601E+02 -0.26659851135E+02 -0.64521058474E+02  0.71755861673E+02  0.00000000000E+00 0. -1.
        -12    1    4    4    0    0 -0.13896689409E+02  0.50191431121E+01  0.15533819666E+02  0.21438501056E+02  0.00000000000E+00 0.  1.
</event>
<event>
12    1  0.8747122E-002  0.2448965E+03  0.7818608E-02  0.1116804E+00
         21   -1    0    0  503  502  0.00000000000E+00  0.00000000000E+00  0.65420507011E+03  0.65420507011E+03  0.00000000000E+00 0. -1.
         21   -1    0    0  501  503 -0.00000000000E+00 -0.00000000000E+00 -0.92329349740E+02  0.92329349740E+02  0.00000000000E+00 0.  1.
          6    2    1    2  501    0  0.15962960630E+03 -0.69243169499E+02  0.23945170497E+03  0.34250752778E+03  0.17233125035E+03 0.  0.
         24    2    3    3    0    0  0.67989824502E+02 -0.43566398236E+02  0.38678710092E+02  0.12027109589E+03  0.80302220393E+02 0.  0.
         -6    2    1    2    0  502 -0.15962960630E+03  0.69243169499E+02  0.32242401540E+03  0.40402689206E+03  0.17030635947E+03 0.  0.
        -24    2    5    5    0    0 -0.62974341995E+02  0.42175550040E+01  0.24136030430E+03  0.26202694166E+03  0.80123443154E+02 0.  0.
          5    1    3    3  501    0  0.91639781796E+02 -0.25676771263E+02  0.20077299488E+03  0.22223643190E+03  0.47000000000E+01 0. -1.
        -13    1    4    4    0    0  0.67863908392E+02  0.14161290948E+01  0.31061335394E+02  0.74647987517E+02  0.00000000000E+00 0.  1.
         14    1    4    4    0    0  0.12591610990E+00 -0.44982527331E+02  0.76173746983E+01  0.45623108368E+02  0.00000000000E+00 0. -1.
         -5    1    5    5    0  502 -0.96655264303E+02  0.65025614495E+02  0.81063711092E+02  0.14199995040E+03  0.47000000000E+01 0.  1.
         11    1    6    6    0    0  0.15733214945E+02 -0.12452020672E+01  0.89640812870E+02  0.91019557858E+02  0.00000000000E+00 0. -1.
        -12    1    6    6    0    0 -0.78707556940E+02  0.54627570712E+01  0.15171949143E+03  0.17100738380E+03  0.00000000000E+00 0.  1.
</event>
<event>
12    1  0.8747122E-002  0.1928978E+03  0.7818608E-02  0.1156652E+00
         21   -1    0    0  503  502  0.00000000000E+00  0.00000000000E+00  0.61589841481E+03  0.61589841481E+03  0.00000000000E+00 0. -1.
         21   -1    0    0  501  503 -0.00000000000E+00 -0.00000000000E+00 -0.22433953505E+03  0.22433953505E+03  0.00000000000E+00 0.  1.
          6    2    1    2  501    0 -0.67174655954E+02  0.51003385613E+02 -0.16499848177E+03  0.25120004057E+03  0.16959711570E+03 0.  0.
         24    2    3    3    0    0 -0.86920958285E+02  0.54205252768E+02 -0.18243751712E+03  0.22424863313E+03  0.80687913526E+02 0.  0.
         -6    2    1    2    0  502  0.67174655954E+02 -0.51003385613E+02  0.55655736153E+03  0.58903790929E+03  0.17348135968E+03 0.  0.
        -24    2    5    5    0    0 -0.40238424282E+01  0.79344566650E+01  0.17864717064E+03  0.19996067042E+03  0.89388540805E+02 0.  0.
          5    1    3    3  501    0  0.19746302332E+02 -0.32018671545E+01  0.17439035358E+02  0.26951407445E+02  0.47000000000E+01 0. -1.
        -11    1    4    4    0    0 -0.36120997312E+02 -0.13529369792E+02 -0.95020768414E+02  0.10255104448E+03  0.00000000000E+00 0.  1.
         12    1    4    4    0    0 -0.50799960973E+02  0.67734622560E+02 -0.87416748709E+02  0.12169758865E+03  0.00000000000E+00 0. -1.
         -5    1    5    5    0  502  0.71198498382E+02 -0.58937842279E+02  0.37791019090E+03  0.38907723887E+03  0.47000000000E+01 0.  1.
         11    1    6    6    0    0  0.22031909734E+02 -0.32076329199E+02  0.10704586458E+03  0.11389957448E+03  0.00000000000E+00 0. -1.
        -12    1    6    6    0    0 -0.26055752162E+02  0.40010785864E+02  0.71601306053E+02  0.86061095942E+02  0.00000000000E+00 0.  1.
</event>
<event>
12    1  0.8747122E-002  0.1781796E+03  0.7818608E-02  0.1169915E+00
         21   -1    0    0  501  502  0.00000000000E+00  0.00000000000E+00  0.11023430241E+04  0.11023430241E+04  0.00000000000E+00 0.  1.
         21   -1    0    0  502  503 -0.00000000000E+00 -0.00000000000E+00 -0.36668877880E+02  0.36668877880E+02  0.00000000000E+00 0.  1.
         -6    2    1    2    0  503 -0.21639397094E+02  0.38800820357E+02  0.26694170009E+03  0.32094524848E+03  0.17255206202E+03 0.  0.
        -24    2    3    3    0    0 -0.29336505659E+02 -0.32025982302E+02  0.82351288890E+02  0.12302761066E+03  0.80422410405E+02 0.  0.
          6    2    1    2  501    0  0.21639397094E+02 -0.38800820357E+02  0.79873244614E+03  0.81806665351E+03  0.17113083269E+03 0.  0.
         24    2    5    5    0    0  0.52975978416E+02 -0.80419019031E+02  0.59379262868E+03  0.60655666658E+03  0.77766515840E+02 0.  0.
          5    1    5    5  501    0 -0.31336581322E+02  0.41618198674E+02  0.20493981746E+03  0.21150998693E+03  0.47000000000E+01 0. -1.
        -11    1    6    6    0    0  0.65051109924E+02 -0.42682297830E+02  0.47502065573E+03  0.48135023509E+03  0.00000000000E+00 0.  1.
         12    1    6    6    0    0 -0.12075131508E+02 -0.37736721201E+02  0.11877197295E+03  0.12520643149E+03  0.00000000000E+00 0. -1.
         -5    1    3    3    0  503  0.76971085646E+01  0.70826802659E+02  0.18459041120E+03  0.19791763782E+03  0.47000000000E+01 0.  1.
         13    1    4    4    0    0 -0.25709541848E+02 -0.11210407829E+02  0.94555169977E+02  0.98627247529E+02  0.00000000000E+00 0. -1.
        -14    1    4    4    0    0 -0.36269638106E+01 -0.20815574473E+02 -0.12203881088E+02  0.24400363127E+02  0.00000000000E+00 0.  1.
</event>
<event>
12    1  0.8747122E-002  0.1822303E+03  0.7818608E-02  0.1166331E+00
         21   -1    0    0  503  502  0.00000000000E+00  0.00000000000E+00  0.77717882143E+03  0.77717882143E+03  0.00000000000E+00 0.  1.
         21   -1    0    0  501  503 -0.00000000000E+00 -0.00000000000E+00 -0.42264640532E+02  0.42264640532E+02  0.00000000000E+00 0.  1.
          6    2    1    2  501    0 -0.49511128369E+02 -0.24570918853E+02  0.39753026069E+03  0.43730789571E+03  0.17364563226E+03 0.  0.
         24    2    3    3    0    0 -0.50276796300E+02 -0.45704260110E+02  0.11904462910E+03  0.15798095222E+03  0.78547577352E+02 0.  0.
         -6    2    1    2    0  502  0.49511128369E+02  0.24570918853E+02  0.33738392022E+03  0.38213556626E+03  0.17071789447E+03 0.  0.
        -24    2    5    5    0    0  0.31998164327E+00  0.50930674384E+02  0.89709515470E+02  0.12820780804E+03  0.76127583009E+02 0.  0.
          5    1    3    3  501    0  0.76566793040E+00  0.21133341257E+02  0.27848563158E+03  0.27932694349E+03  0.47000000000E+01 0. -1.
        -13    1    4    4    0    0 -0.30660505473E+02 -0.21170335240E+01  0.10311623792E+03  0.10759882411E+03  0.00000000000E+00 0.  1.
         14    1    4    4    0    0 -0.19616290827E+02 -0.43587226586E+02  0.15928391181E+02  0.50382128110E+02  0.00000000000E+00 0. -1.
         -5    1    5    5    0  502  0.49191146726E+02 -0.26359755531E+02  0.24767440475E+03  0.25392775822E+03  0.47000000000E+01 0.  1.
         11    1    6    6    0    0  0.25034031631E+02  0.39271801181E+02  0.89487247502E+02  0.10088084344E+03  0.00000000000E+00 0. -1.
        -12    1    6    6    0    0 -0.24714049987E+02  0.11658873203E+02  0.22226796830E+00  0.27326964599E+02  0.00000000000E+00 0.  1.
</event>
<event>
12    1  0.8747122E-002  0.2310472E+03  0.7818608E-02  0.1126012E+00
         21   -1    0    0  501  502  0.00000000000E+00  0.00000000000E+00  0.99353432468E+02  0.99353432468E+02  0.00000000000E+00 0.  1.
         21   -1    0    0  502  503 -0.00000000000E+00 -0.00000000000E+00 -0.55646201983E+03  0.55646201983E+03  0.00000000000E+00 0.  1.
         -6    2    1    2    0  503 -0.32707039341E+02 -0.15084262554E+03 -0.29191510091E+03  0.37228649040E+03  0.17192892918E+03 0.  0.
        -24    2    3    3    0    0 -0.15728991675E+02  0.83289999384E+01 -0.96190381963E+02  0.11939497992E+03  0.68452890588E+02 0.  0.
          6    2    1    2  501    0  0.32707039341E+02  0.15084262554E+03 -0.16519348645E+03  0.28352896190E+03  0.17110387537E+03 0.  0.
         24    2    5    5    0    0  0.89441031201E+01  0.13189980286E+03 -0.45908687385E+02  0.16034429988E+03  0.78263222212E+02 0.  0.
          5    1    5    5  501    0  0.23762936221E+02  0.18942822683E+02 -0.11928479907E+03  0.12318466202E+03  0.47000000000E+01 0. -1.
        -11    1    6    6    0    0  0.42326390912E+02  0.93779297344E+02 -0.28444760366E+02  0.10674822889E+03  0.00000000000E+00 0.  1.
         12    1    6    6    0    0 -0.33382287792E+02  0.38120505518E+02 -0.17463927018E+02  0.53596070994E+02  0.00000000000E+00 0. -1.
         -5    1    3    3    0  503 -0.16978047666E+02 -0.15917162548E+03 -0.19572471895E+03  0.25289151047E+03  0.47000000000E+01 0.  1.
         13    1    4    4    0    0  0.22559727960E+02  0.19587600907E+02 -0.50978765053E+02  0.59088492292E+02  0.00000000000E+00 0. -1.
        -14    1    4    4    0    0 -0.38288719635E+02 -0.11258600969E+02 -0.45211616910E+02  0.60306487633E+02  0.00000000000E+00 0.  1.
</event>
<event>
12    1  0.8747122E-002  0.2135006E+03  0.7818608E-02  0.1138828E+00
         21   -1    0    0  501  502  0.00000000000E+00  0.00000000000E+00  0.76843543306E+03  0.76843543306E+03  0.00000000000E+00 0.  1.
         21   -1    0    0  502  503 -0.00000000000E+00 -0.00000000000E+00 -0.66985945082E+02  0.66985945082E+02  0.00000000000E+00 0. -1.
         -6    2    1    2    0  503 -0.39774885165E+02 -0.11896437594E+03  0.20935965774E+03  0.29902170027E+03  0.17276558313E+03 0.  0.
        -24    2    3    3    0    0 -0.28008039235E+01 -0.11671576121E+03  0.76603045157E+02  0.16111395163E+03  0.80369555592E+02 0.  0.
          6    2    1    2  501    0  0.39774885165E+02  0.11896437594E+03  0.49208983024E+03  0.53639967787E+03  0.17273577845E+03 0.  0.
         24    2    5    5    0    0  0.80906066392E+02  0.11857531362E+03  0.44263781600E+03  0.47190535911E+03  0.78489077160E+02 0.  0.
          5    1    5    5  501    0 -0.41131181227E+02  0.38906232169E+00  0.49452014249E+02  0.64494318757E+02  0.47000000000E+01 0. -1.
        -11    1    6    6    0    0  0.40140072537E+02  0.11594593169E+03  0.33735816436E+03  0.35897801542E+03  0.00000000000E+00 0.  1.
         12    1    6    6    0    0  0.40765993855E+02  0.26293819301E+01  0.10527965164E+03  0.11292734369E+03  0.00000000000E+00 0. -1.
         -5    1    3    3    0  503 -0.36974081241E+02 -0.22486147321E+01  0.13275661258E+03  0.13790774864E+03  0.47000000000E+01 0.  1.
         13    1    4    4    0    0  0.31381233877E+02 -0.39902592203E+02  0.53868432239E+02  0.74018961733E+02  0.00000000000E+00 0. -1.
        -14    1    4    4    0    0 -0.34182037801E+02 -0.76813169005E+02  0.22734612917E+02  0.87094989898E+02  0.00000000000E+00 0.  1.
</event>
<event>
12    1  0.8747122E-002  0.1975891E+03  0.7818608E-02  0.1151950E+00
         21   -1    0    0  501  502  0.00000000000E+00  0.00000000000E+00  0.10503337744E+04  0.10503337744E+04  0.00000000000E+00 0.  1.
         21   -1    0    0  502  503 -0.00000000000E+00 -0.00000000000E+00 -0.62394854018E+02  0.62394854018E+02  0.00000000000E+00 0. -1.
         -6    2    1    2    0  503 -0.93956125859E+02 -0.15677159360E+02  0.13979272673E+03  0.24204022067E+03  0.17311249251E+03 0.  0.
        -24    2    3    3    0    0 -0.32968381242E+02 -0.31402368320E+02  0.21051328165E+02  0.10754710961E+03  0.95132536336E+02 0.  0.
          6    2    1    2  501    0  0.93956125859E+02  0.15677159360E+02  0.84814619365E+03  0.87068840774E+03  0.17225797707E+03 0.  0.
         24    2    5    5    0    0 -0.18249053500E+02  0.21848741221E+02  0.40874948131E+03  0.41712512494E+03  0.78146247089E+02 0.  0.
          5    1    5    5  501    0  0.11220517936E+03 -0.61715818603E+01  0.43939671234E+03  0.45356328281E+03  0.47000000000E+01 0. -1.
        -11    1    6    6    0    0 -0.42219001791E+02  0.11653603451E+02  0.35162409809E+03  0.35434130008E+03  0.00000000000E+00 0.  1.
         12    1    6    6    0    0  0.23969948291E+02  0.10195137770E+02  0.57125383221E+02  0.62783824855E+02  0.00000000000E+00 0. -1.
         -5    1    3    3    0  503 -0.60987744616E+02  0.15725208960E+02  0.11874139856E+03  0.13449311106E+03  0.47000000000E+01 0.  1.
         13    1    4    4    0    0 -0.57773841009E+02  0.77195609161E+00 -0.69648920195E+01  0.58197270915E+02  0.00000000000E+00 0. -1.
        -14    1    4    4    0    0  0.24805459767E+02 -0.32174324411E+02  0.28016220185E+02  0.49349838693E+02  0.00000000000E+00 0.  1.
</event>
<event>
12    1  0.8747122E-002  0.2611142E+03  0.7818608E-02  0.1106511E+00
         21   -1    0    0  503  502  0.00000000000E+00  0.00000000000E+00  0.49215188064E+03  0.49215188064E+03  0.00000000000E+00 0.  1.
         21   -1    0    0  501  503 -0.00000000000E+00 -0.00000000000E+00 -0.29766938223E+03  0.29766938223E+03  0.00000000000E+00 0. -1.
          6    2    1    2  501    0  0.10724325057E+03  0.16455032603E+03 -0.19159501142E+03  0.32386616714E+03  0.17205441356E+03 0.  0.
         24    2    3    3    0    0  0.30164297029E+02  0.13650450357E+03 -0.17987173499E+03  0.24087665909E+03  0.78258287332E+02 0.  0.
         -6    2    1    2    0  502 -0.10724325057E+03 -0.16455032603E+03  0.38607750983E+03  0.46595509573E+03  0.17169852372E+03 0.  0.
        -24    2    5    5    0    0 -0.37618534403E+01 -0.71186399979E+02  0.97823505617E+02  0.14574003802E+03  0.81173058008E+02 0.  0.
          5    1    3    3  501    0  0.77078953538E+02  0.28045822461E+02 -0.11723276436E+02  0.82989508050E+02  0.47000000000E+01 0. -1.
        -11    1    4    4    0    0 -0.52851398695E+01  0.63205207721E+02 -0.29662552792E+02  0.70019268952E+02  0.00000000000E+00 0.  1.
         12    1    4    4    0    0  0.35449436899E+02  0.73299295849E+02 -0.15020918219E+03  0.17085739014E+03  0.00000000000E+00 0. -1.
         -5    1    5    5    0  502 -0.10348139713E+03 -0.93363926052E+02  0.28825400421E+03  0.32021505771E+03  0.47000000000E+01 0.  1.
         11    1    6    6    0    0 -0.10191575328E+02 -0.15311643999E+02 -0.12271091904E+02  0.22110955342E+02  0.00000000000E+00 0. -1.
        -12    1    6    6    0    0  0.64297218876E+01 -0.55874755980E+02  0.11009459752E+03  0.12362908267E+03  0.00000000000E+00 0.  1.
</event>
<event>
12    1  0.8747122E-002  0.2894805E+03  0.7818608E-02  0.1090790E+00
         21   -1    0    0  503  502  0.00000000000E+00  0.00000000000E+00  0.10420634183E+03  0.10420634183E+03  0.00000000000E+00 0. -1.
         21   -1    0    0  501  503 -0.00000000000E+00 -0.00000000000E+00 -0.80811810691E+03  0.80811810691E+03  0.00000000000E+00 0.  1.
          6    2    1    2  501    0 -0.22656440149E+03 -0.48729184058E+02 -0.30710373243E+03  0.42114672911E+03  0.17130646095E+03 0.  0.
         24    2    3    3    0    0 -0.12909162153E+03 -0.14740191549E+02 -0.81167807530E+02  0.17270090683E+03  0.79721203234E+02 0.  0.
         -6    2    1    2    0  502  0.22656440149E+03  0.48729184058E+02 -0.39680803265E+03  0.49117771962E+03  0.17347327195E+03 0.  0.
        -24    2    5    5    0    0  0.11697263809E+03 -0.40568261600E+02 -0.23448897529E+03  0.27587803363E+03  0.76126394881E+02 0.  0.
          5    1    3    3  501    0 -0.97472779958E+02 -0.33988992509E+02 -0.22593592490E+03  0.24844582228E+03  0.47000000000E+01 0. -1.
        -13    1    4    4    0    0  0.10924000672E+02 -0.32346771741E+01 -0.10265270574E+02  0.15335341765E+02  0.00000000000E+00 0.  1.
         14    1    4    4    0    0 -0.14001562221E+03 -0.11505514375E+02 -0.70902536956E+02  0.15736556507E+03  0.00000000000E+00 0. -1.
         -5    1    5    5    0  502  0.10959176341E+03  0.89297445657E+02 -0.16231905736E+03  0.21529968599E+03  0.47000000000E+01 0.  1.
         11    1    6    6    0    0  0.14455323981E+01  0.42195724172E+01  0.47134837144E+01  0.64893207675E+01  0.00000000000E+00 0. -1.
        -12    1    6    6    0    0  0.11552710569E+03 -0.44787834017E+02 -0.23920245900E+03  0.26938871286E+03  0.00000000000E+00 0.  1.
</event>
<event>
12    1  0.8747122E-002  0.2084695E+03  0.7818608E-02  0.1142832E+00
         21   -1    0    0  501  502  0.00000000000E+00  0.00000000000E+00  0.24888351488E+03  0.24888351488E+03  0.00000000000E+00 0.  1.
         21   -1    0    0  502  503 -0.00000000000E+00 -0.00000000000E+00 -0.17568137774E+03  0.17568137774E+03  0.00000000000E+00 0. -1.
         -6    2    1    2    0  503 -0.62668112450E+02  0.99278771530E+02  0.18610111045E+02  0.20929851752E+03  0.17226713676E+03 0.  0.
        -24    2    3    3    0    0 -0.90351782837E+02  0.79799745259E+02 -0.32094912028E+02  0.14815191143E+03  0.79921595818E+02 0.  0.
          6    2    1    2  501    0  0.62668112450E+02 -0.99278771530E+02  0.54592026098E+02  0.21526637510E+03  0.17197603362E+03 0.  0.
         24    2    5    5    0    0  0.42352502612E+02  0.13455095209E+02  0.12951992774E+02  0.93292479989E+02  0.80999744698E+02 0.  0.
          5    1    5    5  501    0  0.20315609838E+02 -0.11273386674E+03  0.41640033324E+02  0.12197389511E+03  0.47000000000E+01 0. -1.
        -13    1    6    6    0    0  0.58126925644E+02 -0.11294949181E+02 -0.40876836289E+01  0.59355071555E+02  0.00000000000E+00 0.  1.
         14    1    6    6    0    0 -0.15774423032E+02  0.24750044390E+02  0.17039676403E+02  0.33937408434E+02  0.00000000000E+00 0. -1.
         -5    1    3    3    0  503  0.27683670387E+02  0.19479026272E+02  0.50705023073E+02  0.61146606083E+02  0.47000000000E+01 0.  1.
         13    1    4    4    0    0  0.10940093549E+02  0.27038449246E+02 -0.14574416570E+02  0.32606395122E+02  0.00000000000E+00 0. -1.
        -14    1    4    4    0    0 -0.10129187639E+03  0.52761296013E+02 -0.17520495458E+02  0.11554551631E+03  0.00000000000E+00 0.  1.
</event>
<event>
12    1  0.8747122E-002  0.1877974E+03  0.7818608E-02  0.1160660E+00
         21   -1    0    0  501  502  0.00000000000E+00  0.00000000000E+00  0.41783601923E+02  0.41783601923E+02  0.00000000000E+00 0.  1.
         21   -1    0    0  502  503 -0.00000000000E+00 -0.00000000000E+00 -0.10949191287E+04  0.10949191287E+04  0.00000000000E+00 0.  1.
         -6    2    1    2    0  503  0.55625915667E+02  0.50486237630E+02 -0.79976781211E+03  0.82132505665E+03  0.17118175346E+03 0.  0.
        -24    2    3    3    0    0  0.90534402218E+01 -0.19800870806E+02 -0.21632146619E+03  0.23179897440E+03  0.80385001941E+02 0.  0.
          6    2    1    2  501    0 -0.55625915667E+02 -0.50486237630E+02 -0.25336771470E+03  0.31537767400E+03  0.17211849326E+03 0.  0.
         24    2    5    5    0    0  0.93131175527E+01 -0.61791269063E+02 -0.81270982618E+02  0.13102947910E+03  0.81601817906E+02 0.  0.
          5    1    5    5  501    0 -0.64939033220E+02  0.11305031434E+02 -0.17209673208E+03  0.18434819490E+03  0.47000000000E+01 0. -1.
        -11    1    6    6    0    0 -0.21276235371E+02 -0.68131743910E+02 -0.59884631980E+02  0.93170713570E+02  0.00000000000E+00 0.  1.
         12    1    6    6    0    0  0.30589352924E+02  0.63404748467E+01 -0.21386350638E+02  0.37858765526E+02  0.00000000000E+00 0. -1.
         -5    1    3    3    0  503  0.46572475445E+02  0.70287108436E+02 -0.58344634592E+03  0.58952608225E+03  0.47000000000E+01 0.  1.
         13    1    4    4    0    0  0.15722555574E+02  0.94174253401E+01 -0.58992909352E+01  0.19253266927E+02  0.00000000000E+00 0. -1.
        -14    1    4    4    0    0 -0.66691153527E+01 -0.29218296147E+02 -0.21042217525E+03  0.21254570748E+03  0.00000000000E+00 0.  1.
</event>
<event>
12    1  0.8747122E-002  0.1804025E+03  0.7818608E-02  0.1167558E+00
         21   -1    0    0  501  502  0.00000000000E+00  0.00000000000E+00  0.94574879648E+03  0.94574879648E+03  0.00000000000E+00 0.  1.
         21   -1    0    0  502  503 -0.00000000000E+00 -0.00000000000E+00 -0.34575056457E+02  0.34575056457E+02  0.00000000000E+00 0.  1.
         -6    2    1    2    0  503  0.19225248319E+02 -0.46462014193E+02  0.50019670200E+03  0.53173469835E+03  0.17325333997E+03 0.  0.
        -24    2    3    3    0    0 -0.35962401556E+02  0.12218582461E+02  0.34904162695E+03  0.36038991193E+03  0.81291101572E+02 0.  0.
          6    2    1    2  501    0 -0.19225248319E+02  0.46462014193E+02  0.41097703802E+03  0.44858915458E+03  0.17263190577E+03 0.  0.
         24    2    5    5    0    0 -0.77334791788E+02  0.46497277133E+02  0.25713764320E+03  0.28407359396E+03  0.80220773087E+02 0.  0.
          5    1    5    5  501    0  0.58109543469E+02 -0.35262940272E-01  0.15383939482E+03  0.16451556062E+03  0.47000000000E+01 0. -1.
        -13    1    6    6    0    0 -0.61033031223E+02  0.20743599106E+02  0.24122664252E+03  0.24969105083E+03  0.00000000000E+00 0.  1.
         14    1    6    6    0    0 -0.16301760565E+02  0.25753678027E+02  0.15911000679E+02  0.34382543129E+02  0.00000000000E+00 0. -1.
         -5    1    3    3    0  503  0.55187649874E+02 -0.58680596654E+02  0.15115507505E+03  0.17134478643E+03  0.47000000000E+01 0.  1.
         11    1    4    4    0    0 -0.12164376275E+02 -0.95131645759E+01  0.30714109205E+03  0.30752906005E+03  0.00000000000E+00 0. -1.
        -12    1    4    4    0    0 -0.23798025280E+02  0.21731747037E+02  0.41900534898E+02  0.52860851878E+02  0.00000000000E+00 0.  1.
</event>
<event>
12    1  0.8747122E-002  0.3085793E+03  0.7818608E-02  0.1081102E+00
         21   -1    0    0  503  502  0.00000000000E+00  0.00000000000E+00  0.11904894410E+03  0.11904894410E+03  0.00000000000E+00 0.  1.
         21   -1    0    0  501  503 -0.00000000000E+00 -0.00000000000E+00 -0.88481831491E+03  0.88481831491E+03  0.00000000000E+00 0.  1.
          6    2    1    2  501    0 -0.25536314589E+03  0.84136459646E+01 -0.54019766749E+03  0.62212111347E+03  0.17303188765E+03 0.  0.
         24    2    3    3    0    0 -0.25361293271E+03 -0.59994922084E+01 -0.39575752607E+03  0.47687702150E+03  0.80200752181E+02 0.  0.
         -6    2    1    2    0  502  0.25536314589E+03 -0.84136459646E+01 -0.22557170332E+03  0.38174614553E+03  0.17194883127E+03 0.  0.
        -24    2    5    5    0    0  0.63433305719E+02 -0.49068316483E+02 -0.77530895881E+02  0.13592499825E+03  0.77672912764E+02 0.  0.
          5    1    3    3  501    0 -0.17502131825E+01  0.14413138173E+02 -0.14444014142E+03  0.14524409197E+03  0.47000000000E+01 0. -1.
        -13    1    4    4    0    0 -0.14752761469E+03  0.65010566532E+01 -0.29566383014E+03  0.33049018334E+03  0.00000000000E+00 0.  1.
         14    1    4    4    0    0 -0.10608531802E+03 -0.12500548862E+02 -0.10009369594E+03  0.14638683816E+03  0.00000000000E+00 0. -1.
         -5    1    5    5    0  502  0.19192984017E+03  0.40654670518E+02 -0.14804080744E+03  0.24582114728E+03  0.47000000000E+01 0.  1.
         13    1    6    6    0    0 -0.50441089707E+01  0.22104740719E+01  0.11316812841E+02  0.12585685671E+02  0.00000000000E+00 0. -1.
        -14    1    6    6    0    0  0.68477414689E+02 -0.51278790555E+02 -0.88847708722E+02  0.12333931258E+03  0.00000000000E+00 0.  1.
</event>
<event>
12    1  0.8747122E-002  0.2127897E+03  0.7818608E-02  0.1139662E+00
         21   -1    0    0  503  502  0.00000000000E+00  0.00000000000E+00  0.91787538689E+03  0.91787538689E+03  0.00000000000E+00 0. -1.
         21   -1    0    0  501  503 -0.00000000000E+00 -0.00000000000E+00 -0.49836735379E+02  0.49836735379E+02  0.00000000000E+00 0.  1.
          6    2    1    2  501    0  0.11789246596E+03 -0.39450129187E+02  0.36954030086E+03  0.42569730109E+03  0.17088947297E+03 0.  0.
         24    2    3    3    0    0 -0.97495100820E+01 -0.16811376006E+02  0.15585188121E+03  0.17571766615E+03  0.78798566034E+02 0.  0.
         -6    2    1    2    0  502 -0.11789246596E+03  0.39450129187E+02  0.49849835065E+03  0.54201482119E+03  0.17269775493E+03 0.  0.
        -24    2    5    5    0    0 -0.96627436326E+02  0.82900508186E+02  0.27705978241E+03  0.31530516893E+03  0.80286180723E+02 0.  0.
          5    1    3    3  501    0  0.12764197604E+03 -0.22638753182E+02  0.21368841965E+03  0.24997963494E+03  0.47000000000E+01 0. -1.
        -11    1    4    4    0    0 -0.16250897180E+02  0.96241109063E+01  0.14590824334E+01  0.18943180605E+02  0.00000000000E+00 0.  1.
         12    1    4    4    0    0  0.65013870979E+01 -0.26435486912E+02  0.15439279878E+03  0.15677448554E+03  0.00000000000E+00 0. -1.
         -5    1    5    5    0  502 -0.21265029631E+02 -0.43450378999E+02  0.22143856825E+03  0.22670965226E+03  0.47000000000E+01 0.  1.
         13    1    6    6    0    0 -0.10432606903E+03  0.48785884150E+02  0.22156320349E+03  0.24970831847E+03  0.00000000000E+00 0. -1.
        -14    1    6    6    0    0  0.76986327001E+01  0.34114624036E+02  0.55496578918E+02  0.65596850459E+02  0.00000000000E+00 0.  1.
</event>
<event>
12    1  0.8747122E-002  0.2066189E+03  0.7818608E-02  0.1146046E+00
         21   -1    0    0  503  502  0.00000000000E+00  0.00000000000E+00  0.40237698786E+03  0.40237698786E+03  0.00000000000E+00 0.  1.
         21   -1    0    0  501  503 -0.00000000000E+00 -0.00000000000E+00 -0.25496723908E+03  0.25496723908E+03  0.00000000000E+00 0. -1.
          6    2    1    2  501    0  0.10411372875E+03  0.19876364352E+01 -0.18044391315E+03  0.27431984909E+03  0.17845939201E+03 0.  0.
         24    2    3    3    0    0  0.11183217747E+03 -0.55078426564E+02 -0.12040896282E+03  0.19099881178E+03  0.80263059890E+02 0.  0.
         -6    2    1    2    0  502 -0.10411372875E+03 -0.19876364352E+01  0.32785366193E+03  0.38302437785E+03  0.16845186606E+03 0.  0.
        -24    2    5    5    0    0 -0.10451291079E+03  0.52323989658E+02  0.25613676012E+03  0.29293932870E+03  0.80911445430E+02 0.  0.
          5    1    3    3  501    0 -0.77184487166E+01  0.57066062999E+02 -0.60034950334E+02  0.83321037310E+02  0.47000000000E+01 0. -1.
        -11    1    4    4    0    0 -0.54937474750E+01  0.75371908600E+01 -0.26777179402E+02  0.28355032077E+02  0.00000000000E+00 0.  1.
         12    1    4    4    0    0  0.11732592494E+03 -0.62615617424E+02 -0.93631783419E+02  0.16264377970E+03  0.00000000000E+00 0. -1.
         -5    1    5    5    0  502  0.39918204245E+00 -0.54311626093E+02  0.71716901812E+02  0.90085049151E+02  0.47000000000E+01 0.  1.
         11    1    6    6    0    0 -0.24196322132E+02  0.55849805957E+02  0.12682112838E+03  0.14067075543E+03  0.00000000000E+00 0. -1.
        -12    1    6    6    0    0 -0.80316588659E+02 -0.35258162991E+01  0.12931563174E+03  0.15226857327E+03  0.00000000000E+00 0.  1.
</event>
<event>
12    1  0.8747122E-002  0.1827439E+03  0.7818608E-02  0.1166677E+00
         21   -1    0    0  501  502  0.00000000000E+00  0.00000000000E+00  0.66944064462E+02  0.66944064462E+02  0.00000000000E+00 0. -1.
         21   -1    0    0  502  503 -0.00000000000E+00 -0.00000000000E+00 -0.58142586308E+03  0.58142586308E+03  0.00000000000E+00 0.  1.
         -6    2    1    2    0  503  0.53612947121E+02  0.29191516700E+02 -0.12690115244E+03  0.22248423156E+03  0.17224644569E+03 0.  0.
        -24    2    3    3    0    0  0.49851523770E+02  0.25155638226E+01 -0.18262485408E+01  0.94454639846E+02  0.80167582732E+02 0.  0.
          6    2    1    2  501    0 -0.53612947121E+02 -0.29191516700E+02 -0.38758064618E+03  0.42588569598E+03  0.16563023881E+03 0.  0.
         24    2    5    5    0    0 -0.59455997365E+02 -0.94826793658E+01 -0.39222764416E+03  0.40429254671E+03  0.77362792426E+02 0.  0.
          5    1    5    5  501    0  0.58430502434E+01 -0.19708837334E+02  0.46469979869E+01  0.21593149272E+02  0.47000000000E+01 0. -1.
        -11    1    6    6    0    0 -0.20509525303E+01 -0.68470581839E+01 -0.26023361349E+03  0.26033175412E+03  0.00000000000E+00 0.  1.
         12    1    6    6    0    0 -0.57405044834E+02 -0.26356211818E+01 -0.13199403067E+03  0.14396079259E+03  0.00000000000E+00 0. -1.
         -5    1    3    3    0  503  0.37614233513E+01  0.26675952877E+02 -0.12507490390E+03  0.12802959171E+03  0.47000000000E+01 0.  1.
         11    1    4    4    0    0 -0.35549687328E+01  0.29211024305E+02 -0.15417034633E+02  0.33220576463E+02  0.00000000000E+00 0. -1.
        -12    1    4    4    0    0  0.53406492503E+02 -0.26695460483E+02  0.13590786092E+02  0.61234063383E+02  0.00000000000E+00 0.  1.
</event>
<event>
12    1  0.8747122E-002  0.2196183E+03  0.7818608E-02  0.1134450E+00
         21   -1    0    0  503  502  0.00000000000E+00  0.00000000000E+00  0.24238980992E+03  0.24238980992E+03  0.00000000000E+00 0.  1.
         21   -1    0    0  501  503 -0.00000000000E+00 -0.00000000000E+00 -0.19976433309E+03  0.19976433309E+03  0.00000000000E+00 0. -1.
          6    2    1    2  501    0  0.70200860531E+02  0.11628380095E+03 -0.16486942921E+01  0.21811749181E+03  0.17065297788E+03 0.  0.
         24    2    3    3    0    0  0.68956150389E+02  0.35828735443E+01  0.53650832826E+01  0.10509390393E+03  0.79045283639E+02 0.  0.
         -6    2    1    2    0  502 -0.70200860531E+02 -0.11628380095E+03  0.44274171125E+02  0.22403665121E+03  0.17257501463E+03 0.  0.
        -24    2    5    5    0    0  0.11721588652E+02 -0.59697264550E+02  0.67661900796E+02  0.12165306033E+03  0.80747602029E+02 0.  0.
          5    1    3    3  501    0  0.12447101413E+01  0.11270092740E+03 -0.70137775746E+01  0.11302358788E+03  0.47000000000E+01 0. -1.
        -13    1    4    4    0    0  0.67677924063E+01 -0.35771933836E+01  0.35004975023E+02  0.35832214597E+02  0.00000000000E+00 0.  1.
         14    1    4    4    0    0  0.62188357983E+02  0.71600669279E+01 -0.29639891741E+02  0.69261689334E+02  0.00000000000E+00 0. -1.
         -5    1    5    5    0  502 -0.81922449183E+02 -0.56586536395E+02 -0.23387729671E+02  0.10238359088E+03  0.47000000000E+01 0.  1.
         13    1    6    6    0    0 -0.11415152759E+02 -0.50048620086E+02  0.20046320337E+01  0.51373034119E+02  0.00000000000E+00 0. -1.
        -14    1    6    6    0    0  0.23136741411E+02 -0.96486444643E+01  0.65657268762E+02  0.70280026212E+02  0.00000000000E+00 0.  1.
</event>
<event>
12    1  0.8747122E-002  0.1821235E+03  0.7818608E-02  0.1166127E+00
         21   -1    0    0  501  502  0.00000000000E+00  0.00000000000E+00  0.51403474062E+03  0.51403474062E+03  0.00000000000E+00 0.  1.
         21   -1    0    0  502  503 -0.00000000000E+00 -0.00000000000E+00 -0.77686664904E+02  0.77686664904E+02  0.00000000000E+00 0.  1.
         -6    2    1    2    0  503 -0.27290851188E+02  0.44287889255E+02  0.94697579298E+02  0.20527203798E+03  0.17453587127E+03 0.  0.
        -24    2    3    3    0    0  0.17512238209E+02  0.24851701438E+02  0.12264839895E+03  0.14880593722E+03  0.78589386290E+02 0.  0.
          6    2    1    2  501    0  0.27290851188E+02 -0.44287889255E+02  0.34165049642E+03  0.38644936754E+03  0.17295040987E+03 0.  0.
         24    2    5    5    0    0  0.30068304749E+02  0.29172504970E+02  0.26619690202E+03  0.28100042883E+03  0.79657468940E+02 0.  0.
          5    1    5    5  501    0 -0.27774535611E+01 -0.73460394225E+02  0.75453594394E+02  0.10544893871E+03  0.47000000000E+01 0. -1.
        -13    1    6    6    0    0  0.19764887012E+02 -0.20046525785E+02  0.17135522838E+03  0.17365232002E+03  0.00000000000E+00 0.  1.
         14    1    6    6    0    0  0.10303417737E+02  0.49219030755E+02  0.94841673644E+02  0.10734810881E+03  0.00000000000E+00 0. -1.
         -5    1    3    3    0  503 -0.44803089397E+02  0.19436187817E+02 -0.27950819648E+02  0.56466100762E+02  0.47000000000E+01 0.  1.
         11    1    4    4    0    0 -0.69194853681E+01  0.70378986443E+00  0.11287777763E+03  0.11309185329E+03  0.00000000000E+00 0. -1.
        -12    1    4    4    0    0  0.24431723577E+02  0.24147911573E+02  0.97706213166E+01  0.35714083933E+02  0.00000000000E+00 0.  1.
</event>
<event>
12    1  0.8747122E-002  0.1788381E+03  0.7818608E-02  0.1169886E+00
         21   -1    0    0  503  502  0.00000000000E+00  0.00000000000E+00  0.47938518959E+03  0.47938518959E+03  0.00000000000E+00 0. -1.
         21   -1    0    0  501  503 -0.00000000000E+00 -0.00000000000E+00 -0.12450045324E+03  0.12450045324E+03  0.00000000000E+00 0. -1.
          6    2    1    2  501    0  0.81946232406E+00  0.25029697268E+02 -0.31806088940E+02  0.17784236237E+03  0.17317367380E+03 0.  0.
         24    2    3    3    0    0  0.58720609353E+02  0.38745317884E+02  0.89421582151E+01  0.10557085539E+03  0.78204435248E+02 0.  0.
         -6    2    1    2    0  502 -0.81946232406E+00 -0.25029697268E+02  0.38669082529E+03  0.42604328046E+03  0.17707604355E+03 0.  0.
        -24    2    5    5    0    0  0.38415530705E+02 -0.65886595382E+02  0.17550442003E+03  0.20734152334E+03  0.79824240679E+02 0.  0.
          5    1    3    3  501    0 -0.57901147029E+02 -0.13715620616E+02 -0.40748247155E+02  0.72271506988E+02  0.47000000000E+01 0. -1.
        -11    1    4    4    0    0  0.26834974552E+02  0.48899883733E+02  0.32583400389E+02  0.64598703309E+02  0.00000000000E+00 0.  1.
         12    1    4    4    0    0  0.31885634801E+02 -0.10154565849E+02 -0.23641242174E+02  0.40972152076E+02  0.00000000000E+00 0. -1.
         -5    1    5    5    0  502 -0.39234993029E+02  0.40856898114E+02  0.21118640526E+03  0.21870175713E+03  0.47000000000E+01 0.  1.
         11    1    6    6    0    0  0.15965483109E+02 -0.49674843692E+02  0.17162286439E+03  0.17937919146E+03  0.00000000000E+00 0. -1.
        -12    1    6    6    0    0  0.22450047597E+02 -0.16211751690E+02  0.38815556382E+01  0.27962331879E+02  0.00000000000E+00 0.  1.
</event>
<event>
12    1  0.8747122E-002  0.2340896E+03  0.7818608E-02  0.1123925E+00
         21   -1    0    0  503  502  0.00000000000E+00  0.00000000000E+00  0.16818387170E+03  0.16818387170E+03  0.00000000000E+00 0.  1.
         21   -1    0    0  501  503 -0.00000000000E+00 -0.00000000000E+00 -0.51851441691E+03  0.51851441691E+03  0.00000000000E+00 0.  1.
          6    2    1    2  501    0 -0.90767849454E+02 -0.12845873589E+03 -0.38522716087E+03  0.45077477926E+03  0.17337095151E+03 0.  0.
         24    2    3    3    0    0 -0.87293740982E+02 -0.93088014897E+02 -0.14350118902E+03  0.20640478765E+03  0.75662205776E+02 0.  0.
         -6    2    1    2    0  502  0.90767849454E+02  0.12845873589E+03  0.34896615653E+02  0.23592350934E+03  0.17234175105E+03 0.  0.
        -24    2    5    5    0    0  0.10396913967E+03  0.45985351046E+02  0.56350410217E+02  0.14956096786E+03  0.79176258186E+02 0.  0.
          5    1    3    3  501    0 -0.34741084721E+01 -0.35370720994E+02 -0.24172597185E+03  0.24436999161E+03  0.47000000000E+01 0. -1.
        -13    1    4    4    0    0 -0.65799726577E+02 -0.54250242266E+02 -0.13723774353E+03  0.16157627008E+03  0.00000000000E+00 0.  1.
         14    1    4    4    0    0 -0.21494014405E+02 -0.38837772632E+02 -0.62634454886E+01  0.44828517571E+02  0.00000000000E+00 0. -1.
         -5    1    5    5    0  502 -0.13201290213E+02  0.82473384845E+02 -0.21453794564E+02  0.86362541488E+02  0.47000000000E+01 0.  1.
         13    1    6    6    0    0  0.44012344717E+01  0.21108766371E+02 -0.13478945892E+02  0.25428976875E+02  0.00000000000E+00 0. -1.
        -14    1    6    6    0    0  0.99567905195E+02  0.24876584675E+02  0.69829356109E+02  0.12413199098E+03  0.00000000000E+00 0.  1.
</event>
<event>
12    1  0.8747122E-002  0.1995021E+03  0.7818608E-02  0.1150556E+00
         21   -1    0    0  501  502  0.00000000000E+00  0.00000000000E+00  0.49544117438E+03  0.49544117438E+03  0.00000000000E+00 0.  1.
         21   -1    0    0  502  503 -0.00000000000E+00 -0.00000000000E+00 -0.92370777157E+02  0.92370777157E+02  0.00000000000E+00 0.  1.
         -6    2    1    2    0  503  0.34362624687E+02 -0.89615702983E+02  0.31169411097E+03  0.37007340452E+03  0.17489808954E+03 0.  0.
        -24    2    3    3    0    0  0.19025066443E+02  0.14090573950E+02  0.20236926062E+03  0.21853382068E+03  0.79014022225E+02 0.  0.
          6    2    1    2  501    0 -0.34362624687E+02  0.89615702983E+02  0.91376286255E+02  0.21773854701E+03  0.17276771970E+03 0.  0.
         24    2    5    5    0    0 -0.72491021207E+02  0.96957555631E+01  0.45140634145E+02  0.11773455638E+03  0.80466098970E+02 0.  0.
          5    1    5    5  501    0  0.38128396519E+02  0.79919947420E+02  0.46235652110E+02  0.10000399063E+03  0.47000000000E+01 0. -1.
        -13    1    6    6    0    0 -0.64288578589E+02  0.41045912828E+02  0.29924470287E+02  0.81934499564E+02  0.00000000000E+00 0.  1.
         14    1    6    6    0    0 -0.82024426175E+01 -0.31350157265E+02  0.15216163858E+02  0.35800056816E+02  0.00000000000E+00 0. -1.
         -5    1    3    3    0  503  0.15337558245E+02 -0.10370627693E+03  0.10932485034E+03  0.15153958384E+03  0.47000000000E+01 0.  1.
         11    1    4    4    0    0  0.30828027403E+02  0.24908326276E+02  0.43452188367E+02  0.58812283286E+02  0.00000000000E+00 0. -1.
        -12    1    4    4    0    0 -0.11802960960E+02 -0.10817752326E+02  0.15891707226E+03  0.15972153739E+03  0.00000000000E+00 0.  1.
</event>
<event>
12    1  0.8747122E-002  0.1874342E+03  0.7818608E-02  0.1160993E+00
         21   -1    0    0  503  502  0.00000000000E+00  0.00000000000E+00  0.73874827589E+03  0.73874827589E+03  0.00000000000E+00 0. -1.
         21   -1    0    0  501  503 -0.00000000000E+00 -0.00000000000E+00 -0.15938884037E+03  0.15938884037E+03  0.00000000000E+00 0. -1.
          6    2    1    2  501    0 -0.25261098481E+02  0.69789133422E+02 -0.86644604057E+02  0.20649178236E+03  0.17211310970E+03 0.  0.
         24    2    3    3    0    0  0.25459732468E+01  0.90938535603E+02 -0.92165893003E+01  0.12141700396E+03  0.79880185871E+02 0.  0.
         -6    2    1    2    0  502  0.25261098481E+02 -0.69789133422E+02  0.66600403958E+03  0.69164533390E+03  0.17118189426E+03 0.  0.
        -24    2    5    5    0    0  0.67054061245E+02 -0.65133453812E+01  0.46275556530E+03  0.47466028974E+03  0.81369568298E+02 0.  0.
          5    1    3    3  501    0 -0.27807071728E+02 -0.21149402181E+02 -0.77428014757E+02  0.85074778400E+02  0.47000000000E+01 0. -1.
        -11    1    4    4    0    0 -0.20403089575E+01 -0.22161287703E+00  0.24147726512E+02  0.24234782206E+02  0.00000000000E+00 0.  1.
         12    1    4    4    0    0  0.45862822043E+01  0.91160148480E+02 -0.33364315812E+02  0.97182221754E+02  0.00000000000E+00 0. -1.
         -5    1    5    5    0  502 -0.41792962764E+02 -0.63275788041E+02  0.20324847429E+03  0.21698504416E+03  0.47000000000E+01 0.  1.
         11    1    6    6    0    0 -0.72420535879E+01  0.12904109343E+02  0.20941267627E+03  0.20993482884E+03  0.00000000000E+00 0. -1.
        -12    1    6    6    0    0  0.74296114833E+02 -0.19417454725E+02  0.25334288903E+03  0.26472546090E+03  0.00000000000E+00 0.  1.
</event>
<event>
12    1  0.8747122E-002  0.1849442E+03  0.7818608E-02  0.1164162E+00
         21   -1    0    0  503  502  0.00000000000E+00  0.00000000000E+00  0.87363652528E+03  0.87363652528E+03  0.00000000000E+00 0. -1.
         21   -1    0    0  501  503 -0.00000000000E+00 -0.00000000000E+00 -0.40369269909E+02  0.40369269909E+02  0.00000000000E+00 0. -1.
          6    2    1    2  501    0 -0.42575852689E+02 -0.35925994352E+02  0.30610087704E+03  0.35533884261E+03  0.17165245656E+03 0.  0.
         24    2    3    3    0    0 -0.16297243155E+02  0.47213918182E+01  0.53465456754E+02  0.98065600895E+02  0.80438891948E+02 0.  0.
         -6    2    1    2    0  502  0.42575852689E+02  0.35925994352E+02  0.52716637833E+03  0.55866695257E+03  0.17635473669E+03 0.  0.
        -24    2    5    5    0    0  0.57726134917E+02  0.46242643646E+02  0.17522597489E+03  0.20621823024E+03  0.79693961260E+02 0.  0.
          5    1    3    3  501    0 -0.26278609534E+02 -0.40647386170E+02  0.25263542028E+03  0.25727324172E+03  0.47000000000E+01 0. -1.
        -11    1    4    4    0    0  0.57235673683E+01 -0.32212322246E+01  0.69424051210E+02  0.69734026463E+02  0.00000000000E+00 0.  1.
         12    1    4    4    0    0 -0.22020810523E+02  0.79426240428E+01 -0.15958594456E+02  0.28331574432E+02  0.00000000000E+00 0. -1.
         -5    1    5    5    0  502 -0.15150282229E+02 -0.10316649294E+02  0.35194040344E+03  0.35244872234E+03  0.47000000000E+01 0.  1.
         11    1    6    6    0    0  0.45963091133E+02  0.22043723984E+01  0.14345940004E+03  0.15065876829E+03  0.00000000000E+00 0. -1.
        -12    1    6    6    0    0  0.11763043784E+02  0.44038271248E+02  0.31766574854E+02  0.55559461944E+02  0.00000000000E+00 0.  1.
</event>
<event>
12    1  0.8747122E-002  0.1889609E+03  0.7818608E-02  0.1159876E+00
         21   -1    0    0  501  502  0.00000000000E+00  0.00000000000E+00  0.13440557833E+03  0.13440557833E+03  0.00000000000E+00 0.  1.
         21   -1    0    0  502  503 -0.00000000000E+00 -0.00000000000E+00 -0.95042277206E+03  0.95042277206E+03  0.00000000000E+00 0.  1.
         -6    2    1    2    0  503  0.76572067829E+02 -0.20763111753E+01 -0.86876879423E+03  0.88864232388E+03  0.17046515575E+03 0.  0.
        -24    2    3    3    0    0  0.69368662788E+02  0.55104749231E+02 -0.43572960844E+03  0.45175951449E+03  0.79861270300E+02 0.  0.
          6    2    1    2  501    0 -0.76572067829E+02  0.20763111753E+01  0.52751600500E+02  0.19618602651E+03  0.17273862626E+03 0.  0.
         24    2    5    5    0    0 -0.55942409204E+02 -0.65563354347E+02  0.35492633474E+02  0.12324310972E+03  0.80628968008E+02 0.  0.
          5    1    5    5  501    0 -0.20629658625E+02  0.67639665522E+02  0.17258967027E+02  0.72942916789E+02  0.47000000000E+01 0. -1.
        -11    1    6    6    0    0 -0.67471102310E+02 -0.32345870828E+02  0.22536459882E+01  0.74857757960E+02  0.00000000000E+00 0.  1.
         12    1    6    6    0    0  0.11528693105E+02 -0.33217483519E+02  0.33238987485E+02  0.48385351762E+02  0.00000000000E+00 0. -1.
         -5    1    3    3    0  503  0.72034050408E+01 -0.57181060406E+02 -0.43303918579E+03  0.43688280940E+03  0.47000000000E+01 0.  1.
         13    1    4    4    0    0 -0.16294981744E+02  0.46649373956E+01 -0.35066895781E+02  0.38948366470E+02  0.00000000000E+00 0. -1.
        -14    1    4    4    0    0  0.85663644532E+02  0.50439811836E+02 -0.40066271266E+03  0.41281114802E+03  0.00000000000E+00 0.  1.
</event>
<event>
12    1  0.8747122E-002  0.2737318E+03  0.7818608E-02  0.1099340E+00
         21   -1    0    0  501  502  0.00000000000E+00  0.00000000000E+00  0.38973696500E+03  0.38973696500E+03  0.00000000000E+00 0.  1.
         21   -1    0    0  502  503 -0.00000000000E+00 -0.00000000000E+00 -0.24532484976E+03  0.24532484976E+03  0.00000000000E+00 0. -1.
         -6    2    1    2    0  503  0.15516103927E+03  0.14432575228E+03  0.22124436716E+03  0.35196331388E+03  0.17327502254E+03 0.  0.
        -24    2    3    3    0    0  0.16019440213E+02  0.82546958533E+01  0.56827590850E+02  0.97148315657E+02  0.76705004302E+02 0.  0.
          6    2    1    2  501    0 -0.15516103927E+03 -0.14432575228E+03 -0.76832251915E+02  0.28309850088E+03  0.17127958251E+03 0.  0.
         24    2    5    5    0    0 -0.17655379974E+03 -0.79322810717E+02 -0.46772795958E+02  0.20820728975E+03  0.60821283776E+02 0.  0.
          5    1    5    5  501    0  0.21392760464E+02 -0.65002941567E+02 -0.30059455957E+02  0.74891211134E+02  0.47000000000E+01 0. -1.
        -13    1    6    6    0    0 -0.50640565912E+02 -0.21203579864E+02  0.14213285709E+02  0.56710459402E+02  0.00000000000E+00 0.  1.
         14    1    6    6    0    0 -0.12591323382E+03 -0.58119230854E+02 -0.60986081668E+02  0.15149683034E+03  0.00000000000E+00 0. -1.
         -5    1    3    3    0  503  0.13914159906E+03  0.13607105643E+03  0.16441677631E+03  0.25481499822E+03  0.47000000000E+01 0.  1.
         13    1    4    4    0    0  0.19700196697E+02 -0.15275900026E+02  0.66821193400E+02  0.71319862303E+02  0.00000000000E+00 0. -1.
        -14    1    4    4    0    0 -0.36807564839E+01  0.23530595879E+02 -0.99936025507E+01  0.25828453354E+02  0.00000000000E+00 0.  1.
</event>
<event>
12    1  0.8747122E-002  0.1794299E+03  0.7818608E-02  0.1168898E+00
         21   -1    0    0  503  502  0.00000000000E+00  0.00000000000E+00  0.20503666870E+02  0.20503666870E+02  0.00000000000E+00 0.  1.
         21   -1    0    0  501  503 -0.00000000000E+00 -0.00000000000E+00 -0.19067110636E+04  0.19067110636E+04  0.00000000000E+00 0. -1.
          6    2    1    2  501    0 -0.15954619997E+02  0.43131818261E+02 -0.13546055181E+04  0.13661481945E+04  0.17114285285E+03 0.  0.
         24    2    3    3    0    0  0.34112191499E+02 -0.28492966644E+02 -0.83358709755E+03  0.83783097922E+03  0.71538869082E+02 0.  0.
         -6    2    1    2    0  502  0.15954619997E+02 -0.43131818261E+02 -0.53160187873E+03  0.56106653605E+03  0.17343643435E+03 0.  0.
        -24    2    5    5    0    0  0.67674517262E+02  0.44438480914E+01 -0.37992484857E+03  0.39383495027E+03  0.78507894032E+02 0.  0.
          5    1    3    3  501    0 -0.50066811496E+02  0.71624784905E+02 -0.52101842050E+03  0.52831721525E+03  0.47000000000E+01 0. -1.
        -11    1    4    4    0    0 -0.21718811155E+02 -0.15940383087E+02 -0.28131512183E+03  0.28260219451E+03  0.00000000000E+00 0.  1.
         12    1    4    4    0    0  0.55831002654E+02 -0.12552583557E+02 -0.55227197571E+03  0.55522878471E+03  0.00000000000E+00 0. -1.
         -5    1    5    5    0  502 -0.51719897264E+02 -0.47575666352E+02 -0.15167703016E+03  0.16723158577E+03  0.47000000000E+01 0.  1.
         13    1    6    6    0    0  0.60415397736E+02 -0.11589315344E+02 -0.36668939825E+03  0.37181372662E+03  0.00000000000E+00 0. -1.
        -14    1    6    6    0    0  0.72591195261E+01  0.16033163435E+02 -0.13235450313E+02  0.22021223650E+02  0.00000000000E+00 0.  1.
</event>
<event>
12    1  0.8747122E-002  0.3595357E+03  0.7818608E-02  0.1058789E+00
         21   -1    0    0  503  502  0.00000000000E+00  0.00000000000E+00  0.69779536284E+03  0.69779536284E+03  0.00000000000E+00 0.  1.
         21   -1    0    0  501  503 -0.00000000000E+00 -0.00000000000E+00 -0.18527794869E+03  0.18527794869E+03  0.00000000000E+00 0. -1.
          6    2    1    2  501    0 -0.25895386962E+03  0.18104399526E+03  0.26831920753E+03  0.44862134469E+03  0.17155721775E+03 0.  0.
         24    2    3    3    0    0 -0.16854202092E+03  0.43821364677E+02  0.17675491465E+03  0.26044466584E+03  0.79135322667E+02 0.  0.
         -6    2    1    2    0  502  0.25895386962E+03 -0.18104399526E+03  0.24419820662E+03  0.43445196685E+03  0.17111900118E+03 0.  0.
        -24    2    5    5    0    0  0.13061601360E+03 -0.16642509462E+03  0.12550691724E+03  0.25896968934E+03  0.80965786553E+02 0.  0.
          5    1    3    3  501    0 -0.90411848704E+02  0.13722263058E+03  0.91564292884E+02  0.18817667885E+03  0.47000000000E+01 0. -1.
        -13    1    4    4    0    0 -0.52857064726E+02  0.52832018576E+02  0.78661501582E+02  0.10850218113E+03  0.00000000000E+00 0.  1.
         14    1    4    4    0    0 -0.11568495619E+03 -0.90106538992E+01  0.98093413068E+02  0.15194248471E+03  0.00000000000E+00 0. -1.
         -5    1    5    5    0  502  0.12833785602E+03 -0.14618900640E+02  0.11869128938E+03  0.17548227751E+03  0.47000000000E+01 0.  1.
         11    1    6    6    0    0  0.80752478647E+02 -0.43775277639E+02  0.69630220903E+02  0.11526320056E+03  0.00000000000E+00 0. -1.
        -12    1    6    6    0    0  0.49863534952E+02 -0.12264981698E+03  0.55876696337E+02  0.14370648878E+03  0.00000000000E+00 0.  1.
</event>
<event>
12    1  0.8747122E-002  0.3293760E+03  0.7818608E-02  0.1071530E+00
         21   -1    0    0  501  502  0.00000000000E+00  0.00000000000E+00  0.25960156249E+03  0.25960156249E+03  0.00000000000E+00 0.  1.
         21   -1    0    0  502  503 -0.00000000000E+00 -0.00000000000E+00 -0.43505182806E+03  0.43505182806E+03  0.00000000000E+00 0. -1.
         -6    2    1    2    0  503  0.67890950656E+02 -0.27226358084E+03 -0.15943925652E+03  0.36593636925E+03  0.17248742326E+03 0.  0.
        -24    2    3    3    0    0  0.94312210764E+02 -0.27531321601E+03 -0.15334804709E+03  0.33824925866E+03  0.78770409588E+02 0.  0.
          6    2    1    2  501    0 -0.67890950656E+02  0.27226358084E+03 -0.16011009054E+02  0.32871702130E+03  0.17047547932E+03 0.  0.
         24    2    5    5    0    0 -0.97264187639E+02  0.19868629016E+03 -0.53011838863E+02  0.24115243850E+03  0.80047982119E+02 0.  0.
          5    1    5    5  501    0  0.29373236983E+02  0.73577290679E+02  0.37000829808E+02  0.87564582801E+02  0.47000000000E+01 0. -1.
        -13    1    6    6    0    0 -0.68007958149E+02  0.51884111240E+02 -0.20964132995E+02  0.88071211205E+02  0.00000000000E+00 0.  1.
         14    1    6    6    0    0 -0.29256229490E+02  0.14680217892E+03 -0.32047705868E+02  0.15308122730E+03  0.00000000000E+00 0. -1.
         -5    1    3    3    0  503 -0.26421260108E+02  0.30496351714E+01 -0.60912094346E+01  0.27687110589E+02  0.47000000000E+01 0.  1.
         13    1    4    4    0    0 -0.12006493983E+02 -0.43998455040E+02 -0.35092006323E+02  0.57545363422E+02  0.00000000000E+00 0. -1.
        -14    1    4    4    0    0  0.10631870475E+03 -0.23131476097E+03 -0.11825604077E+03  0.28070389524E+03  0.00000000000E+00 0.  1.
</event>
<event>
12    1  0.8747122E-002  0.1715058E+03  0.7818608E-02  0.1176302E+00
         21   -1    0    0  503  502  0.00000000000E+00  0.00000000000E+00  0.65412043797E+03  0.65412043797E+03  0.00000000000E+00 0.  1.
         21   -1    0    0  501  503 -0.00000000000E+00 -0.00000000000E+00 -0.48861608682E+02  0.48861608682E+02  0.00000000000E+00 0.  1.
          6    2    1    2  501    0 -0.11081109508E+01 -0.15292914014E+00  0.20325650892E+03  0.26594631663E+03  0.17150213880E+03 0.  0.
         24    2    3    3    0    0 -0.13734921648E+02  0.20146525985E+02  0.28939226233E+02  0.89934642950E+02  0.81585725502E+02 0.  0.
         -6    2    1    2    0  502  0.11081109508E+01  0.15292914014E+00  0.40200232037E+03  0.43703573003E+03  0.17144419629E+03 0.  0.
        -24    2    5    5    0    0 -0.18808510547E+02 -0.61376571459E+02  0.19468485424E+03  0.21981424624E+03  0.79342717292E+02 0.  0.
          5    1    3    3  501    0  0.12626810697E+02 -0.20299455125E+02  0.17431728269E+03  0.17601167368E+03  0.47000000000E+01 0. -1.
        -13    1    4    4    0    0  0.32652349935E+02  0.71856206284E+01  0.24732551129E+02  0.41587356077E+02  0.00000000000E+00 0.  1.
         14    1    4    4    0    0 -0.46387271583E+02  0.12960905356E+02  0.42066751043E+01  0.48347286874E+02  0.00000000000E+00 0. -1.
         -5    1    5    5    0  502  0.19916621498E+02  0.61529500599E+02  0.20731746613E+03  0.21722148379E+03  0.47000000000E+01 0.  1.
         11    1    6    6    0    0  0.27632268576E+02 -0.27044977619E+02  0.44743661938E+02  0.59135170285E+02  0.00000000000E+00 0. -1.
        -12    1    6    6    0    0 -0.46440779123E+02 -0.34331593839E+02  0.14994119230E+03  0.16067907596E+03  0.00000000000E+00 0.  1.
</event>
<event>
12    1  0.8747122E-002  0.1841797E+03  0.7818608E-02  0.1164262E+00
         21   -1    0    0  503  502  0.00000000000E+00  0.00000000000E+00  0.23606268154E+03  0.23606268154E+03  0.00000000000E+00 0.  1.
         21   -1    0    0  501  503 -0.00000000000E+00 -0.00000000000E+00 -0.22398530299E+03  0.22398530299E+03  0.00000000000E+00 0.  1.
          6    2    1    2  501    0 -0.17899398910E+02  0.62489250055E+02 -0.13290592428E+03  0.22712585370E+03  0.17232780930E+03 0.  0.
         24    2    3    3    0    0  0.81921091588E+01  0.10408581973E+03 -0.78195114554E+02  0.15346172333E+03  0.80839693638E+02 0.  0.
         -6    2    1    2    0  502  0.17899398910E+02 -0.62489250055E+02  0.14498330283E+03  0.23292213083E+03  0.17031519626E+03 0.  0.
        -24    2    5    5    0    0 -0.12175227175E+02 -0.62830333326E+02  0.16646358126E+03  0.19566502637E+03  0.80490941822E+02 0.  0.
          5    1    3    3  501    0 -0.26091508068E+02 -0.41596569674E+02 -0.54710809725E+02  0.73664130366E+02  0.47000000000E+01 0. -1.
        -13    1    4    4    0    0 -0.63002824302E+01  0.68141700845E+01 -0.50423479011E+02  0.51270397972E+02  0.00000000000E+00 0.  1.
         14    1    4    4    0    0  0.14492391589E+02  0.97271649645E+02 -0.27771635542E+02  0.10219132536E+03  0.00000000000E+00 0. -1.
         -5    1    5    5    0  502  0.30074626085E+02  0.34108327130E+00 -0.21480278424E+02  0.37257104465E+02  0.47000000000E+01 0.  1.
         13    1    6    6    0    0 -0.37841291714E+01  0.18877880461E+01 -0.81900266014E+01  0.92173701794E+01  0.00000000000E+00 0. -1.
        -14    1    6    6    0    0 -0.83910980035E+01 -0.64718121373E+02  0.17465360786E+03  0.18644765619E+03  0.00000000000E+00 0.  1.
</event>
<event>
12    1  0.8747122E-002  0.2014698E+03  0.7818608E-02  0.1149270E+00
         21   -1    0    0  503  502  0.00000000000E+00  0.00000000000E+00  0.13280486818E+03  0.13280486818E+03  0.00000000000E+00 0.  1.
         21   -1    0    0  501  503 -0.00000000000E+00 -0.00000000000E+00 -0.30519180443E+03  0.30519180443E+03  0.00000000000E+00 0.  1.
          6    2    1    2  501    0  0.92142051028E+02 -0.42279667098E+02 -0.11353545283E+03  0.22810723929E+03  0.16989669140E+03 0.  0.
         24    2    3    3    0    0  0.76568774063E+02 -0.25120528297E+01 -0.76429126790E+01  0.11382990051E+03  0.83843571990E+02 0.  0.
         -6    2    1    2    0  502 -0.92142051028E+02  0.42279667098E+02 -0.58851483418E+02  0.20988943333E+03  0.17410442069E+03 0.  0.
        -24    2    5    5    0    0 -0.11774511347E+03 -0.33814137811E+01 -0.64437923860E+02  0.15703350244E+03  0.81436657298E+02 0.  0.
          5    1    3    3  501    0  0.15573276965E+02 -0.39767614268E+02 -0.10589254015E+03  0.11427733878E+03  0.47000000000E+01 0. -1.
        -13    1    4    4    0    0  0.17389306578E+02 -0.16267468047E+02  0.33027822370E+02  0.40716772348E+02  0.00000000000E+00 0.  1.
         14    1    4    4    0    0  0.59179467485E+02  0.13755415217E+02 -0.40670735049E+02  0.73113128158E+02  0.00000000000E+00 0. -1.
         -5    1    5    5    0  502  0.25603062438E+02  0.45661080879E+02  0.55864404427E+01  0.52855930888E+02  0.47000000000E+01 0.  1.
         13    1    6    6    0    0 -0.72960026720E+02 -0.21396516020E+02  0.60427663231E+00  0.76035133636E+02  0.00000000000E+00 0. -1.
        -14    1    6    6    0    0 -0.44785086746E+02  0.18015102239E+02 -0.65042200493E+02  0.80998368801E+02  0.00000000000E+00 0.  1.
</event>
<event>
12    1  0.8747122E-002  0.2698610E+03  0.7818608E-02  0.1101369E+00
         21   -1    0    0  501  502  0.00000000000E+00  0.00000000000E+00  0.35615063010E+03  0.35615063010E+03  0.00000000000E+00 0.  1.
         21   -1    0    0  502  503 -0.00000000000E+00 -0.00000000000E+00 -0.26947508692E+03  0.26947508692E+03  0.00000000000E+00 0.  1.
         -6    2    1    2    0  503 -0.31369280266E+02 -0.20544473440E+03 -0.11035915185E+03  0.29148859891E+03  0.17203165481E+03 0.  0.
        -24    2    3    3    0    0 -0.42083165689E+02 -0.33632304279E+02 -0.48676787499E+02  0.10856483731E+03  0.80714122267E+02 0.  0.
          6    2    1    2  501    0  0.31369280266E+02  0.20544473440E+03  0.19703469503E+03  0.33413711811E+03  0.17214346348E+03 0.  0.
         24    2    5    5    0    0  0.10226513182E+02  0.17105372243E+03  0.21788188372E+03  0.28845940384E+03  0.79827031035E+02 0.  0.
          5    1    5    5  501    0  0.21142767083E+02  0.34391011971E+02 -0.20847188693E+02  0.45677714268E+02  0.47000000000E+01 0. -1.
        -13    1    6    6    0    0  0.14945861899E+02  0.12042091986E+03  0.90724757413E+02  0.15151091820E+03  0.00000000000E+00 0.  1.
         14    1    6    6    0    0 -0.47193487167E+01  0.50632802571E+02  0.12715712631E+03  0.13694848564E+03  0.00000000000E+00 0. -1.
         -5    1    3    3    0  503  0.10713885423E+02 -0.17181243012E+03 -0.61682364354E+02  0.18292376160E+03  0.47000000000E+01 0.  1.
         13    1    4    4    0    0 -0.14153032072E+02 -0.16628021108E+02 -0.67424714565E+02  0.70872360882E+02  0.00000000000E+00 0. -1.
        -14    1    4    4    0    0 -0.27930133617E+02 -0.17004283171E+02  0.18747927066E+02  0.37692476428E+02  0.00000000000E+00 0.  1.
</event>
<event>
12    1  0.8747122E-002  0.2059523E+03  0.7818608E-02  0.1146010E+00
         21   -1    0    0  501  502  0.00000000000E+00  0.00000000000E+00  0.55729828484E+03  0.55729828484E+03  0.00000000000E+00 0. -1.
         21   -1    0    0  502  503 -0.00000000000E+00 -0.00000000000E+00 -0.14112146637E+03  0.14112146637E+03  0.00000000000E+00 0. -1.
         -6    2    1    2    0  503  0.58392302603E+02 -0.85287243849E+02  0.44738926346E+03  0.49011569324E+03  0.17138455219E+03 0.  0.
        -24    2    3    3    0    0 -0.79561738910E-01  0.38015164300E+01  0.10471002909E+03  0.13121889220E+03  0.78992085804E+02 0.  0.
          6    2    1    2  501    0 -0.58392302603E+02  0.85287243849E+02 -0.31212444991E+02  0.20830405798E+03  0.17813699470E+03 0.  0.
         24    2    5    5    0    0  0.16804356593E+02  0.21047104701E+02  0.30214353084E+02  0.91785070025E+02  0.82378546542E+02 0.  0.
          5    1    5    5  501    0 -0.75196659196E+02  0.64240139148E+02 -0.61426798074E+02  0.11651898795E+03  0.47000000000E+01 0. -1.
        -13    1    6    6    0    0  0.28498267439E+02  0.18536663868E+02 -0.20486888594E+02  0.39692212821E+02  0.00000000000E+00 0.  1.
         14    1    6    6    0    0 -0.11693910845E+02  0.25104408327E+01  0.50701241678E+02  0.52092857204E+02  0.00000000000E+00 0. -1.
         -5    1    3    3    0  503  0.58471864342E+02 -0.89088760279E+02  0.34267923437E+03  0.35889680104E+03  0.47000000000E+01 0.  1.
         11    1    4    4    0    0  0.26227411681E+02 -0.13510142275E+02  0.95913113950E+01  0.31022480914E+02  0.00000000000E+00 0. -1.
        -12    1    4    4    0    0 -0.26306973420E+02  0.17311658705E+02  0.95118717697E+02  0.10019641128E+03  0.00000000000E+00 0.  1.
</event>
<event>
12    1  0.8747122E-002  0.2573820E+03  0.7818608E-02  0.1108758E+00
         21   -1    0    0  503  502  0.00000000000E+00  0.00000000000E+00  0.28696010190E+03  0.28696010190E+03  0.00000000000E+00 0. -1.
         21   -1    0    0  501  503 -0.00000000000E+00 -0.00000000000E+00 -0.38307487303E+03  0.38307487303E+03  0.00000000000E+00 0.  1.
          6    2    1    2  501    0  0.12489733280E+03  0.14518994232E+03 -0.25938496279E+03  0.36541215250E+03  0.17194772224E+03 0.  0.
         24    2    3    3    0    0  0.65597455255E+02  0.92392466169E+02 -0.24987597826E+03  0.28530872092E+03  0.78253867505E+02 0.  0.
         -6    2    1    2    0  502 -0.12489733280E+03 -0.14518994232E+03  0.16327019166E+03  0.30462282244E+03  0.17163462755E+03 0.  0.
        -24    2    5    5    0    0 -0.96714510383E+02 -0.16790823110E+03  0.10239525661E+03  0.23364226284E+03  0.80975600133E+02 0.  0.
          5    1    3    3  501    0  0.59299877542E+02  0.52797476152E+02 -0.95089845274E+01  0.80103431582E+02  0.47000000000E+01 0. -1.
        -11    1    4    4    0    0  0.60818896037E+02  0.10631572152E+03 -0.21476308031E+03  0.24723501253E+03  0.00000000000E+00 0.  1.
         12    1    4    4    0    0  0.47785592179E+01 -0.13923255351E+02 -0.35112897954E+02  0.38073708389E+02  0.00000000000E+00 0. -1.
         -5    1    5    5    0  502 -0.28182822414E+02  0.22718288779E+02  0.60874935048E+02  0.70980559602E+02  0.47000000000E+01 0.  1.
         11    1    6    6    0    0 -0.94885279581E+02 -0.93342930999E+02  0.81934642697E+02  0.15629908740E+03  0.00000000000E+00 0. -1.
        -12    1    6    6    0    0 -0.18292308017E+01 -0.74565300101E+02  0.20460613913E+02  0.77343175434E+02  0.00000000000E+00 0.  1.
</event>
<event>
12    1  0.8747122E-002  0.2205685E+03  0.7818608E-02  0.1133489E+00
         21   -1    0    0  503  502  0.00000000000E+00  0.00000000000E+00  0.10094484006E+04  0.10094484006E+04  0.00000000000E+00 0.  1.
         21   -1    0    0  501  503 -0.00000000000E+00 -0.00000000000E+00 -0.98715369997E+02  0.98715369997E+02  0.00000000000E+00 0.  1.
          6    2    1    2  501    0 -0.52618065815E+01  0.13700552155E+03  0.58928535467E+02  0.22830473687E+03  0.17277812663E+03 0.  0.
         24    2    3    3    0    0  0.48679180494E+02  0.12288586378E+03  0.11354532126E+02  0.15485835768E+03  0.79884838442E+02 0.  0.
         -6    2    1    2    0  502  0.52618065815E+01 -0.13700552155E+03  0.85180449509E+03  0.87985903368E+03  0.17257700238E+03 0.  0.
        -24    2    5    5    0    0  0.12401159614E+02 -0.11982302285E+01  0.38351580313E+03  0.39220036231E+03  0.81126619777E+02 0.  0.
          5    1    3    3  501    0 -0.53940987076E+02  0.14119657763E+02  0.47574003342E+02  0.73446379189E+02  0.47000000000E+01 0. -1.
        -13    1    4    4    0    0  0.18589919347E+02  0.71727239193E+02 -0.32651907595E+02  0.80972396612E+02  0.00000000000E+00 0.  1.
         14    1    4    4    0    0  0.30089261148E+02  0.51158624591E+02  0.44006439720E+02  0.73885961071E+02  0.00000000000E+00 0. -1.
         -5    1    5    5    0  502 -0.71393530329E+01 -0.13580729132E+03  0.46828869196E+03  0.48765867137E+03  0.47000000000E+01 0.  1.
         11    1    6    6    0    0 -0.23005164390E+02  0.26662909944E+02  0.12864016015E+03  0.13337330752E+03  0.00000000000E+00 0. -1.
        -12    1    6    6    0    0  0.35406324005E+02 -0.27861140172E+02  0.25487564297E+03  0.25882705479E+03  0.00000000000E+00 0.  1.
</event>
<event>
12    1  0.8747122E-002  0.1902554E+03  0.7818608E-02  0.1158375E+00
         21   -1    0    0  503  502  0.00000000000E+00  0.00000000000E+00  0.60252029645E+02  0.60252029645E+02  0.00000000000E+00 0.  1.
         21   -1    0    0  501  503 -0.00000000000E+00 -0.00000000000E+00 -0.65642109825E+03  0.65642109825E+03  0.00000000000E+00 0.  1.
          6    2    1    2  501    0 -0.79979532169E+02  0.12395824329E+02 -0.40383798263E+03  0.44613962115E+03  0.17147904630E+03 0.  0.
         24    2    3    3    0    0 -0.11807600840E+03  0.21788344105E+02 -0.33511238516E+03  0.36686252057E+03  0.88719347444E+02 0.  0.
         -6    2    1    2    0  502  0.79979532169E+02 -0.12395824329E+02 -0.19233108597E+03  0.27053350674E+03  0.17218231504E+03 0.  0.
        -24    2    5    5    0    0  0.11159166411E+03  0.25125119048E+02 -0.12969450696E+03  0.19083043836E+03  0.80694609275E+02 0.  0.
          5    1    3    3  501    0  0.38096476235E+02 -0.93925197753E+01 -0.68725597473E+02  0.79277100585E+02  0.47000000000E+01 0. -1.
        -13    1    4    4    0    0 -0.10670123930E+03  0.49990385543E+02 -0.24737720018E+03  0.27400670117E+03  0.00000000000E+00 0.  1.
         14    1    4    4    0    0 -0.11374769103E+02 -0.28202041438E+02 -0.87735184978E+02  0.92855819400E+02  0.00000000000E+00 0. -1.
         -5    1    5    5    0  502 -0.31612131940E+02 -0.37520943378E+02 -0.62636579013E+02  0.79703068374E+02  0.47000000000E+01 0.  1.
         13    1    6    6    0    0  0.13450183568E+02 -0.24624220441E+02 -0.40072796110E+02  0.48919205415E+02  0.00000000000E+00 0. -1.
        -14    1    6    6    0    0  0.98141480540E+02  0.49749339490E+02 -0.89621710847E+02  0.14191123295E+03  0.00000000000E+00 0.  1.
</event>
<event>
12    1  0.8747122E-002  0.2248078E+03  0.7818608E-02  0.1130364E+00
         21   -1    0    0  501  502  0.00000000000E+00  0.00000000000E+00  0.76054097548E+03  0.76054097548E+03  0.00000000000E+00 0. -1.
         21   -1    0    0  502  503 -0.00000000000E+00 -0.00000000000E+00 -0.14905346412E+03  0.14905346412E+03  0.00000000000E+00 0.  1.
         -6    2    1    2    0  503 -0.12147291363E+03  0.78482328412E+02 -0.32847653257E+02  0.22719489870E+03  0.17211452307E+03 0.  0.
        -24    2    3    3    0    0 -0.62437748711E+02 -0.25343728374E+02 -0.47443062968E+01  0.10440691527E+03  0.79608532719E+02 0.  0.
          6    2    1    2  501    0  0.12147291363E+03 -0.78482328412E+02  0.64433516462E+03  0.68239954090E+03  0.17200634997E+03 0.  0.
         24    2    5    5    0    0 -0.38146482614E+01 -0.30140411256E+02  0.32402158768E+03  0.33504267586E+03  0.79627943770E+02 0.  0.
          5    1    5    5  501    0  0.12528756189E+03 -0.48341917156E+02  0.32031357694E+03  0.34735686504E+03  0.47000000000E+01 0. -1.
        -13    1    6    6    0    0 -0.33949490833E+02 -0.40922054263E+02  0.19666293292E+03  0.20372405759E+03  0.00000000000E+00 0.  1.
         14    1    6    6    0    0  0.30134842572E+02  0.10781643007E+02  0.12735865476E+03  0.13131861827E+03  0.00000000000E+00 0. -1.
         -5    1    3    3    0  503 -0.59035164919E+02  0.10382605679E+03 -0.28103346960E+02  0.12278798343E+03  0.47000000000E+01 0.  1.
         13    1    4    4    0    0 -0.34559137298E+02 -0.12760404567E+02  0.37292205833E+02  0.52420134599E+02  0.00000000000E+00 0. -1.
        -14    1    4    4    0    0 -0.27878611412E+02 -0.12583323806E+02 -0.42036512130E+02  0.51986780669E+02  0.00000000000E+00 0.  1.
</event>
<event>
12    1  0.8747122E-002  0.1756830E+03  0.7818608E-02  0.1172351E+00
         21   -1    0    0  503  502  0.00000000000E+00  0.00000000000E+00  0.54795911603E+02  0.54795911603E+02  0.00000000000E+00 0.  1.
         21   -1    0    0  501  503 -0.00000000000E+00 -0.00000000000E+00 -0.66514514570E+03  0.66514514570E+03  0.00000000000E+00 0.  1.
          6    2    1    2  501    0  0.40930193659E+02  0.23389273600E+02 -0.44959912724E+03  0.48270474869E+03  0.16923994893E+03 0.  0.
         24    2    3    3    0    0  0.95683342082E+01 -0.39892071317E+02 -0.14496138782E+03  0.16995191157E+03  0.78656963551E+02 0.  0.
         -6    2    1    2    0  502 -0.40930193659E+02 -0.23389273600E+02 -0.16075010686E+03  0.23723630862E+03  0.16798253004E+03 0.  0.
        -24    2    5    5    0    0 -0.26601192216E+02 -0.69950604223E+02 -0.15023085474E+03  0.18717612028E+03  0.82854570346E+02 0.  0.
          5    1    3    3  501    0  0.31361859451E+02  0.63281344916E+02 -0.30463773942E+03  0.31275283711E+03  0.47000000000E+01 0. -1.
        -11    1    4    4    0    0  0.38525868362E+02 -0.35104220651E+02 -0.12206497169E+03  0.13272681023E+03  0.00000000000E+00 0.  1.
         12    1    4    4    0    0 -0.28957534154E+02 -0.47878506655E+01 -0.22896416130E+02  0.37225101341E+02  0.00000000000E+00 0. -1.
         -5    1    5    5    0  502 -0.14329001442E+02  0.46561330623E+02 -0.10519252116E+02  0.50060188342E+02  0.47000000000E+01 0.  1.
         13    1    6    6    0    0 -0.28165494637E+02 -0.84258393004E+02 -0.94863926512E+02  0.12996898258E+03  0.00000000000E+00 0. -1.
        -14    1    6    6    0    0  0.15643024206E+01  0.14307788782E+02 -0.55366928227E+02  0.57207137695E+02  0.00000000000E+00 0.  1.
</event>
<event>
12    1  0.8747122E-002  0.1920046E+03  0.7818608E-02  0.1156755E+00
         21   -1    0    0  503  502  0.00000000000E+00  0.00000000000E+00  0.34039263020E+03  0.34039263020E+03  0.00000000000E+00 0. -1.
         21   -1    0    0  501  503 -0.00000000000E+00 -0.00000000000E+00 -0.11479579844E+04  0.11479579844E+04  0.00000000000E+00 0. -1.
          6    2    1    2  501    0  0.71954887037E+02 -0.44281513201E+02 -0.11121002665E+04  0.11285534024E+04  0.17241641803E+03 0.  0.
         24    2    3    3    0    0 -0.14977782666E+02  0.18397623453E+02 -0.50334633413E+03  0.51041959539E+03  0.81288527792E+02 0.  0.
         -6    2    1    2    0  502 -0.71954887037E+02  0.44281513201E+02  0.30453491231E+03  0.35979721215E+03  0.17197140133E+03 0.  0.
        -24    2    5    5    0    0 -0.10273687748E+03  0.53854648741E+01  0.26897441529E+03  0.29858387652E+03  0.78874748860E+02 0.  0.
          5    1    3    3  501    0  0.86932669703E+02 -0.62679136653E+02 -0.60875393234E+03  0.61813380701E+03  0.47000000000E+01 0. -1.
        -13    1    4    4    0    0 -0.81339655631E+01 -0.29185618797E+02 -0.10827265149E+03  0.11243188516E+03  0.00000000000E+00 0.  1.
         14    1    4    4    0    0 -0.68438171032E+01  0.47583242249E+02 -0.39507368265E+03  0.39798771023E+03  0.00000000000E+00 0. -1.
         -5    1    5    5    0  502  0.30781990445E+02  0.38896048327E+02  0.35560497020E+02  0.61213335635E+02  0.47000000000E+01 0.  1.
         13    1    6    6    0    0 -0.61626507969E+02  0.41752633036E+02  0.16489574304E+03  0.18091908391E+03  0.00000000000E+00 0. -1.
        -14    1    6    6    0    0 -0.41110369512E+02 -0.36367168162E+02  0.10407867225E+03  0.11766479261E+03  0.00000000000E+00 0.  1.
</event>
<event>
12    1  0.8747122E-002  0.1749612E+03  0.7818608E-02  0.1172806E+00
         21   -1    0    0  503  502  0.00000000000E+00  0.00000000000E+00  0.23542084974E+03  0.23542084974E+03  0.00000000000E+00 0.  1.
         21   -1    0    0  501  503 -0.00000000000E+00 -0.00000000000E+00 -0.17683547488E+03  0.17683547488E+03  0.00000000000E+00 0.  1.
          6    2    1    2  501    0  0.16351622824E+02  0.27558768319E+02 -0.76865178871E+02  0.19110125592E+03  0.17200166572E+03 0.  0.
         24    2    3    3    0    0  0.66123694891E+02 -0.12886893418E+02 -0.71273662413E+02  0.12655308966E+03  0.79983338893E+02 0.  0.
         -6    2    1    2    0  502 -0.16351622824E+02 -0.27558768319E+02  0.13545055374E+03  0.22115506870E+03  0.17185997388E+03 0.  0.
        -24    2    5    5    0    0 -0.24784857470E+02 -0.47110264908E+02  0.16058331988E+03  0.18788155972E+03  0.81723996731E+02 0.  0.
          5    1    3    3  501    0 -0.49772072067E+02  0.40445661737E+02 -0.55915164580E+01  0.64548166259E+02  0.47000000000E+01 0. -1.
        -13    1    4    4    0    0 -0.15004479436E+02  0.12311817276E+02 -0.10197887432E+02  0.21925148936E+02  0.00000000000E+00 0.  1.
         14    1    4    4    0    0  0.81128174327E+02 -0.25198710694E+02 -0.61075774981E+02  0.10462794072E+03  0.00000000000E+00 0. -1.
         -5    1    5    5    0  502  0.84332346461E+01  0.19551496589E+02 -0.25132766142E+02  0.33273508974E+02  0.47000000000E+01 0.  1.
         13    1    6    6    0    0 -0.26749195240E+02 -0.33747180763E+02  0.21477327713E+02  0.48121380499E+02  0.00000000000E+00 0. -1.
        -14    1    6    6    0    0  0.19643377697E+01 -0.13363084145E+02  0.13910599217E+03  0.13976017923E+03  0.00000000000E+00 0.  1.
</event>
<event>
12    1  0.8747122E-002  0.1887331E+03  0.7818608E-02  0.1159796E+00
         21   -1    0    0  501  502  0.00000000000E+00  0.00000000000E+00  0.14916736678E+03  0.14916736678E+03  0.00000000000E+00 0. -1.
         21   -1    0    0  502  503 -0.00000000000E+00 -0.00000000000E+00 -0.30557745424E+03  0.30557745424E+03  0.00000000000E+00 0. -1.
         -6    2    1    2    0  503 -0.42904907204E+02 -0.66131943583E+02 -0.18545498197E+03  0.26460106273E+03  0.17148150640E+03 0.  0.
        -24    2    3    3    0    0  0.35062126944E+02 -0.62764301625E+02 -0.13092147921E+03  0.16927954182E+03  0.79664416494E+02 0.  0.
          6    2    1    2  501    0  0.42904907204E+02  0.66131943583E+02  0.29044894502E+02  0.19014375829E+03  0.17057777667E+03 0.  0.
         24    2    5    5    0    0  0.93112506630E+02  0.36634760417E+02  0.30220851902E+02  0.13171123540E+03  0.80140533315E+02 0.  0.
          5    1    5    5  501    0 -0.50207599425E+02  0.29497183167E+02 -0.11759573995E+01  0.58432522884E+02  0.47000000000E+01 0. -1.
        -11    1    6    6    0    0  0.16054132907E+02  0.64842615415E+01 -0.26311119815E+02  0.31496918215E+02  0.00000000000E+00 0.  1.
         12    1    6    6    0    0  0.77058373723E+02  0.30150498875E+02  0.56531971717E+02  0.10021431719E+03  0.00000000000E+00 0. -1.
         -5    1    3    3    0  503 -0.77967034148E+02 -0.33676419581E+01 -0.54533502757E+02  0.95321520913E+02  0.47000000000E+01 0.  1.
         11    1    4    4    0    0 -0.18698282491E+02 -0.21573175846E+02 -0.78820274299E+02  0.83831159629E+02  0.00000000000E+00 0. -1.
        -12    1    4    4    0    0  0.53760409435E+02 -0.41191125779E+02 -0.52101204913E+02  0.85448382191E+02  0.00000000000E+00 0.  1.
</event>
<event>
12    1  0.8747122E-002  0.2124872E+03  0.7818608E-02  0.1140115E+00
         21   -1    0    0  501  502  0.00000000000E+00  0.00000000000E+00  0.26436275822E+03  0.26436275822E+03  0.00000000000E+00 0. -1.
         21   -1    0    0  502  503 -0.00000000000E+00 -0.00000000000E+00 -0.23593068120E+03  0.23593068120E+03  0.00000000000E+00 0. -1.
         -6    2    1    2    0  503  0.10900619386E+03 -0.51244715171E+02 -0.11921788253E+03  0.24364667085E+03  0.17504978026E+03 0.  0.
        -24    2    3    3    0    0  0.11874154687E+03 -0.69850896953E+02 -0.14071339511E+03  0.21323098148E+03  0.81783183742E+02 0.  0.
          6    2    1    2  501    0 -0.10900619386E+03  0.51244715171E+02  0.14764995955E+03  0.25664676857E+03  0.17192638579E+03 0.  0.
         24    2    5    5    0    0  0.11006575137E+02  0.88460510364E+01  0.43988121246E+02  0.92425642760E+02  0.80050904515E+02 0.  0.
          5    1    5    5  501    0 -0.12001276899E+03  0.42398664134E+02  0.10366183830E+03  0.16422112581E+03  0.47000000000E+01 0. -1.
        -11    1    6    6    0    0 -0.10487398561E+02  0.40805140348E+02  0.17178870787E+02  0.45498995691E+02  0.00000000000E+00 0.  1.
         12    1    6    6    0    0  0.21493973698E+02 -0.31959089311E+02  0.26809250459E+02  0.46926647069E+02  0.00000000000E+00 0. -1.
         -5    1    3    3    0  503 -0.97353530118E+01  0.18606181782E+02  0.21495512576E+02  0.30415689367E+02  0.47000000000E+01 0.  1.
         11    1    4    4    0    0  0.10712677349E+03 -0.30330789768E+02 -0.12900749963E+03  0.17040844277E+03  0.00000000000E+00 0. -1.
        -12    1    4    4    0    0  0.11614773376E+02 -0.39520107185E+02 -0.11705895473E+02  0.42822538708E+02  0.00000000000E+00 0.  1.
</event>
<event>
12    1  0.8747122E-002  0.2740216E+03  0.7818608E-02  0.1099135E+00
         21   -1    0    0  503  502  0.00000000000E+00  0.00000000000E+00  0.87410431523E+03  0.87410431523E+03  0.00000000000E+00 0.  1.
         21   -1    0    0  501  503 -0.00000000000E+00 -0.00000000000E+00 -0.10963476533E+03  0.10963476533E+03  0.00000000000E+00 0. -1.
          6    2    1    2  501    0 -0.21016834989E+03  0.29197266148E+02  0.15141339695E+03  0.31222907140E+03  0.17186553058E+03 0.  0.
         24    2    3    3    0    0 -0.98356460717E+02 -0.48728852723E+02  0.90217197498E+02  0.16275852784E+03  0.79389553519E+02 0.  0.
         -6    2    1    2    0  502  0.21016834989E+03 -0.29197266148E+02  0.61305615294E+03  0.67151000916E+03  0.17339155141E+03 0.  0.
        -24    2    5    5    0    0  0.13296540760E+03 -0.82162554665E+02  0.33811520436E+03  0.38102725358E+03  0.80183486711E+02 0.  0.
          5    1    3    3  501    0 -0.11181188918E+03  0.77926118871E+02  0.61196199451E+02  0.14947054356E+03  0.47000000000E+01 0. -1.
        -13    1    4    4    0    0 -0.63216651708E+02 -0.28886118891E+02  0.99479035711E+02  0.12135415718E+03  0.00000000000E+00 0.  1.
         14    1    4    4    0    0 -0.35139809009E+02 -0.19842733832E+02 -0.92618382129E+01  0.41404370665E+02  0.00000000000E+00 0. -1.
         -5    1    5    5    0  502  0.77202942288E+02  0.52965288517E+02  0.27494094858E+03  0.29048275558E+03  0.47000000000E+01 0.  1.
         13    1    6    6    0    0  0.45735891646E+02 -0.45305249954E+02  0.63014441173E+02  0.90084167612E+02  0.00000000000E+00 0. -1.
        -14    1    6    6    0    0  0.87229515959E+02 -0.36857304711E+02  0.27510076319E+03  0.29094308597E+03  0.00000000000E+00 0.  1.
</event>
<event>
12    1  0.8747122E-002  0.1971782E+03  0.7818608E-02  0.1152229E+00
         21   -1    0    0  501  502  0.00000000000E+00  0.00000000000E+00  0.69430052783E+02  0.69430052783E+02  0.00000000000E+00 0. -1.
         21   -1    0    0  502  503 -0.00000000000E+00 -0.00000000000E+00 -0.15879978544E+04  0.15879978544E+04  0.00000000000E+00 0. -1.
         -6    2    1    2    0  503 -0.50808852129E+02  0.81937540183E+02 -0.14261590622E+04  0.14396697633E+04  0.17153441864E+03 0.  0.
        -24    2    3    3    0    0 -0.43989109304E+02  0.11696469278E+03 -0.13025497903E+04  0.13109267929E+04  0.79229535277E+02 0.  0.
          6    2    1    2  501    0  0.50808852129E+02 -0.81937540183E+02 -0.92408739471E+02  0.21775814392E+03  0.17199980862E+03 0.  0.
         24    2    5    5    0    0 -0.36927430525E+02 -0.60917732208E+02 -0.38991596327E+02  0.11280592239E+03  0.78295761827E+02 0.  0.
          5    1    5    5  501    0  0.87736282654E+02 -0.21019807975E+02 -0.53417143144E+02  0.10495222152E+03  0.47000000000E+01 0. -1.
        -11    1    6    6    0    0 -0.11023777283E+02  0.73691780046E+01  0.16437390575E+02  0.21119097021E+02  0.00000000000E+00 0.  1.
         12    1    6    6    0    0 -0.25903653242E+02 -0.68286910213E+02 -0.55428986902E+02  0.91686825371E+02  0.00000000000E+00 0. -1.
         -5    1    3    3    0  503 -0.68197428249E+01 -0.35027152599E+02 -0.12360927193E+03  0.12874297037E+03  0.47000000000E+01 0.  1.
         13    1    4    4    0    0 -0.28028527288E+02 -0.17768905490E+01 -0.23203027292E+03  0.23372377550E+03  0.00000000000E+00 0. -1.
        -14    1    4    4    0    0 -0.15960582016E+02  0.11874158333E+03 -0.10705195173E+04  0.10772030174E+04  0.00000000000E+00 0.  1.
</event>
<event>
12    1  0.8747122E-002  0.1746836E+03  0.7818608E-02  0.1173190E+00
         21   -1    0    0  503  502  0.00000000000E+00  0.00000000000E+00  0.14815379569E+03  0.14815379569E+03  0.00000000000E+00 0. -1.
         21   -1    0    0  501  503 -0.00000000000E+00 -0.00000000000E+00 -0.24536112240E+03  0.24536112240E+03  0.00000000000E+00 0. -1.
          6    2    1    2  501    0  0.30650281866E+02 -0.66081433307E+00 -0.12816566032E+03  0.21665826769E+03  0.17197235830E+03 0.  0.
         24    2    3    3    0    0 -0.41640077610E+02 -0.31099074374E+02 -0.79314572054E+02  0.12413312207E+03  0.80107316542E+02 0.  0.
         -6    2    1    2    0  502 -0.30650281866E+02  0.66081433307E+00  0.30958333600E+02  0.17685665040E+03  0.17140589231E+03 0.  0.
        -24    2    5    5    0    0 -0.63123641112E+02 -0.42639431786E+02  0.46248076232E+02  0.12041821842E+03  0.80987329644E+02 0.  0.
          5    1    3    3  501    0  0.72290359477E+02  0.30438260040E+02 -0.48851088262E+02  0.92525145619E+02  0.47000000000E+01 0. -1.
        -13    1    4    4    0    0 -0.12382193037E+02  0.15485872312E+02  0.76317616506E+01  0.21245581460E+02  0.00000000000E+00 0.  1.
         14    1    4    4    0    0 -0.29257884574E+02 -0.46584946686E+02 -0.86946333705E+02  0.10288754061E+03  0.00000000000E+00 0. -1.
         -5    1    5    5    0  502  0.32473359245E+02  0.43300246119E+02 -0.15289742632E+02  0.56438431980E+02  0.47000000000E+01 0.  1.
         13    1    6    6    0    0 -0.40599443602E+02  0.19418787276E+02  0.15597565959E+02  0.47630748303E+02  0.00000000000E+00 0. -1.
        -14    1    6    6    0    0 -0.22524197510E+02 -0.62058219061E+02  0.30650510273E+02  0.72787470120E+02  0.00000000000E+00 0.  1.
</event>
<event>
12    1  0.8747122E-002  0.2696129E+03  0.7818608E-02  0.1101880E+00
         21   -1    0    0  503  502  0.00000000000E+00  0.00000000000E+00  0.25272773374E+04  0.25272773374E+04  0.00000000000E+00 0. -1.
         21   -1    0    0  501  503 -0.00000000000E+00 -0.00000000000E+00 -0.77430277021E+02  0.77430277021E+02  0.00000000000E+00 0.  1.
          6    2    1    2  501    0  0.71695464534E+02 -0.19359336707E+03  0.18724887856E+03  0.32610241204E+03  0.16929858006E+03 0.  0.
         24    2    3    3    0    0  0.10587904514E+03 -0.17357560487E+03  0.11949593777E+03  0.24747812208E+03  0.75015191518E+02 0.  0.
         -6    2    1    2    0  502 -0.71695464534E+02  0.19359336707E+03  0.22625981818E+04  0.22786052023E+04  0.17341425698E+03 0.  0.
        -24    2    5    5    0    0 -0.21130989458E+01  0.12180589302E+03  0.17663796619E+04  0.17723937282E+04  0.80257567832E+02 0.  0.
          5    1    3    3  501    0 -0.34183580606E+02 -0.20017762201E+02  0.67752940789E+02  0.78624289963E+02  0.47000000000E+01 0. -1.
        -11    1    4    4    0    0  0.87765464743E+02 -0.85390338660E+02  0.92593157613E+02  0.15351801059E+03  0.00000000000E+00 0.  1.
         12    1    4    4    0    0  0.18113580397E+02 -0.88185266208E+02  0.26902780156E+02  0.93960111490E+02  0.00000000000E+00 0. -1.
         -5    1    5    5    0  502 -0.69582365588E+02  0.71787474051E+02  0.49621851992E+03  0.50621147414E+03  0.47000000000E+01 0.  1.
         11    1    6    6    0    0 -0.89803253146E+01  0.87577995229E+02  0.15985148186E+04  0.16009372807E+04  0.00000000000E+00 0. -1.
        -12    1    6    6    0    0  0.68672263688E+01  0.34227897790E+02  0.16786484330E+03  0.17145644754E+03  0.00000000000E+00 0.  1.
</event>
<event>
12    1  0.8747122E-002  0.2542662E+03  0.7818608E-02  0.1110841E+00
         21   -1    0    0  503  502  0.00000000000E+00  0.00000000000E+00  0.89592484557E+03  0.89592484557E+03  0.00000000000E+00 0.  1.
         21   -1    0    0  501  503 -0.00000000000E+00 -0.00000000000E+00 -0.37641015640E+03  0.37641015640E+03  0.00000000000E+00 0.  1.
          6    2    1    2  501    0 -0.13920985639E+03  0.12547786254E+03 -0.31240900478E+03  0.40280355363E+03  0.17183491626E+03 0.  0.
         24    2    3    3    0    0 -0.16103799776E+03  0.10931553163E+03 -0.22858650929E+03  0.31456529975E+03  0.93895758172E+02 0.  0.
         -6    2    1    2    0  502  0.13920985639E+03 -0.12547786254E+03  0.83192369394E+03  0.86953144835E+03  0.16989358145E+03 0.  0.
        -24    2    5    5    0    0  0.53794949178E+02 -0.12044080098E+02  0.23274129919E+03  0.25373557181E+03  0.84701072208E+02 0.  0.
          5    1    3    3  501    0  0.21828141376E+02  0.16162330910E+02 -0.83822495489E+02  0.88238253872E+02  0.47000000000E+01 0. -1.
        -13    1    4    4    0    0 -0.94170415203E+02  0.93945970117E+02 -0.20009250108E+03  0.24027259808E+03  0.00000000000E+00 0.  1.
         14    1    4    4    0    0 -0.66867582558E+02  0.15369561510E+02 -0.28494008213E+02  0.74292701675E+02  0.00000000000E+00 0. -1.
         -5    1    5    5    0  502  0.85414907208E+02 -0.11343378244E+03  0.59918239475E+03  0.61579587653E+03  0.47000000000E+01 0.  1.
         13    1    6    6    0    0  0.11266970301E+02  0.28509368549E+02  0.14451418064E+03  0.14772974352E+03  0.00000000000E+00 0. -1.
        -14    1    6    6    0    0  0.42527978877E+02 -0.40553448647E+02  0.88227118548E+02  0.10600582829E+03  0.00000000000E+00 0.  1.
</event>
<event>
12    1  0.8747122E-002  0.1951026E+03  0.7818608E-02  0.1154553E+00
         21   -1    0    0  503  502  0.00000000000E+00  0.00000000000E+00  0.39968715764E+02  0.39968715764E+02  0.00000000000E+00 0. -1.
         21   -1    0    0  501  503 -0.00000000000E+00 -0.00000000000E+00 -0.17090029234E+04  0.17090029234E+04  0.00000000000E+00 0. -1.
          6    2    1    2  501    0 -0.26690128272E+02 -0.81047243940E+02 -0.14249018509E+04  0.14381968973E+04  0.17545373206E+03 0.  0.
         24    2    3    3    0    0  0.19958890716E+02 -0.10328803243E+03 -0.76952583609E+03  0.78076964323E+03  0.79777493180E+02 0.  0.
         -6    2    1    2    0  502  0.26690128272E+02  0.81047243940E+02 -0.24413235674E+03  0.31077474183E+03  0.17233488869E+03 0.  0.
        -24    2    5    5    0    0 -0.11138151054E+02  0.10150055964E+03 -0.11102342402E+03  0.17081262264E+03  0.80151914238E+02 0.  0.
          5    1    3    3  501    0 -0.46649018988E+02  0.22240788488E+02 -0.65537601480E+03  0.65742725409E+03  0.47000000000E+01 0. -1.
        -11    1    4    4    0    0  0.53775100120E+01 -0.31963578259E+01 -0.31765116916E+03  0.31771276271E+03  0.00000000000E+00 0.  1.
         12    1    4    4    0    0  0.14581380704E+02 -0.10009167460E+03 -0.45187466692E+03  0.46305688052E+03  0.00000000000E+00 0. -1.
         -5    1    5    5    0  502  0.37828279327E+02 -0.20453315703E+02 -0.13310893271E+03  0.13996211919E+03  0.47000000000E+01 0.  1.
         13    1    6    6    0    0  0.26670709835E+02  0.36704675510E+02 -0.12657577256E+02  0.47103866396E+02  0.00000000000E+00 0. -1.
        -14    1    6    6    0    0 -0.37808860889E+02  0.64795884133E+02 -0.98365846767E+02  0.12370875625E+03  0.00000000000E+00 0.  1.
</event>
<event>
12    1  0.8747122E-002  0.2040907E+03  0.7818608E-02  0.1146612E+00
         21   -1    0    0  503  502  0.00000000000E+00  0.00000000000E+00  0.20007708944E+04  0.20007708944E+04  0.00000000000E+00 0. -1.
         21   -1    0    0  501  503 -0.00000000000E+00 -0.00000000000E+00 -0.81781139074E+02  0.81781139074E+02  0.00000000000E+00 0.  1.
          6    2    1    2  501    0  0.11032993395E+03 -0.56274317257E+01  0.58647218012E+02  0.21104799421E+03  0.16999234502E+03 0.  0.
         24    2    3    3    0    0  0.12685182442E+03  0.38940074649E+02  0.42014869246E+02  0.16047171010E+03  0.79863669661E+02 0.  0.
         -6    2    1    2    0  502 -0.11032993395E+03  0.56274317257E+01  0.18603425373E+04  0.18715040393E+04  0.17160609115E+03 0.  0.
        -24    2    5    5    0    0 -0.80254392981E+02  0.70514200627E+02  0.11090197576E+04  0.11167704172E+04  0.76408912558E+02 0.  0.
          5    1    3    3  501    0 -0.16521890470E+02 -0.44567506375E+02  0.16632348766E+02  0.50576284113E+02  0.47000000000E+01 0. -1.
        -13    1    4    4    0    0  0.48674349483E+02  0.43352894603E+02 -0.10733949157E+02  0.66059695977E+02  0.00000000000E+00 0.  1.
         14    1    4    4    0    0  0.78177474938E+02 -0.44128199541E+01  0.52748818403E+02  0.94412014122E+02  0.00000000000E+00 0. -1.
         -5    1    5    5    0  502 -0.30075540970E+02 -0.64886768901E+02  0.75132277973E+03  0.75473362207E+03  0.47000000000E+01 0.  1.
         11    1    6    6    0    0 -0.64824954696E+02  0.61083424511E+01  0.54544104281E+03  0.54931367886E+03  0.00000000000E+00 0. -1.
        -12    1    6    6    0    0 -0.15429438285E+02  0.64405858176E+02  0.56357871481E+03  0.56745673836E+03  0.00000000000E+00 0.  1.
</event>
<event>
12    1  0.8747122E-002  0.1846694E+03  0.7818608E-02  0.1163472E+00
         21   -1    0    0  501  502  0.00000000000E+00  0.00000000000E+00  0.26231667412E+03  0.26231667412E+03  0.00000000000E+00 0. -1.
         21   -1    0    0  502  503 -0.00000000000E+00 -0.00000000000E+00 -0.20562584081E+03  0.20562584081E+03  0.00000000000E+00 0.  1.
         -6    2    1    2    0  503  0.23296111801E+02  0.61957890669E+02 -0.11388319984E+03  0.21654984895E+03  0.17188067033E+03 0.  0.
        -24    2    3    3    0    0 -0.13883145309E+01  0.57745927719E+02 -0.14580143280E+03  0.17570960984E+03  0.79241968670E+02 0.  0.
          6    2    1    2  501    0 -0.23296111801E+02 -0.61957890669E+02  0.17057403315E+03  0.25139266598E+03  0.17239861567E+03 0.  0.
         24    2    5    5    0    0 -0.54752162109E+02  0.10463828412E+02  0.51733966648E+02  0.10863609030E+03  0.77576451640E+02 0.  0.
          5    1    5    5  501    0  0.31456050308E+02 -0.72421719081E+02  0.11884006650E+03  0.14275657569E+03  0.47000000000E+01 0. -1.
        -11    1    6    6    0    0 -0.52707166004E+02  0.10814715648E+02 -0.29753526893E+01  0.53887439598E+02  0.00000000000E+00 0.  1.
         12    1    6    6    0    0 -0.20449961046E+01 -0.35088723575E+00  0.54709319338E+02  0.54748650698E+02  0.00000000000E+00 0. -1.
         -5    1    3    3    0  503  0.24684426332E+02  0.42119629503E+01  0.31918232961E+02  0.40840239110E+02  0.47000000000E+01 0.  1.
         11    1    4    4    0    0 -0.19890081541E+02  0.23659621854E+02 -0.71359974356E+01  0.31722476407E+02  0.00000000000E+00 0. -1.
        -12    1    4    4    0    0  0.18501767010E+02  0.34086305865E+02 -0.13866543536E+03  0.14398713343E+03  0.00000000000E+00 0.  1.
</event>
<event>
12    1  0.8747122E-002  0.2059818E+03  0.7818608E-02  0.1144893E+00
         21   -1    0    0  503  502  0.00000000000E+00  0.00000000000E+00  0.29978569393E+03  0.29978569393E+03  0.00000000000E+00 0.  1.
         21   -1    0    0  501  503 -0.00000000000E+00 -0.00000000000E+00 -0.18285099844E+03  0.18285099844E+03  0.00000000000E+00 0.  1.
          6    2    1    2  501    0 -0.11325658432E+03 -0.53437941461E+01 -0.56797761246E+02  0.21317154154E+03  0.17134908933E+03 0.  0.
         24    2    3    3    0    0 -0.43311818467E+02 -0.60521188356E+02 -0.86108135571E+01  0.11177683246E+03  0.82952916200E+02 0.  0.
         -6    2    1    2    0  502  0.11325658432E+03  0.53437941461E+01  0.17373245674E+03  0.26946515083E+03  0.17196770325E+03 0.  0.
        -24    2    5    5    0    0  0.10189494134E+03 -0.56080230878E+02  0.96949645823E+02  0.17037081278E+03  0.78098710980E+02 0.  0.
          5    1    3    3  501    0 -0.69944765853E+02  0.55177394209E+02 -0.48186947689E+02  0.10139470908E+03  0.47000000000E+01 0. -1.
        -11    1    4    4    0    0 -0.24939705999E+02 -0.75588196402E+02 -0.24396035100E+02  0.83251011401E+02  0.00000000000E+00 0.  1.
         12    1    4    4    0    0 -0.18372112468E+02  0.15067008047E+02  0.15785221543E+02  0.28525821061E+02  0.00000000000E+00 0. -1.
         -5    1    5    5    0  502  0.11361642982E+02  0.61424025024E+02  0.76782810918E+02  0.99094338051E+02  0.47000000000E+01 0.  1.
         11    1    6    6    0    0  0.70503873396E+02 -0.67786310704E+02  0.42944194517E+02  0.10681752630E+03  0.00000000000E+00 0. -1.
        -12    1    6    6    0    0  0.31391067943E+02  0.11706079826E+02  0.54005451306E+02  0.63553286479E+02  0.00000000000E+00 0.  1.
</event>
<event>
12    1  0.8747122E-002  0.3391103E+03  0.7818608E-02  0.1067253E+00
         21   -1    0    0  503  502  0.00000000000E+00  0.00000000000E+00  0.68747275740E+03  0.68747275740E+03  0.00000000000E+00 0.  1.
         21   -1    0    0  501  503 -0.00000000000E+00 -0.00000000000E+00 -0.33532248756E+03  0.33532248756E+03  0.00000000000E+00 0. -1.
          6    2    1    2  501    0 -0.71611126078E+02  0.28298191738E+03 -0.18643571371E+03  0.38634364326E+03  0.17116137531E+03 0.  0.
         24    2    3    3    0    0 -0.12231653272E+02  0.21781046898E+03 -0.18644532541E+03  0.29805247966E+03  0.80513399662E+02 0.  0.
         -6    2    1    2    0  502  0.71611126078E+02 -0.28298191738E+03  0.53858598355E+03  0.63645160170E+03  0.17259449785E+03 0.  0.
        -24    2    5    5    0    0  0.69486656112E+02 -0.26311364977E+03  0.54539997042E+03  0.61482333669E+03  0.80556933491E+02 0.  0.
          5    1    3    3  501    0 -0.59379472806E+02  0.65171448397E+02  0.96117001426E-02  0.88291163597E+02  0.47000000000E+01 0. -1.
        -11    1    4    4    0    0  0.25637438358E+02  0.25441758113E+02 -0.23205020082E+02  0.42930574868E+02  0.00000000000E+00 0.  1.
         12    1    4    4    0    0 -0.37869091630E+02  0.19236871087E+03 -0.16324030532E+03  0.25512190479E+03  0.00000000000E+00 0. -1.
         -5    1    5    5    0  502  0.21244699663E+01 -0.19868267608E+02 -0.68139868663E+01  0.21628265011E+02  0.47000000000E+01 0.  1.
         13    1    6    6    0    0 -0.52271423246E+01  0.21602453006E+01  0.28375315348E+02  0.28933513401E+02  0.00000000000E+00 0. -1.
        -14    1    6    6    0    0  0.74713798437E+02 -0.26527389507E+03  0.51702465507E+03  0.58588982329E+03  0.00000000000E+00 0.  1.
</event>
<event>
12    1  0.8747122E-002  0.1792630E+03  0.7818608E-02  0.1168985E+00
         21   -1    0    0  503  502  0.00000000000E+00  0.00000000000E+00  0.45372526593E+03  0.45372526593E+03  0.00000000000E+00 0.  1.
         21   -1    0    0  501  503 -0.00000000000E+00 -0.00000000000E+00 -0.70836575559E+02  0.70836575559E+02  0.00000000000E+00 0.  1.
          6    2    1    2  501    0  0.44910721164E+02  0.11805872024E+02  0.21968792296E+03  0.28354542454E+03  0.17314408102E+03 0.  0.
         24    2    3    3    0    0  0.69954921693E+01  0.48404456200E+02  0.21178397707E+03  0.23005165561E+03  0.75361681342E+02 0.  0.
         -6    2    1    2    0  502 -0.44910721164E+02 -0.11805872024E+02  0.16320076741E+03  0.24101641695E+03  0.17116679370E+03 0.  0.
        -24    2    5    5    0    0 -0.43496888248E+02  0.36405485247E+02  0.34818150808E+02  0.10379207458E+03  0.79643910478E+02 0.  0.
          5    1    3    3  501    0  0.37915228995E+02 -0.36598584177E+02  0.79039458886E+01  0.53493768928E+02  0.47000000000E+01 0. -1.
        -13    1    4    4    0    0  0.24372336996E+02  0.11222079669E+00  0.20027367614E+02  0.31545504556E+02  0.00000000000E+00 0.  1.
         14    1    4    4    0    0 -0.17376844826E+02  0.48292235403E+02  0.19175660946E+03  0.19850615106E+03  0.00000000000E+00 0. -1.
         -5    1    5    5    0  502 -0.14138329168E+01 -0.48211357270E+02  0.12838261660E+03  0.13722434237E+03  0.47000000000E+01 0.  1.
         11    1    6    6    0    0 -0.36369038488E+02 -0.15359462798E+01 -0.16175370529E+02  0.39833512314E+02  0.00000000000E+00 0. -1.
        -12    1    6    6    0    0 -0.71278497598E+01  0.37941431527E+02  0.50993521337E+02  0.63958562264E+02  0.00000000000E+00 0.  1.
</event>
<event>
12    1  0.8747122E-002  0.1749892E+03  0.7818608E-02  0.1173179E+00
         21   -1    0    0  501  502  0.00000000000E+00  0.00000000000E+00  0.22811771297E+03  0.22811771297E+03  0.00000000000E+00 0.  1.
         21   -1    0    0  502  503 -0.00000000000E+00 -0.00000000000E+00 -0.13294778654E+03  0.13294778654E+03  0.00000000000E+00 0.  1.
         -6    2    1    2    0  503 -0.23620452282E+02  0.15407346409E+02  0.44793991908E+02  0.18063143891E+03  0.17270177452E+03 0.  0.
        -24    2    3    3    0    0 -0.29866735913E+02 -0.38750215475E+02  0.72829077557E+02  0.11914881050E+03  0.80614908008E+02 0.  0.
          6    2    1    2  501    0  0.23620452282E+02 -0.15407346409E+02  0.50375934522E+02  0.18043406060E+03  0.17094854008E+03 0.  0.
         24    2    5    5    0    0  0.45870283253E+02  0.45044546745E+02  0.68740517979E+01  0.10256243441E+03  0.79615992663E+02 0.  0.
          5    1    5    5  501    0 -0.22249830971E+02 -0.60451893153E+02  0.43501882724E+02  0.77871626184E+02  0.47000000000E+01 0. -1.
        -11    1    6    6    0    0  0.32221918363E+02 -0.16128867956E+02  0.15628592370E+02  0.39276523573E+02  0.00000000000E+00 0.  1.
         12    1    6    6    0    0  0.13648364889E+02  0.61173414701E+02 -0.87545405723E+01  0.63285910841E+02  0.00000000000E+00 0. -1.
         -5    1    3    3    0  503  0.62462836317E+01  0.54157561884E+02 -0.28035085649E+02  0.61482628406E+02  0.47000000000E+01 0.  1.
         13    1    4    4    0    0 -0.37857189006E+01  0.21994739050E+02  0.38888754260E+02  0.44837879314E+02  0.00000000000E+00 0. -1.
        -14    1    4    4    0    0 -0.26081017013E+02 -0.60744954526E+02  0.33940323297E+02  0.74310931190E+02  0.00000000000E+00 0.  1.
</event>
<event>
12    1  0.8747122E-002  0.2121606E+03  0.7818608E-02  0.1140018E+00
         21   -1    0    0  503  502  0.00000000000E+00  0.00000000000E+00  0.57355682304E+02  0.57355682304E+02  0.00000000000E+00 0. -1.
         21   -1    0    0  501  503 -0.00000000000E+00 -0.00000000000E+00 -0.78278962173E+03  0.78278962173E+03  0.00000000000E+00 0. -1.
          6    2    1    2  501    0 -0.10772811054E+03  0.62422373409E+02 -0.34945327982E+03  0.40881498958E+03  0.17178533822E+03 0.  0.
         24    2    3    3    0    0 -0.51411591094E+02  0.60981644463E+02 -0.33048490175E+03  0.34918684665E+03  0.79682312514E+02 0.  0.
         -6    2    1    2    0  502  0.10772811054E+03 -0.62422373409E+02 -0.37598065961E+03  0.43133031445E+03  0.17082881860E+03 0.  0.
        -24    2    5    5    0    0  0.12222458127E+03 -0.91287183807E+02 -0.26737766326E+03  0.31792826087E+03  0.79469277410E+02 0.  0.
          5    1    3    3  501    0 -0.56316519450E+02  0.14407289463E+01 -0.18968378066E+02  0.59628142931E+02  0.47000000000E+01 0. -1.
        -13    1    4    4    0    0  0.65667186527E+01  0.35850528732E+02 -0.51232140371E+02  0.62873797493E+02  0.00000000000E+00 0.  1.
         14    1    4    4    0    0 -0.57978309747E+02  0.25131115731E+02 -0.27925276138E+03  0.28631304916E+03  0.00000000000E+00 0. -1.
         -5    1    5    5    0  502 -0.14496470721E+02  0.28864810397E+02 -0.10860299634E+03  0.11340205359E+03  0.47000000000E+01 0.  1.
         11    1    6    6    0    0  0.10119413971E+03 -0.28199590692E+02 -0.15224797776E+03  0.18497274816E+03  0.00000000000E+00 0. -1.
        -12    1    6    6    0    0  0.21030441556E+02 -0.63087593114E+02 -0.11512968550E+03  0.13295551271E+03  0.00000000000E+00 0.  1.
</event>
<event>
12    1  0.8747122E-002  0.2527367E+03  0.7818608E-02  0.1111749E+00
         21   -1    0    0  503  502  0.00000000000E+00  0.00000000000E+00  0.26852903236E+03  0.26852903236E+03  0.00000000000E+00 0. -1.
         21   -1    0    0  501  503 -0.00000000000E+00 -0.00000000000E+00 -0.28258195964E+03  0.28258195964E+03  0.00000000000E+00 0. -1.
          6    2    1    2  501    0  0.18505635115E+03 -0.94008093525E+01 -0.11780862869E+03  0.27790579654E+03  0.17034826221E+03 0.  0.
         24    2    3    3    0    0  0.11365711697E+03 -0.30984099336E+02 -0.14010414912E+03  0.19991304509E+03  0.80362294308E+02 0.  0.
         -6    2    1    2    0  502 -0.18505635115E+03  0.94008093525E+01  0.10375570142E+03  0.27320519546E+03  0.17187671434E+03 0.  0.
        -24    2    5    5    0    0 -0.13401424656E+03 -0.50494013115E+02  0.10213815250E+03  0.19435475054E+03  0.82656537682E+02 0.  0.
          5    1    3    3  501    0  0.71399234175E+02  0.21583289983E+02  0.22295520426E+02  0.77992751447E+02  0.47000000000E+01 0. -1.
        -11    1    4    4    0    0 -0.47994458485E+00 -0.12322100428E+02 -0.54887687681E+02  0.56255868714E+02  0.00000000000E+00 0.  1.
         12    1    4    4    0    0  0.11413706156E+03 -0.18661998908E+02 -0.85216461440E+02  0.14365717638E+03  0.00000000000E+00 0. -1.
         -5    1    5    5    0  502 -0.51042104593E+02  0.59894822467E+02  0.16175489232E+01  0.78850444921E+02  0.47000000000E+01 0.  1.
         13    1    6    6    0    0 -0.82155553634E+02 -0.31460763482E+02  0.12212467954E+02  0.88816997277E+02  0.00000000000E+00 0. -1.
        -14    1    6    6    0    0 -0.51858692922E+02 -0.19033249633E+02  0.89925684545E+02  0.10553775326E+03  0.00000000000E+00 0.  1.
</event>
<event>
12    1  0.8747122E-002  0.1724796E+03  0.7818608E-02  0.1175447E+00
         21   -1    0    0  503  502  0.00000000000E+00  0.00000000000E+00  0.10891920069E+04  0.10891920069E+04  0.00000000000E+00 0.  1.
         21   -1    0    0  501  503 -0.00000000000E+00 -0.00000000000E+00 -0.27706366439E+02  0.27706366439E+02  0.00000000000E+00 0.  1.
          6    2    1    2  501    0  0.13733926249E+02 -0.25749559616E+01  0.60424251520E+03  0.62820575885E+03  0.17128399562E+03 0.  0.
         24    2    3    3    0    0 -0.39156154232E+02 -0.25093820538E+01  0.53365409362E+03  0.53987580824E+03  0.71691668149E+02 0.  0.
         -6    2    1    2    0  502 -0.13733926249E+02  0.25749559616E+01  0.45724312522E+03  0.48869261444E+03  0.17191260780E+03 0.  0.
        -24    2    5    5    0    0 -0.45718817422E+02 -0.12412223969E+02  0.43781984837E+03  0.44810933575E+03  0.82894412286E+02 0.  0.
          5    1    3    3  501    0  0.52890080481E+02 -0.65573907822E-01  0.70588421583E+02  0.88329950610E+02  0.47000000000E+01 0. -1.
        -11    1    4    4    0    0 -0.40549456097E+01 -0.30465780047E+02  0.12318865993E+03  0.12696476785E+03  0.00000000000E+00 0.  1.
         12    1    4    4    0    0 -0.35101208622E+02  0.27956397993E+02  0.41046543368E+03  0.41291104040E+03  0.00000000000E+00 0. -1.
         -5    1    5    5    0  502  0.31984891173E+02  0.14987179931E+02  0.19423276843E+02  0.40583278686E+02  0.47000000000E+01 0.  1.
         11    1    6    6    0    0 -0.26409493126E+02 -0.46180621395E+02  0.19212774040E+03  0.19935691548E+03  0.00000000000E+00 0. -1.
        -12    1    6    6    0    0 -0.19309324296E+02  0.33768397426E+02  0.24569210797E+03  0.24875242027E+03  0.00000000000E+00 0.  1.
</event>
<event>
12    1  0.8747122E-002  0.1743699E+03  0.7818608E-02  0.1173495E+00
         21   -1    0    0  503  502  0.00000000000E+00  0.00000000000E+00  0.92753189509E+02  0.92753189509E+02  0.00000000000E+00 0. -1.
         21   -1    0    0  501  503 -0.00000000000E+00 -0.00000000000E+00 -0.34449618639E+03  0.34449618639E+03  0.00000000000E+00 0. -1.
          6    2    1    2  501    0 -0.34824068621E+02 -0.84068446232E+01 -0.17554167557E+03  0.24742621297E+03  0.17065011049E+03 0.  0.
         24    2    3    3    0    0 -0.51763405762E+02  0.34893738445E+02 -0.17398776561E+03  0.20066740339E+03  0.78093796456E+02 0.  0.
         -6    2    1    2    0  502  0.34824068621E+02  0.84068446232E+01 -0.76201321314E+02  0.18982316293E+03  0.17012583879E+03 0.  0.
        -24    2    5    5    0    0 -0.26409504043E+02  0.24484827909E+01  0.42897574732E+01  0.88403459416E+02  0.84221806237E+02 0.  0.
          5    1    3    3  501    0  0.16939337141E+02 -0.43300583068E+02 -0.15539099625E+01  0.46758809576E+02  0.47000000000E+01 0. -1.
        -11    1    4    4    0    0 -0.99452930404E+01  0.47507125408E+02 -0.52176276088E+02  0.71261487527E+02  0.00000000000E+00 0.  1.
         12    1    4    4    0    0 -0.41818112722E+02 -0.12613386963E+02 -0.12181148952E+03  0.12940591587E+03  0.00000000000E+00 0. -1.
         -5    1    5    5    0  502  0.61233572664E+02  0.59583618323E+01 -0.80491078788E+02  0.10141970352E+03  0.47000000000E+01 0.  1.
         13    1    6    6    0    0 -0.15192928226E+02  0.41913237834E+02 -0.85892232591E+01  0.45401754702E+02  0.00000000000E+00 0. -1.
        -14    1    6    6    0    0 -0.11216575817E+02 -0.39464755043E+02  0.12878980732E+02  0.43001704715E+02  0.00000000000E+00 0.  1.
</event>
<event>
12    1  0.8747122E-002  0.2052289E+03  0.7818608E-02  0.1145712E+00
         21   -1    0    0  503  502  0.00000000000E+00  0.00000000000E+00  0.42091001699E+03  0.42091001699E+03  0.00000000000E+00 0.  1.
         21   -1    0    0  501  503 -0.00000000000E+00 -0.00000000000E+00 -0.11825131200E+03  0.11825131200E+03  0.00000000000E+00 0.  1.
          6    2    1    2  501    0  0.62161398471E+02  0.89823051817E+02  0.25869924616E+03  0.32927726008E+03  0.17194764885E+03 0.  0.
         24    2    3    3    0    0  0.16142793007E+02  0.12253460906E+03  0.19507688253E+03  0.24408539909E+03  0.79040317331E+02 0.  0.
         -6    2    1    2    0  502 -0.62161398471E+02 -0.89823051817E+02  0.43959458835E+02  0.20988406891E+03  0.17374310997E+03 0.  0.
        -24    2    5    5    0    0  0.33953439490E+01 -0.11138456968E+03  0.42538387023E+02  0.14069812399E+03  0.74621692559E+02 0.  0.
          5    1    3    3  501    0  0.46018605464E+02 -0.32711557248E+02  0.63622363626E+02  0.85191860995E+02  0.47000000000E+01 0. -1.
        -13    1    4    4    0    0 -0.25086884341E+02  0.81543698802E+02  0.14031694052E+03  0.16421805740E+03  0.00000000000E+00 0.  1.
         14    1    4    4    0    0  0.41229677348E+02  0.40990910263E+02  0.54759942011E+02  0.79867341683E+02  0.00000000000E+00 0. -1.
         -5    1    5    5    0  502 -0.65556742420E+02  0.21561517861E+02  0.14210718123E+01  0.69185944919E+02  0.47000000000E+01 0.  1.
         13    1    6    6    0    0 -0.18022453835E+02 -0.75082884699E+01  0.27277242762E+02  0.33544466171E+02  0.00000000000E+00 0. -1.
        -14    1    6    6    0    0  0.21417797784E+02 -0.10387628121E+03  0.15261144260E+02  0.10715365782E+03  0.00000000000E+00 0.  1.
</event>
<event>
12    1  0.8747122E-002  0.2127816E+03  0.7818608E-02  0.1139450E+00
         21   -1    0    0  503  502  0.00000000000E+00  0.00000000000E+00  0.25533322007E+03  0.25533322007E+03  0.00000000000E+00 0. -1.
         21   -1    0    0  501  503 -0.00000000000E+00 -0.00000000000E+00 -0.25008365138E+03  0.25008365138E+03  0.00000000000E+00 0. -1.
          6    2    1    2  501    0 -0.94660436334E+02 -0.81731269507E+02 -0.13395797111E+03  0.25114386561E+03  0.17172042565E+03 0.  0.
         24    2    3    3    0    0 -0.13045707481E+03 -0.42774983555E+02 -0.10431783666E+03  0.19031937127E+03  0.80563667052E+02 0.  0.
         -6    2    1    2    0  502  0.94660436334E+02  0.81731269507E+02  0.13920753980E+03  0.25427300585E+03  0.17214942272E+03 0.  0.
        -24    2    5    5    0    0  0.81663510748E+02  0.38108199082E+02  0.17865158480E+02  0.12458894417E+03  0.84155078861E+02 0.  0.
          5    1    3    3  501    0  0.35796638473E+02 -0.38956285952E+02 -0.29640134453E+02  0.60824494339E+02  0.47000000000E+01 0. -1.
        -13    1    4    4    0    0 -0.51221850135E-01  0.16071426200E+02 -0.92225312824E+01  0.18529663976E+02  0.00000000000E+00 0.  1.
         14    1    4    4    0    0 -0.13040585296E+03 -0.58846409755E+02 -0.95095305377E+02  0.17178970729E+03  0.00000000000E+00 0. -1.
         -5    1    5    5    0  502  0.12996925586E+02  0.43623070425E+02  0.12134238132E+03  0.12968406167E+03  0.47000000000E+01 0.  1.
         11    1    6    6    0    0 -0.16981613681E+02  0.12928442329E+02  0.54414621749E+01  0.22025651747E+02  0.00000000000E+00 0. -1.
        -12    1    6    6    0    0  0.98645124429E+02  0.25179756753E+02  0.12423696305E+02  0.10256329243E+03  0.00000000000E+00 0.  1.
</event>
<event>
12    1  0.8747122E-002  0.1823800E+03  0.7818608E-02  0.1167281E+00
         21   -1    0    0  501  502  0.00000000000E+00  0.00000000000E+00  0.11056900614E+04  0.11056900614E+04  0.00000000000E+00 0. -1.
         21   -1    0    0  502  503 -0.00000000000E+00 -0.00000000000E+00 -0.12150583453E+03  0.12150583453E+03  0.00000000000E+00 0. -1.
         -6    2    1    2    0  503  0.15117761103E+02  0.55517154140E+02 -0.41189820870E+02  0.18697347063E+03  0.17306581486E+03 0.  0.
        -24    2    3    3    0    0  0.14220420337E+02  0.14552207315E+02 -0.90895443981E+02  0.12238499598E+03  0.79385882955E+02 0.  0.
          6    2    1    2  501    0 -0.15117761103E+02 -0.55517154140E+02  0.10253740477E+04  0.10402224253E+04  0.16540875189E+03 0.  0.
         24    2    5    5    0    0 -0.23426596220E+02  0.12587322117E+02  0.80337107399E+03  0.80781186878E+03  0.80297488907E+02 0.  0.
          5    1    5    5  501    0  0.83088351171E+01 -0.68104476257E+02  0.22200297376E+03  0.23241055653E+03  0.47000000000E+01 0. -1.
        -13    1    6    6    0    0  0.45911126601E+01 -0.28999861309E+02  0.17526348247E+03  0.17770582027E+03  0.00000000000E+00 0.  1.
         14    1    6    6    0    0 -0.28017708880E+02  0.41587183426E+02  0.62810759152E+03  0.63010604851E+03  0.00000000000E+00 0. -1.
         -5    1    3    3    0  503  0.89734076610E+00  0.40964946825E+02  0.49705623111E+02  0.64588474650E+02  0.47000000000E+01 0.  1.
         13    1    4    4    0    0 -0.20246391658E+02 -0.21427212714E+02 -0.19583445647E+02  0.35391427822E+02  0.00000000000E+00 0. -1.
        -14    1    4    4    0    0  0.34466811995E+02  0.35979420029E+02 -0.71311998334E+02  0.86993568159E+02  0.00000000000E+00 0.  1.
</event>
<event>
12    1  0.8747122E-002  0.2362882E+03  0.7818608E-02  0.1122980E+00
         21   -1    0    0  501  502  0.00000000000E+00  0.00000000000E+00  0.67092889921E+03  0.67092889921E+03  0.00000000000E+00 0.  1.
         21   -1    0    0  502  503 -0.00000000000E+00 -0.00000000000E+00 -0.90300730888E+02  0.90300730888E+02  0.00000000000E+00 0. -1.
         -6    2    1    2    0  503 -0.37594443883E+01  0.15635930767E+03  0.17583835228E+03  0.29453563850E+03  0.17711507473E+03 0.  0.
        -24    2    3    3    0    0  0.51125176786E+02  0.12854317742E+03  0.16758521798E+03  0.23227599692E+03  0.82037804071E+02 0.  0.
          6    2    1    2  501    0  0.37594443883E+01 -0.15635930767E+03  0.40478981605E+03  0.46669399160E+03  0.17171522969E+03 0.  0.
         24    2    5    5    0    0  0.18838729358E+02 -0.17376581043E+02  0.21413297822E+03  0.23022897739E+03  0.80595324785E+02 0.  0.
          5    1    5    5  501    0 -0.15079284970E+02 -0.13898272663E+03  0.19065683783E+03  0.23646501421E+03  0.47000000000E+01 0. -1.
        -13    1    6    6    0    0 -0.86796594559E+01  0.27127528980E+02  0.11081380569E+03  0.11441564075E+03  0.00000000000E+00 0.  1.
         14    1    6    6    0    0  0.27518388814E+02 -0.44504110023E+02  0.10331917253E+03  0.11581333664E+03  0.00000000000E+00 0. -1.
         -5    1    3    3    0  503 -0.54884621174E+02  0.27816130254E+02  0.82531342955E+01  0.62259641578E+02  0.47000000000E+01 0.  1.
         13    1    4    4    0    0 -0.10516062070E+02  0.75776327464E+01 -0.39165897432E+01  0.13540596542E+02  0.00000000000E+00 0. -1.
        -14    1    4    4    0    0  0.61641238856E+02  0.12096554467E+03  0.17150180773E+03  0.21873540038E+03  0.00000000000E+00 0.  1.
</event>
<event>
12    1  0.8747122E-002  0.2637261E+03  0.7818608E-02  0.1105163E+00
         21   -1    0    0  503  502  0.00000000000E+00  0.00000000000E+00  0.24317657296E+03  0.24317657296E+03  0.00000000000E+00 0. -1.
         21   -1    0    0  501  503 -0.00000000000E+00 -0.00000000000E+00 -0.34415836031E+03  0.34415836031E+03  0.00000000000E+00 0. -1.
          6    2    1    2  501    0  0.19552164593E+03  0.29237679608E+02 -0.17312441395E+03  0.31547350625E+03  0.17455060728E+03 0.  0.
         24    2    3    3    0    0  0.38551142848E+02 -0.12485835153E+02 -0.10276741468E+03  0.13840632163E+03  0.83385140473E+02 0.  0.
         -6    2    1    2    0  502 -0.19552164593E+03 -0.29237679608E+02  0.72142626599E+02  0.27186142702E+03  0.17210613293E+03 0.  0.
        -24    2    5    5    0    0 -0.11457365763E+03 -0.35316592913E+01  0.10945975766E+03  0.17897421282E+03  0.83130828630E+02 0.  0.
          5    1    3    3  501    0  0.15697050309E+03  0.41723514761E+02 -0.70356999270E+02  0.17706718462E+03  0.47000000000E+01 0. -1.
        -13    1    4    4    0    0  0.14879014603E+01 -0.34306794826E+02 -0.93899118680E+01  0.35599725657E+02  0.00000000000E+00 0.  1.
         14    1    4    4    0    0  0.37063241388E+02  0.21820959673E+02 -0.93377502815E+02  0.10280659597E+03  0.00000000000E+00 0. -1.
         -5    1    5    5    0  502 -0.80947988302E+02 -0.25706020316E+02 -0.37317131061E+02  0.92887214197E+02  0.47000000000E+01 0.  1.
         13    1    6    6    0    0 -0.62192377109E+02  0.13186288486E+02  0.86719667446E+01  0.64163642211E+02  0.00000000000E+00 0. -1.
        -14    1    6    6    0    0 -0.52381280523E+02 -0.16717947778E+02  0.10078779092E+03  0.11481057061E+03  0.00000000000E+00 0.  1.
</event>
<event>
12    1  0.8747122E-002  0.2124544E+03  0.7818608E-02  0.1141317E+00
         21   -1    0    0  501  502  0.00000000000E+00  0.00000000000E+00  0.42049012101E+03  0.42049012101E+03  0.00000000000E+00 0.  1.
         21   -1    0    0  502  503 -0.00000000000E+00 -0.00000000000E+00 -0.11692929940E+03  0.11692929940E+03  0.00000000000E+00 0.  1.
         -6    2    1    2    0  503  0.10525562505E+03 -0.57621023977E+02  0.56767383073E+02  0.21177566387E+03  0.16500747564E+03 0.  0.
        -24    2    3    3    0    0  0.16240804149E+02 -0.60824638197E+02 -0.80006133284E+01  0.10154461179E+03  0.79271041620E+02 0.  0.
          6    2    1    2  501    0 -0.10525562505E+03  0.57621023977E+02  0.24679343853E+03  0.32564375654E+03  0.17532234844E+03 0.  0.
         24    2    5    5    0    0 -0.86815738385E+02  0.69027347169E+02  0.84881598515E+02  0.16221894947E+03  0.82512754848E+02 0.  0.
          5    1    5    5  501    0 -0.18439886664E+02 -0.11406323192E+02  0.16191184001E+03  0.16342480707E+03  0.47000000000E+01 0. -1.
        -11    1    6    6    0    0 -0.60683669766E+02  0.71194871259E+02  0.95723660050E+02  0.13384407556E+03  0.00000000000E+00 0.  1.
         12    1    6    6    0    0 -0.26132068619E+02 -0.21675240902E+01 -0.10842061535E+02  0.28374873908E+02  0.00000000000E+00 0. -1.
         -5    1    3    3    0  503  0.89014820899E+02  0.32036142198E+01  0.64767996401E+02  0.11023105208E+03  0.47000000000E+01 0.  1.
         11    1    4    4    0    0 -0.31098133342E+02 -0.17526279840E+02  0.51217674284E+01  0.36062402638E+02  0.00000000000E+00 0. -1.
        -12    1    4    4    0    0  0.47338937492E+02 -0.43298358358E+02 -0.13122380757E+02  0.65482209157E+02  0.00000000000E+00 0.  1.
</event>
<event>
12    1  0.8747122E-002  0.1873804E+03  0.7818608E-02  0.1164267E+00
         21   -1    0    0  503  502  0.00000000000E+00  0.00000000000E+00  0.36847692073E+03  0.36847692073E+03  0.00000000000E+00 0. -1.
         21   -1    0    0  501  503 -0.00000000000E+00 -0.00000000000E+00 -0.12510826205E+03  0.12510826205E+03  0.00000000000E+00 0. -1.
          6    2    1    2  501    0 -0.31599768449E+01 -0.16895364535E+02 -0.89562524512E+01  0.18759435178E+03  0.18659042731E+03 0.  0.
         24    2    3    3    0    0 -0.75417478407E+01  0.47828127991E+02  0.43874948322E+02  0.10379962535E+03  0.80653228984E+02 0.  0.
         -6    2    1    2    0  502  0.31599768449E+01  0.16895364535E+02  0.25232491113E+03  0.30599083100E+03  0.17224136867E+03 0.  0.
        -24    2    5    5    0    0  0.83857091315E+01  0.15356716490E+02  0.27241067957E+03  0.28465532516E+03  0.80715097334E+02 0.  0.
          5    1    3    3  501    0  0.43817709958E+01 -0.64723492526E+02 -0.52831200774E+02  0.83794726427E+02  0.47000000000E+01 0. -1.
        -13    1    4    4    0    0 -0.38252232979E+02  0.50377196399E+02  0.29687889404E+02  0.69874645059E+02  0.00000000000E+00 0.  1.
         14    1    4    4    0    0  0.30710485138E+02 -0.25490684085E+01  0.14187058918E+02  0.33924980294E+02  0.00000000000E+00 0. -1.
         -5    1    5    5    0  502 -0.52257322866E+01  0.15386480452E+01 -0.20085768440E+02  0.21335505842E+02  0.47000000000E+01 0.  1.
         11    1    6    6    0    0 -0.33745439847E+02 -0.70737580259E+01  0.12792841493E+03  0.13249329081E+03  0.00000000000E+00 0. -1.
        -12    1    6    6    0    0  0.42131148979E+02  0.22430474516E+02  0.14448226464E+03  0.15216203435E+03  0.00000000000E+00 0.  1.
</event>
<event>
12    1  0.8747122E-002  0.1713951E+03  0.7818608E-02  0.1178917E+00
         21   -1    0    0  501  502  0.00000000000E+00  0.00000000000E+00  0.88230071925E+03  0.88230071925E+03  0.00000000000E+00 0.  1.
         21   -1    0    0  502  503 -0.00000000000E+00 -0.00000000000E+00 -0.31792384868E+02  0.31792384868E+02  0.00000000000E+00 0.  1.
         -6    2    1    2    0  503 -0.20367378160E+01 -0.69880086457E+01  0.39209126070E+03  0.42791568551E+03  0.17124046433E+03 0.  0.
        -24    2    3    3    0    0 -0.60687022928E+02 -0.19533257905E+02  0.31042401850E+03  0.32648162974E+03  0.78502995961E+02 0.  0.
          6    2    1    2  501    0  0.20367378160E+01  0.69880086457E+01  0.45841707369E+03  0.48617741861E+03  0.16176924416E+03 0.  0.
         24    2    5    5    0    0 -0.59707038093E+02  0.26273330918E+01  0.26514284068E+03  0.28317907256E+03  0.79484765184E+02 0.  0.
          5    1    5    5  501    0  0.61743775909E+02  0.43606755539E+01  0.19327423301E+03  0.20299834605E+03  0.47000000000E+01 0. -1.
        -11    1    6    6    0    0  0.14586131805E+02 -0.15395034739E+02  0.38011868329E+02  0.43527743676E+02  0.00000000000E+00 0.  1.
         12    1    6    6    0    0 -0.74293169899E+02  0.18022367831E+02  0.22713097235E+03  0.23965132889E+03  0.00000000000E+00 0. -1.
         -5    1    3    3    0  503  0.58650285112E+02  0.12545249259E+02  0.81667242195E+02  0.10143405577E+03  0.47000000000E+01 0.  1.
         13    1    4    4    0    0 -0.48942511431E+01 -0.36877558042E+02  0.17633516824E+03  0.18021653514E+03  0.00000000000E+00 0. -1.
        -14    1    4    4    0    0 -0.55792771785E+02  0.17344300137E+02  0.13408885027E+03  0.14626509459E+03  0.00000000000E+00 0.  1.
</event>
<event>
12    1  0.8747122E-002  0.2283914E+03  0.7818608E-02  0.1129518E+00
         21   -1    0    0  501  502  0.00000000000E+00  0.00000000000E+00  0.13595805208E+03  0.13595805208E+03  0.00000000000E+00 0.  1.
         21   -1    0    0  502  503 -0.00000000000E+00 -0.00000000000E+00 -0.51290134736E+03  0.51290134736E+03  0.00000000000E+00 0. -1.
         -6    2    1    2    0  503 -0.75607610960E+02  0.12786606320E+03 -0.35814269295E+03  0.41969553398E+03  0.16066085951E+03 0.  0.
        -24    2    3    3    0    0  0.14041856852E+01  0.10135957391E+03 -0.26646853715E+03  0.29697776168E+03  0.83153921625E+02 0.  0.
          6    2    1    2  501    0  0.75607610960E+02 -0.12786606320E+03 -0.18800602336E+02  0.22916386546E+03  0.17348306440E+03 0.  0.
         24    2    5    5    0    0 -0.21615760523E+02 -0.80378159939E+02  0.14669293662E+02  0.11580686807E+03  0.79171666766E+02 0.  0.
          5    1    5    5  501    0  0.97223371483E+02 -0.47487903260E+02 -0.33469895998E+02  0.11335699739E+03  0.47000000000E+01 0. -1.
        -13    1    6    6    0    0 -0.15381312449E+02 -0.13945730478E+02  0.39490174452E+02  0.44615491138E+02  0.00000000000E+00 0.  1.
         14    1    6    6    0    0 -0.62344480746E+01 -0.66432429461E+02 -0.24820880791E+02  0.71191376937E+02  0.00000000000E+00 0. -1.
         -5    1    3    3    0  503 -0.77011796645E+02  0.26506489285E+02 -0.91674155796E+02  0.12271777230E+03  0.47000000000E+01 0.  1.
         13    1    4    4    0    0 -0.10989395083E+02  0.18585242750E+02 -0.16048422001E+03  0.16193011741E+03  0.00000000000E+00 0. -1.
        -14    1    4    4    0    0  0.12393580768E+02  0.82774331164E+02 -0.10598431714E+03  0.13504764428E+03  0.00000000000E+00 0.  1.
</event>
<event>
12    1  0.8747122E-002  0.4117969E+03  0.7818608E-02  0.1039785E+00
         21   -1    0    0  501  502  0.00000000000E+00  0.00000000000E+00  0.38271121234E+03  0.38271121234E+03  0.00000000000E+00 0.  1.
         21   -1    0    0  502  503 -0.00000000000E+00 -0.00000000000E+00 -0.47281053788E+03  0.47281053788E+03  0.00000000000E+00 0. -1.
         -6    2    1    2    0  503 -0.24246819526E+03 -0.28476054523E+03 -0.15264741833E+03  0.43917864304E+03  0.17232890747E+03 0.  0.
        -24    2    3    3    0    0 -0.14913998278E+03 -0.25157197510E+03 -0.15471943950E+03  0.33999185106E+03  0.78263405965E+02 0.  0.
          6    2    1    2  501    0  0.24246819526E+03  0.28476054523E+03  0.62548092800E+02  0.41634310718E+03  0.17190091666E+03 0.  0.
         24    2    5    5    0    0  0.16730246267E+03  0.22198743655E+03  0.10684012275E+03  0.30875953759E+03  0.81542039594E+02 0.  0.
          5    1    5    5  501    0  0.75165732583E+02  0.62773108686E+02 -0.44292029948E+02  0.10758356959E+03  0.47000000000E+01 0. -1.
        -11    1    6    6    0    0  0.14555460619E+03  0.22470572163E+03  0.10008989743E+03  0.28582650732E+03  0.00000000000E+00 0.  1.
         12    1    6    6    0    0  0.21747856486E+02 -0.27182850874E+01  0.67502253229E+01  0.22933030272E+02  0.00000000000E+00 0. -1.
         -5    1    3    3    0  503 -0.93328212476E+02 -0.33188570135E+02  0.20720211636E+01  0.99186791980E+02  0.47000000000E+01 0.  1.
         11    1    4    4    0    0 -0.11862779861E+03 -0.13280790042E+03 -0.11086112689E+03  0.20976339641E+03  0.00000000000E+00 0. -1.
        -12    1    4    4    0    0 -0.30512184171E+02 -0.11876407468E+03 -0.43858312602E+02  0.13022845466E+03  0.00000000000E+00 0.  1.
</event>
<event>
12    1  0.8747122E-002  0.2267255E+03  0.7818608E-02  0.1129116E+00
         21   -1    0    0  503  502  0.00000000000E+00  0.00000000000E+00  0.40868175448E+03  0.40868175448E+03  0.00000000000E+00 0.  1.
         21   -1    0    0  501  503 -0.00000000000E+00 -0.00000000000E+00 -0.13911774990E+03  0.13911774990E+03  0.00000000000E+00 0. -1.
          6    2    1    2  501    0  0.14604461124E+03 -0.17717444209E+02  0.48741794409E+02  0.23190560266E+03  0.17251524490E+03 0.  0.
         24    2    3    3    0    0  0.29945551906E+02 -0.50844889085E+02  0.42804155316E+02  0.11093550413E+03  0.83621477736E+02 0.  0.
         -6    2    1    2    0  502 -0.14604461124E+03  0.17717444209E+02  0.22082221017E+03  0.31589390173E+03  0.17141637128E+03 0.  0.
        -24    2    5    5    0    0 -0.12450901649E+03  0.12039418667E+02  0.71650064617E+02  0.16499512498E+03  0.80263420800E+02 0.  0.
          5    1    3    3  501    0  0.11609905933E+03  0.33127444876E+02  0.59376390927E+01  0.12097009853E+03  0.47000000000E+01 0. -1.
        -11    1    4    4    0    0  0.30057114984E+02  0.11991935867E+02  0.34914454808E+02  0.47605208135E+02  0.00000000000E+00 0.  1.
         12    1    4    4    0    0 -0.11156307859E+00 -0.62836824952E+02  0.78897005079E+01  0.63330295993E+02  0.00000000000E+00 0. -1.
         -5    1    5    5    0  502 -0.21535594750E+02  0.56780255417E+01  0.14917214555E+03  0.15089877675E+03  0.47000000000E+01 0.  1.
         13    1    6    6    0    0 -0.87269061883E+02 -0.29300390691E+02  0.53479387100E+02  0.10646335943E+03  0.00000000000E+00 0. -1.
        -14    1    6    6    0    0 -0.37239954603E+02  0.41339809358E+02  0.18170677516E+02  0.58531765547E+02  0.00000000000E+00 0.  1.
</event>
<event>
12    1  0.8747122E-002  0.4361496E+03  0.7818608E-02  0.1031971E+00
         21   -1    0    0  503  502  0.00000000000E+00  0.00000000000E+00  0.40279127448E+03  0.40279127448E+03  0.00000000000E+00 0. -1.
         21   -1    0    0  501  503 -0.00000000000E+00 -0.00000000000E+00 -0.87631379049E+03  0.87631379049E+03  0.00000000000E+00 0.  1.
          6    2    1    2  501    0 -0.20995065943E+03 -0.34084036900E+03 -0.67123616442E+03  0.80023437981E+03  0.17194661287E+03 0.  0.
         24    2    3    3    0    0 -0.54849922651E+02 -0.12822028012E+03 -0.16796735882E+03  0.23228621190E+03  0.79340382923E+02 0.  0.
         -6    2    1    2    0  502  0.20995065943E+03  0.34084036900E+03  0.19771364841E+03  0.47887068515E+03  0.17313292524E+03 0.  0.
        -24    2    5    5    0    0  0.13709193615E+03  0.19070676160E+03  0.44529089478E+02  0.25229598947E+03  0.80666961130E+02 0.  0.
          5    1    3    3  501    0 -0.15510073678E+03 -0.21262008888E+03 -0.50326880560E+03  0.56794816791E+03  0.47000000000E+01 0. -1.
        -11    1    4    4    0    0 -0.71455863298E+02 -0.12107821335E+03 -0.15854287751E+03  0.21190025521E+03  0.00000000000E+00 0.  1.
         12    1    4    4    0    0  0.16605940647E+02 -0.71420667725E+01 -0.94244813129E+01  0.20385956700E+02  0.00000000000E+00 0. -1.
         -5    1    5    5    0  502  0.72858723278E+02  0.15013360740E+03  0.15318455893E+03  0.22657469568E+03  0.47000000000E+01 0.  1.
         13    1    6    6    0    0  0.14352315957E+03  0.15989188931E+03  0.27805411548E+02  0.21665053545E+03  0.00000000000E+00 0. -1.
        -14    1    6    6    0    0 -0.64312234208E+01  0.30814872293E+02  0.16723677930E+02  0.35645454025E+02  0.00000000000E+00 0.  1.
</event>
<event>
12    1  0.8747122E-002  0.2287936E+03  0.7818608E-02  0.1127595E+00
         21   -1    0    0  503  502  0.00000000000E+00  0.00000000000E+00  0.47434502875E+02  0.47434502875E+02  0.00000000000E+00 0. -1.
         21   -1    0    0  501  503 -0.00000000000E+00 -0.00000000000E+00 -0.11088951131E+04  0.11088951131E+04  0.00000000000E+00 0. -1.
          6    2    1    2  501    0 -0.94587818546E+02 -0.11612890311E+03 -0.48049478478E+03  0.53193565753E+03  0.17218457537E+03 0.  0.
         24    2    3    3    0    0 -0.63740810621E+02 -0.63846815818E+01 -0.32320684436E+03  0.33762426245E+03  0.73646610621E+02 0.  0.
         -6    2    1    2    0  502  0.94587818546E+02  0.11612890311E+03 -0.58096582544E+03  0.62439395844E+03  0.17295591187E+03 0.  0.
        -24    2    5    5    0    0  0.29261873731E+02  0.67764018424E+02 -0.49541362766E+03  0.50629268968E+03  0.73820090138E+02 0.  0.
          5    1    3    3  501    0 -0.30847007925E+02 -0.10974422153E+03 -0.15728794043E+03  0.19431139509E+03  0.47000000000E+01 0. -1.
        -11    1    4    4    0    0 -0.15688660978E+02 -0.22747142484E+02 -0.22855925022E+03  0.23022358140E+03  0.00000000000E+00 0.  1.
         12    1    4    4    0    0 -0.48052149643E+02  0.16362460902E+02 -0.94647594140E+02  0.10740068104E+03  0.00000000000E+00 0. -1.
         -5    1    5    5    0  502  0.65325944815E+02  0.48364884687E+02 -0.85552197779E+02  0.11810126876E+03  0.47000000000E+01 0.  1.
         11    1    6    6    0    0  0.58205657865E+01  0.73798231794E+02 -0.28367419304E+03  0.29317419020E+03  0.00000000000E+00 0. -1.
        -12    1    6    6    0    0  0.23441307945E+02 -0.60342133702E+01 -0.21173943461E+03  0.21311849948E+03  0.00000000000E+00 0.  1.
</event>
<event>
12    1  0.8747122E-002  0.2442390E+03  0.7818608E-02  0.1118859E+00
         21   -1    0    0  501  502  0.00000000000E+00  0.00000000000E+00  0.77461496076E+03  0.77461496076E+03  0.00000000000E+00 0. -1.
         21   -1    0    0  502  503 -0.00000000000E+00 -0.00000000000E+00 -0.86728803421E+02  0.86728803421E+02  0.00000000000E+00 0. -1.
         -6    2    1    2    0  503 -0.10372718670E+03  0.11559614292E+03  0.16923179295E+03  0.28805933533E+03  0.17383032936E+03 0.  0.
        -24    2    3    3    0    0 -0.53822877678E+01  0.48450146107E+01  0.40752671486E+02  0.91930535248E+02  0.82085320792E+02 0.  0.
          6    2    1    2  501    0  0.10372718670E+03 -0.11559614292E+03  0.51865436439E+03  0.57328442885E+03  0.18849639026E+03 0.  0.
         24    2    5    5    0    0  0.92326619930E+02 -0.95463148792E+02  0.18860939814E+03  0.24239610914E+03  0.74464428647E+02 0.  0.
          5    1    5    5  501    0  0.11400566774E+02 -0.20132994131E+02  0.33004496625E+03  0.33088831971E+03  0.47000000000E+01 0. -1.
        -13    1    6    6    0    0  0.48907768964E+01 -0.37292794893E+02  0.17164805556E+02  0.41343715355E+02  0.00000000000E+00 0.  1.
         14    1    6    6    0    0  0.87435843034E+02 -0.58170353899E+02  0.17144459258E+03  0.20105239378E+03  0.00000000000E+00 0. -1.
         -5    1    3    3    0  503 -0.98344898937E+02  0.11075112831E+03  0.12847912146E+03  0.19612880008E+03  0.47000000000E+01 0.  1.
         13    1    4    4    0    0  0.14082146324E+02  0.38916201161E+02  0.11398607161E+02  0.42926749273E+02  0.00000000000E+00 0. -1.
        -14    1    4    4    0    0 -0.19464434092E+02 -0.34071186551E+02  0.29354064325E+02  0.49003785975E+02  0.00000000000E+00 0.  1.
</event>
<event>
12    1  0.8747122E-002  0.2054782E+03  0.7818608E-02  0.1145389E+00
         21   -1    0    0  501  502  0.00000000000E+00  0.00000000000E+00  0.45239314559E+02  0.45239314559E+02  0.00000000000E+00 0.  1.
         21   -1    0    0  502  503 -0.00000000000E+00 -0.00000000000E+00 -0.13172980488E+04  0.13172980488E+04  0.00000000000E+00 0.  1.
         -6    2    1    2    0  503 -0.65524654044E+02  0.89126291737E+02 -0.10069110603E+04  0.10276629705E+04  0.17315981472E+03 0.  0.
        -24    2    3    3    0    0 -0.97768011455E+02  0.66112781848E+02 -0.49400929668E+03  0.51321222956E+03  0.73567135186E+02 0.  0.
          6    2    1    2  501    0  0.65524654044E+02 -0.89126291737E+02 -0.26514767391E+03  0.33487439282E+03  0.17204823109E+03 0.  0.
         24    2    5    5    0    0 -0.56219286785E+01 -0.26145712960E+02 -0.42561784441E+02  0.92810439024E+02  0.78019662322E+02 0.  0.
          5    1    5    5  501    0  0.71146582723E+02 -0.62980578777E+02 -0.22258588947E+03  0.24206395379E+03  0.47000000000E+01 0. -1.
        -11    1    6    6    0    0  0.22755913640E+02 -0.42946532088E+02 -0.31962078407E+02  0.58170531027E+02  0.00000000000E+00 0.  1.
         12    1    6    6    0    0 -0.28377842318E+02  0.16800819128E+02 -0.10599706034E+02  0.34639907997E+02  0.00000000000E+00 0. -1.
         -5    1    3    3    0  503  0.32243357411E+02  0.23013509889E+02 -0.51290176363E+03  0.51445074096E+03  0.47000000000E+01 0.  1.
         13    1    4    4    0    0 -0.54792078224E+02  0.22410335589E+02 -0.11564981824E+03  0.12992026568E+03  0.00000000000E+00 0. -1.
        -14    1    4    4    0    0 -0.42975933231E+02  0.43702446258E+02 -0.37835947844E+03  0.38329196388E+03  0.00000000000E+00 0.  1.
</event>
<event>
12    1  0.8747122E-002  0.2631768E+03  0.7818608E-02  0.1105533E+00
         21   -1    0    0  501  502  0.00000000000E+00  0.00000000000E+00  0.40844096105E+02  0.40844096105E+02  0.00000000000E+00 0.  1.
         21   -1    0    0  502  503 -0.00000000000E+00 -0.00000000000E+00 -0.36007866562E+04  0.36007866562E+04  0.00000000000E+00 0. -1.
         -6    2    1    2    0  503  0.19373936964E+03 -0.38063456042E+02 -0.31116593421E+04  0.31227689454E+04  0.17400647986E+03 0.  0.
        -24    2    3    3    0    0  0.13078638144E+03 -0.47194421660E+02 -0.12789899227E+04  0.12889898573E+04  0.79669559868E+02 0.  0.
          6    2    1    2  501    0 -0.19373936964E+03  0.38063456042E+02 -0.44828321805E+03  0.51886180696E+03  0.17110219491E+03 0.  0.
         24    2    5    5    0    0 -0.20108751941E+03 -0.39307673281E+01 -0.39419645052E+03  0.44983298310E+03  0.80667401641E+02 0.  0.
          5    1    5    5  501    0  0.73481497757E+01  0.41994223370E+02 -0.54086767525E+02  0.69028823856E+02  0.47000000000E+01 0. -1.
        -13    1    6    6    0    0 -0.15971406610E+03  0.25191334567E+02 -0.25729503922E+03  0.30388142993E+03  0.00000000000E+00 0.  1.
         14    1    6    6    0    0 -0.41373453313E+02 -0.29122101895E+02 -0.13690141130E+03  0.14595155318E+03  0.00000000000E+00 0. -1.
         -5    1    3    3    0  503  0.62952988195E+02  0.91309656175E+01 -0.18326694193E+04  0.18337790881E+04  0.47000000000E+01 0.  1.
         11    1    4    4    0    0  0.91225392132E+02 -0.57444461215E+02 -0.11058452771E+04  0.11110876272E+04  0.00000000000E+00 0. -1.
        -12    1    4    4    0    0  0.39560989310E+02  0.10250039555E+02 -0.17314464560E+03  0.17790223014E+03  0.00000000000E+00 0.  1.
</event>
<event>
12    1  0.8747122E-002  0.2339200E+03  0.7818608E-02  0.1124137E+00
         21   -1    0    0  503  502  0.00000000000E+00  0.00000000000E+00  0.10794295518E+04  0.10794295518E+04  0.00000000000E+00 0.  1.
         21   -1    0    0  501  503 -0.00000000000E+00 -0.00000000000E+00 -0.51167774404E+02  0.51167774404E+02  0.00000000000E+00 0.  1.
          6    2    1    2  501    0 -0.79184762374E+01  0.15840162334E+03  0.58439720636E+03  0.62947490298E+03  0.17194412503E+03 0.  0.
         24    2    3    3    0    0 -0.47419060110E+02  0.16558998574E+03  0.51761122481E+03  0.55140809817E+03  0.80379724112E+02 0.  0.
         -6    2    1    2    0  502  0.79184762374E+01 -0.15840162334E+03  0.44386457099E+03  0.50112242318E+03  0.17015918750E+03 0.  0.
        -24    2    5    5    0    0 -0.51270300475E+02 -0.11384577713E+03  0.35959446885E+03  0.38881892886E+03  0.79262051048E+02 0.  0.
          5    1    3    3  501    0  0.39500583872E+02 -0.71883623946E+01  0.66785981554E+02  0.78066804804E+02  0.47000000000E+01 0. -1.
        -13    1    4    4    0    0 -0.61968603930E+02  0.12301999425E+03  0.44646856784E+03  0.46723464012E+03  0.00000000000E+00 0.  1.
         14    1    4    4    0    0  0.14549543820E+02  0.42569991488E+02  0.71142656965E+02  0.84173458054E+02  0.00000000000E+00 0. -1.
         -5    1    5    5    0  502  0.59188776713E+02 -0.44555846215E+02  0.84270102146E+02  0.11230349432E+03  0.47000000000E+01 0.  1.
         13    1    6    6    0    0 -0.37821288442E+02 -0.10676542037E+03  0.21126463712E+03  0.23971243552E+03  0.00000000000E+00 0. -1.
        -14    1    6    6    0    0 -0.13449012034E+02 -0.70803567567E+01  0.14832983172E+03  0.14910649334E+03  0.00000000000E+00 0.  1.
</event>
<event>
12    1  0.8747122E-002  0.3428666E+03  0.7818608E-02  0.1065654E+00
         21   -1    0    0  501  502  0.00000000000E+00  0.00000000000E+00  0.12068979217E+04  0.12068979217E+04  0.00000000000E+00 0.  1.
         21   -1    0    0  502  503 -0.00000000000E+00 -0.00000000000E+00 -0.11621235279E+03  0.11621235279E+03  0.00000000000E+00 0. -1.
         -6    2    1    2    0  503 -0.28302225766E+03 -0.83930980741E+02  0.27828896575E+03  0.44159057598E+03  0.17438887716E+03 0.  0.
        -24    2    3    3    0    0 -0.24801356370E+03 -0.10295971937E+02  0.21876713934E+03  0.34053286478E+03  0.80540895962E+02 0.  0.
          6    2    1    2  501    0  0.28302225766E+03  0.83930980741E+02  0.81239660316E+03  0.88151969851E+03  0.17303967803E+03 0.  0.
         24    2    5    5    0    0  0.21181679125E+03  0.17139632633E+02  0.68076496767E+03  0.71756763207E+03  0.79386682260E+02 0.  0.
          5    1    5    5  501    0  0.71205466408E+02  0.66791348109E+02  0.13163163549E+03  0.16395206644E+03  0.47000000000E+01 0. -1.
        -13    1    6    6    0    0  0.13255706616E+03  0.48973803317E+02  0.43574511159E+03  0.45808690384E+03  0.00000000000E+00 0.  1.
         14    1    6    6    0    0  0.79259725092E+02 -0.31834170684E+02  0.24501985609E+03  0.25948072823E+03  0.00000000000E+00 0. -1.
         -5    1    3    3    0  503 -0.35008693963E+02 -0.73635008804E+02  0.59521826409E+02  0.10105771120E+03  0.47000000000E+01 0.  1.
         11    1    4    4    0    0 -0.12550666002E+02 -0.21351259969E+02  0.15063139780E+02  0.28987819846E+02  0.00000000000E+00 0. -1.
        -12    1    4    4    0    0 -0.23546289770E+03  0.11055288033E+02  0.20370399956E+03  0.31154504493E+03  0.00000000000E+00 0.  1.
</event>
<event>
12    1  0.8747122E-002  0.1942092E+03  0.7818608E-02  0.1154858E+00
         21   -1    0    0  501  502  0.00000000000E+00  0.00000000000E+00  0.53883078487E+02  0.53883078487E+02  0.00000000000E+00 0. -1.
         21   -1    0    0  502  503 -0.00000000000E+00 -0.00000000000E+00 -0.82533523751E+03  0.82533523751E+03  0.00000000000E+00 0. -1.
         -6    2    1    2    0  503  0.28178866657E+02 -0.86253485384E+02 -0.21338015754E+03  0.28852780557E+03  0.17170757319E+03 0.  0.
        -24    2    3    3    0    0  0.32092969897E+02  0.14454667281E+02 -0.13444191055E+03  0.16042320357E+03  0.80137886219E+02 0.  0.
          6    2    1    2  501    0 -0.28178866657E+02  0.86253485384E+02 -0.55807200149E+03  0.59069051043E+03  0.17098891191E+03 0.  0.
         24    2    5    5    0    0 -0.21666306436E+02  0.51026943638E+02 -0.13569221505E+03  0.16676823373E+03  0.79536713197E+02 0.  0.
          5    1    5    5  501    0 -0.65125602217E+01  0.35226541746E+02 -0.42237978644E+03  0.42392227669E+03  0.47000000000E+01 0. -1.
        -13    1    6    6    0    0  0.13707628552E+02 -0.54701873369E+01  0.89266468496E+00  0.14785766137E+02  0.00000000000E+00 0.  1.
         14    1    6    6    0    0 -0.35373934988E+02  0.56497130975E+02 -0.13658487973E+03  0.15198246759E+03  0.00000000000E+00 0. -1.
         -5    1    3    3    0  503 -0.39141032402E+01 -0.10070815266E+03 -0.78938246987E+02  0.12810460200E+03  0.47000000000E+01 0.  1.
         13    1    4    4    0    0  0.33662384714E+02 -0.13398954567E+02 -0.12625237189E+03  0.13134819959E+03  0.00000000000E+00 0. -1.
        -14    1    4    4    0    0 -0.15694148166E+01  0.27853621847E+02 -0.81895386633E+01  0.29075003979E+02  0.00000000000E+00 0.  1.
</event>
<event>
12    1  0.8747122E-002  0.2454022E+03  0.7818608E-02  0.1116337E+00
         21   -1    0    0  503  502  0.00000000000E+00  0.00000000000E+00  0.19971999278E+03  0.19971999278E+03  0.00000000000E+00 0. -1.
         21   -1    0    0  501  503 -0.00000000000E+00 -0.00000000000E+00 -0.35006437012E+03  0.35006437012E+03  0.00000000000E+00 0. -1.
          6    2    1    2  501    0  0.16479984500E+03  0.55902253150E+02  0.27980486895E+02  0.24643306159E+03  0.17222745245E+03 0.  0.
         24    2    3    3    0    0  0.14697069874E+03  0.24570140708E+02  0.76880299519E+02  0.18549980793E+03  0.79344314137E+02 0.  0.
         -6    2    1    2    0  502 -0.16479984500E+03 -0.55902253150E+02 -0.17832486424E+03  0.30335130131E+03  0.17302659906E+03 0.  0.
        -24    2    5    5    0    0 -0.17259205915E+03 -0.10203992169E+02 -0.10889256508E+03  0.21973321819E+03  0.80826704180E+02 0.  0.
          5    1    3    3  501    0  0.17829146257E+02  0.31332112442E+02 -0.48899812624E+02  0.60933253655E+02  0.47000000000E+01 0. -1.
        -11    1    4    4    0    0  0.21491750034E+01 -0.16583750775E+02  0.15864082865E+02  0.23050138137E+02  0.00000000000E+00 0.  1.
         12    1    4    4    0    0  0.14482152374E+03  0.41153891484E+02  0.61016216654E+02  0.16244966979E+03  0.00000000000E+00 0. -1.
         -5    1    5    5    0  502  0.77922141555E+01 -0.45698260981E+02 -0.69432299159E+02  0.83618083120E+02  0.47000000000E+01 0.  1.
         11    1    6    6    0    0 -0.47640961600E+02 -0.34666462997E+02 -0.12992519294E+02  0.60334322210E+02  0.00000000000E+00 0. -1.
        -12    1    6    6    0    0 -0.12495109755E+03  0.24462470828E+02 -0.95900045789E+02  0.15939889598E+03  0.00000000000E+00 0.  1.
</event>
<event>
12    1  0.8747122E-002  0.2718753E+03  0.7818608E-02  0.1100354E+00
         21   -1    0    0  501  502  0.00000000000E+00  0.00000000000E+00  0.42544478716E+03  0.42544478716E+03  0.00000000000E+00 0.  1.
         21   -1    0    0  502  503 -0.00000000000E+00 -0.00000000000E+00 -0.19905754609E+03  0.19905754609E+03  0.00000000000E+00 0. -1.
         -6    2    1    2    0  503 -0.16552852890E+03  0.13002502644E+03  0.61267555111E+00  0.27187595842E+03  0.17207544861E+03 0.  0.
        -24    2    3    3    0    0 -0.99155139218E+02  0.28885432682E+02 -0.51543856344E+02  0.14005396442E+03  0.79323602842E+02 0.  0.
          6    2    1    2  501    0  0.16552852890E+03 -0.13002502644E+03  0.22577456552E+03  0.35262637483E+03  0.17048461635E+03 0.  0.
         24    2    5    5    0    0  0.69015489444E+02 -0.30094759076E+01  0.54143152670E+02  0.11826095772E+03  0.79258932690E+02 0.  0.
          5    1    5    5  501    0  0.96513039460E+02 -0.12701555053E+03  0.17163141285E+03  0.23436541712E+03  0.47000000000E+01 0. -1.
        -13    1    6    6    0    0  0.68819629873E+02 -0.17344029734E+02  0.68023527147E+02  0.98306444696E+02  0.00000000000E+00 0.  1.
         14    1    6    6    0    0  0.19585957065E+00  0.14334553826E+02 -0.13880374477E+02  0.19954513023E+02  0.00000000000E+00 0. -1.
         -5    1    3    3    0  503 -0.66373389686E+02  0.10113959376E+03  0.52156531895E+02  0.13182199401E+03  0.47000000000E+01 0.  1.
         13    1    4    4    0    0 -0.49637401514E+02 -0.83643744839E+01  0.11524061815E+02  0.51639504164E+02  0.00000000000E+00 0. -1.
        -14    1    4    4    0    0 -0.49517737704E+02  0.37249807166E+02 -0.63067918159E+02  0.88414460254E+02  0.00000000000E+00 0.  1.
</event>
<event>
12    1  0.8747122E-002  0.2119418E+03  0.7818608E-02  0.1140066E+00
         21   -1    0    0  503  502  0.00000000000E+00  0.00000000000E+00  0.83569950050E+02  0.83569950050E+02  0.00000000000E+00 0. -1.
         21   -1    0    0  501  503 -0.00000000000E+00 -0.00000000000E+00 -0.53713730900E+03  0.53713730900E+03  0.00000000000E+00 0.  1.
          6    2    1    2  501    0  0.93332727606E+02  0.79366092200E+02 -0.22742458417E+03  0.31087178437E+03  0.17294319933E+03 0.  0.
         24    2    3    3    0    0  0.29115904893E+02  0.65062578794E+02 -0.20438421339E+03  0.24100520079E+03  0.10597039703E+03 0.  0.
         -6    2    1    2    0  502 -0.93332727606E+02 -0.79366092200E+02 -0.22614277477E+03  0.30983547468E+03  0.17276426759E+03 0.  0.
        -24    2    5    5    0    0 -0.10799776754E+03 -0.98336425198E+02 -0.23105484092E+03  0.28491248682E+03  0.80344354597E+02 0.  0.
          5    1    3    3  501    0  0.64216822713E+02  0.14303513405E+02 -0.23040370784E+02  0.69866583578E+02  0.47000000000E+01 0. -1.
        -13    1    4    4    0    0  0.18389002581E+02  0.94353113560E+02 -0.14587258790E+03  0.17469824657E+03  0.00000000000E+00 0.  1.
         14    1    4    4    0    0  0.10726902312E+02 -0.29290534766E+02 -0.58511625489E+02  0.66306954216E+02  0.00000000000E+00 0. -1.
         -5    1    5    5    0  502  0.14665039933E+02  0.18970332998E+02  0.49120661491E+01  0.24922987865E+02  0.47000000000E+01 0.  1.
         13    1    6    6    0    0 -0.87728962619E+02 -0.32221117299E+02 -0.10093831862E+03  0.13756131523E+03  0.00000000000E+00 0. -1.
        -14    1    6    6    0    0 -0.20268804920E+02 -0.66115307899E+02 -0.13011652230E+03  0.14735117158E+03  0.00000000000E+00 0.  1.
</event>
<event>
12    1  0.8747122E-002  0.2087859E+03  0.7818608E-02  0.1142668E+00
         21   -1    0    0  501  502  0.00000000000E+00  0.00000000000E+00  0.22021077041E+03  0.22021077041E+03  0.00000000000E+00 0.  1.
         21   -1    0    0  502  503 -0.00000000000E+00 -0.00000000000E+00 -0.66345526465E+03  0.66345526465E+03  0.00000000000E+00 0.  1.
         -6    2    1    2    0  503 -0.10264569963E+03  0.59828996358E+02 -0.59186596985E+03  0.62738511390E+03  0.17085405003E+03 0.  0.
        -24    2    3    3    0    0 -0.84032676875E+02 -0.21684415439E+02 -0.27409220138E+03  0.29876201847E+03  0.81243486918E+02 0.  0.
          6    2    1    2  501    0  0.10264569963E+03 -0.59828996358E+02  0.14862147561E+03  0.25628092117E+03  0.17168552380E+03 0.  0.
         24    2    5    5    0    0  0.12268091245E+03 -0.61399248847E+02  0.16591231979E+03  0.22935623477E+03  0.79100635458E+02 0.  0.
          5    1    5    5  501    0 -0.20035212815E+02  0.15702524888E+01 -0.17290844179E+02  0.26924686402E+02  0.47000000000E+01 0. -1.
        -11    1    6    6    0    0  0.11387288480E+03 -0.28118465598E+02  0.96547540852E+02  0.15191810177E+03  0.00000000000E+00 0.  1.
         12    1    6    6    0    0  0.88080276450E+01 -0.33280783249E+02  0.69364778942E+02  0.77438132999E+02  0.00000000000E+00 0. -1.
         -5    1    3    3    0  503 -0.18613022757E+02  0.81513411797E+02 -0.31777376847E+03  0.32862309543E+03  0.47000000000E+01 0.  1.
         11    1    4    4    0    0 -0.95045675364E+02 -0.10638508534E+02 -0.26234798811E+03  0.27923704112E+03  0.00000000000E+00 0. -1.
        -12    1    4    4    0    0  0.11012998489E+02 -0.11045906905E+02 -0.11744213271E+02  0.19524977348E+02  0.00000000000E+00 0.  1.
</event>
<event>
12    1  0.8747122E-002  0.2168374E+03  0.7818608E-02  0.1136417E+00
         21   -1    0    0  503  502  0.00000000000E+00  0.00000000000E+00  0.40514815027E+03  0.40514815027E+03  0.00000000000E+00 0. -1.
         21   -1    0    0  501  503 -0.00000000000E+00 -0.00000000000E+00 -0.11616006448E+03  0.11616006448E+03  0.00000000000E+00 0. -1.
          6    2    1    2  501    0  0.12138926670E+03 -0.50241888519E+02  0.12697105122E+03  0.25127698274E+03  0.17250760208E+03 0.  0.
         24    2    3    3    0    0  0.17791938631E+02  0.52076220012E+01  0.99273294705E+02  0.13046179199E+03  0.82591886527E+02 0.  0.
         -6    2    1    2    0  502 -0.12138926670E+03  0.50241888519E+02  0.16201703457E+03  0.27003123201E+03  0.17148686636E+03 0.  0.
        -24    2    5    5    0    0 -0.14524174101E+03  0.65876856137E+02  0.16274755316E+03  0.24111728381E+03  0.78840693697E+02 0.  0.
          5    1    3    3  501    0  0.10359732807E+03 -0.55449510520E+02  0.27697756516E+02  0.12081519075E+03  0.47000000000E+01 0. -1.
        -11    1    4    4    0    0  0.24297287648E+02  0.25882127455E+02  0.10256914464E+03  0.10853880477E+03  0.00000000000E+00 0.  1.
         12    1    4    4    0    0 -0.65053490166E+01 -0.20674505453E+02 -0.32958499400E+01  0.21922987214E+02  0.00000000000E+00 0. -1.
         -5    1    5    5    0  502  0.23852474311E+02 -0.15634967618E+02 -0.73051859061E+00  0.28913948201E+02  0.47000000000E+01 0.  1.
         11    1    6    6    0    0 -0.89416556601E+02  0.25939533448E+01  0.10925371496E+03  0.14120348233E+03  0.00000000000E+00 0. -1.
        -12    1    6    6    0    0 -0.55825184412E+02  0.63282902792E+02  0.53493838198E+02  0.99913801477E+02  0.00000000000E+00 0.  1.
</event>
<event>
12    1  0.8747122E-002  0.2776932E+03  0.7818608E-02  0.1097002E+00
         21   -1    0    0  503  502  0.00000000000E+00  0.00000000000E+00  0.86004646627E+02  0.86004646627E+02  0.00000000000E+00 0. -1.
         21   -1    0    0  501  503 -0.00000000000E+00 -0.00000000000E+00 -0.90220697619E+03  0.90220697619E+03  0.00000000000E+00 0. -1.
          6    2    1    2  501    0  0.15480889752E+03  0.15550145367E+03 -0.36585811955E+03  0.45931000887E+03  0.17019701457E+03 0.  0.
         24    2    3    3    0    0  0.37320622866E+02  0.69456472956E+02 -0.76603689097E+02  0.13543125236E+03  0.79097840709E+02 0.  0.
         -6    2    1    2    0  502 -0.15480889752E+03 -0.15550145367E+03 -0.45034421002E+03  0.52890161395E+03  0.16964820334E+03 0.  0.
        -24    2    5    5    0    0 -0.15627129374E+03 -0.68638088117E+02 -0.27504289189E+03  0.33319769213E+03  0.78994969932E+02 0.  0.
          5    1    3    3  501    0  0.11748827465E+03  0.86044980711E+02 -0.28925443045E+03  0.32387875652E+03  0.47000000000E+01 0. -1.
        -11    1    4    4    0    0  0.46431939185E+01 -0.17224215143E+02 -0.20311247956E+02  0.27032936034E+02  0.00000000000E+00 0.  1.
         12    1    4    4    0    0  0.32677428947E+02  0.86680688099E+02 -0.56292441140E+02  0.10839831632E+03  0.00000000000E+00 0. -1.
         -5    1    5    5    0  502  0.14623962180E+01 -0.86863365551E+02 -0.17530131812E+03  0.19570392181E+03  0.47000000000E+01 0.  1.
         11    1    6    6    0    0 -0.26160102933E+02 -0.14329316882E+02 -0.11992719869E+03  0.12358079662E+03  0.00000000000E+00 0. -1.
        -12    1    6    6    0    0 -0.13011119081E+03 -0.54308771235E+02 -0.15511569320E+03  0.20961689551E+03  0.00000000000E+00 0.  1.
</event>
<event>
12    1  0.8747122E-002  0.2326054E+03  0.7818608E-02  0.1124937E+00
         21   -1    0    0  501  502  0.00000000000E+00  0.00000000000E+00  0.85660949491E+02  0.85660949491E+02  0.00000000000E+00 0. -1.
         21   -1    0    0  502  503 -0.00000000000E+00 -0.00000000000E+00 -0.64819546209E+03  0.64819546209E+03  0.00000000000E+00 0. -1.
         -6    2    1    2    0  503  0.11515076978E+03  0.10421120068E+03 -0.21903111257E+03  0.31900718859E+03  0.17225354561E+03 0.  0.
        -24    2    3    3    0    0  0.57209672202E+02  0.12725912951E+03 -0.19277795379E+03  0.25118612875E+03  0.80394646419E+02 0.  0.
          6    2    1    2  501    0 -0.11515076978E+03 -0.10421120068E+03 -0.34350340003E+03  0.41484922299E+03  0.17316355811E+03 0.  0.
         24    2    5    5    0    0 -0.70006069948E+02 -0.13053194286E+03 -0.31025564653E+03  0.35273377802E+03  0.78886716320E+02 0.  0.
          5    1    5    5  501    0 -0.45144699828E+02  0.26320742185E+02 -0.33247753502E+02  0.62115444977E+02  0.47000000000E+01 0. -1.
        -11    1    6    6    0    0 -0.75633163290E+02 -0.13550013260E+03 -0.30802008456E+03  0.34490148422E+03  0.00000000000E+00 0.  1.
         12    1    6    6    0    0  0.56270933425E+01  0.49681897378E+01 -0.22355619670E+01  0.78322937933E+01  0.00000000000E+00 0. -1.
         -5    1    3    3    0  503  0.57941097574E+02 -0.23047928837E+02 -0.26253158778E+02  0.67821059839E+02  0.47000000000E+01 0.  1.
         13    1    4    4    0    0  0.40778036962E+02  0.13639952117E+02 -0.31864646726E+02  0.53518709842E+02  0.00000000000E+00 0. -1.
        -14    1    4    4    0    0  0.16431635241E+02  0.11361917740E+03 -0.16091330707E+03  0.19766741891E+03  0.00000000000E+00 0.  1.
</event>
<event>
12    1  0.8747122E-002  0.1727577E+03  0.7818608E-02  0.1175027E+00
         21   -1    0    0  501  502  0.00000000000E+00  0.00000000000E+00  0.11474739600E+03  0.11474739600E+03  0.00000000000E+00 0.  1.
         21   -1    0    0  502  503 -0.00000000000E+00 -0.00000000000E+00 -0.26011539520E+03  0.26011539520E+03  0.00000000000E+00 0.  1.
         -6    2    1    2    0  503  0.96914443811E+01 -0.63994891678E+01 -0.67980761037E+02  0.18565182096E+03  0.17236686804E+03 0.  0.
        -24    2    3    3    0    0  0.47603373333E+02 -0.59017905291E+02 -0.48815557039E+02  0.11786238877E+03  0.75890643562E+02 0.  0.
          6    2    1    2  501    0 -0.96914443811E+01  0.63994891678E+01 -0.77387238161E+02  0.18921097023E+03  0.17227051132E+03 0.  0.
         24    2    5    5    0    0 -0.27224361383E+02 -0.59285720208E+02 -0.53171671236E+02  0.11688923359E+03  0.81116606406E+02 0.  0.
          5    1    5    5  501    0  0.17532917002E+02  0.65685209376E+02 -0.24215566925E+02  0.72321736641E+02  0.47000000000E+01 0. -1.
        -11    1    6    6    0    0  0.10358011087E+02  0.12483609724E+02  0.52026746917E+01  0.17035161560E+02  0.00000000000E+00 0.  1.
         12    1    6    6    0    0 -0.37582372470E+02 -0.71769329931E+02 -0.58374345927E+02  0.99854072034E+02  0.00000000000E+00 0. -1.
         -5    1    3    3    0  503 -0.37911928952E+02  0.52618416123E+02 -0.19165203998E+02  0.67789432189E+02  0.47000000000E+01 0.  1.
         13    1    4    4    0    0  0.31123028662E+02 -0.13910640181E+02 -0.59583385454E+02  0.68646403005E+02  0.00000000000E+00 0. -1.
        -14    1    4    4    0    0  0.16480344671E+02 -0.45107265110E+02  0.10767828415E+02  0.49215985767E+02  0.00000000000E+00 0.  1.
</event>
<event>
12    1  0.8747122E-002  0.2274627E+03  0.7818608E-02  0.1128717E+00
         21   -1    0    0  501  502  0.00000000000E+00  0.00000000000E+00  0.46986817033E+03  0.46986817033E+03  0.00000000000E+00 0. -1.
         21   -1    0    0  502  503 -0.00000000000E+00 -0.00000000000E+00 -0.12197910701E+03  0.12197910701E+03  0.00000000000E+00 0. -1.
         -6    2    1    2    0  503  0.14153183187E+03 -0.37737741705E+02  0.79312908200E+02  0.24089379008E+03  0.17402265401E+03 0.  0.
        -24    2    3    3    0    0  0.10633101182E+03 -0.78833066669E+02  0.18099610650E+02  0.15905809333E+03  0.86318854669E+02 0.  0.
          6    2    1    2  501    0 -0.14153183187E+03  0.37737741705E+02  0.26857615512E+03  0.35095348726E+03  0.17198779764E+03 0.  0.
         24    2    5    5    0    0 -0.48674435905E+02 -0.11687619929E+02  0.47191067442E+02  0.10580290210E+03  0.80383182791E+02 0.  0.
          5    1    5    5  501    0 -0.92857395966E+02  0.49425361634E+02  0.22138508768E+03  0.24515058516E+03  0.47000000000E+01 0. -1.
        -13    1    6    6    0    0 -0.26304808788E+02 -0.29041673995E+02  0.62386328100E+02  0.73670996515E+02  0.00000000000E+00 0.  1.
         14    1    6    6    0    0 -0.22369627117E+02  0.17354054066E+02 -0.15195260657E+02  0.32131905582E+02  0.00000000000E+00 0. -1.
         -5    1    3    3    0  503  0.35200820047E+02  0.41095324964E+02  0.61213297551E+02  0.81835696752E+02  0.47000000000E+01 0.  1.
         11    1    4    4    0    0  0.56292105713E+02  0.84381420229E+01  0.45142349381E+00  0.56922817829E+02  0.00000000000E+00 0. -1.
        -12    1    4    4    0    0  0.50038906111E+02 -0.87271208692E+02  0.17648187156E+02  0.10213527550E+03  0.00000000000E+00 0.  1.
</event>
<event>
12    1  0.8747122E-002  0.2520645E+03  0.7818608E-02  0.1113214E+00
         21   -1    0    0  501  502  0.00000000000E+00  0.00000000000E+00  0.13948925715E+03  0.13948925715E+03  0.00000000000E+00 0.  1.
         21   -1    0    0  502  503 -0.00000000000E+00 -0.00000000000E+00 -0.51133320871E+03  0.51133320871E+03  0.00000000000E+00 0.  1.
         -6    2    1    2    0  503 -0.17161854780E+03 -0.32203842102E+02 -0.30830659685E+03  0.39823295316E+03  0.18178700154E+03 0.  0.
        -24    2    3    3    0    0 -0.46970129914E+02  0.21674181071E+02 -0.66689439471E+02  0.12103084242E+03  0.86746874585E+02 0.  0.
          6    2    1    2  501    0  0.17161854780E+03  0.32203842102E+02 -0.63537354716E+02  0.25258951270E+03  0.17109778807E+03 0.  0.
         24    2    5    5    0    0  0.16292540500E+03  0.67214679265E+02 -0.83451425228E+02  0.21111675471E+03  0.80892787334E+02 0.  0.
          5    1    5    5  501    0  0.86931428011E+01 -0.35010837163E+02  0.19914070512E+02  0.41472757986E+02  0.47000000000E+01 0. -1.
        -11    1    6    6    0    0  0.13482045906E+03  0.21632224883E+02 -0.78092357691E+02  0.15729884190E+03  0.00000000000E+00 0.  1.
         12    1    6    6    0    0  0.28104945942E+02  0.45582454382E+02 -0.53590675367E+01  0.53817912805E+02  0.00000000000E+00 0. -1.
         -5    1    3    3    0  503 -0.12464841789E+03 -0.53878023173E+02 -0.24161715738E+03  0.27720211074E+03  0.47000000000E+01 0.  1.
         11    1    4    4    0    0 -0.37977622164E+01 -0.21896406134E+02 -0.54000941766E+02  0.58395011011E+02  0.00000000000E+00 0. -1.
        -12    1    4    4    0    0 -0.43172367698E+02  0.43570587205E+02 -0.12688497706E+02  0.62635831407E+02  0.00000000000E+00 0.  1.
</event>
<event>
12    1  0.8747122E-002  0.1892740E+03  0.7818608E-02  0.1159424E+00
         21   -1    0    0  501  502  0.00000000000E+00  0.00000000000E+00  0.55181500200E+02  0.55181500200E+02  0.00000000000E+00 0. -1.
         21   -1    0    0  502  503 -0.00000000000E+00 -0.00000000000E+00 -0.66224131634E+03  0.66224131634E+03  0.00000000000E+00 0. -1.
         -6    2    1    2    0  503  0.66061508943E+02  0.37289109050E+02 -0.24605117783E+03  0.31042843926E+03  0.17340713125E+03 0.  0.
        -24    2    3    3    0    0  0.79983228018E+02  0.83341791385E+02 -0.17813008912E+03  0.22706161070E+03  0.80520031342E+02 0.  0.
          6    2    1    2  501    0 -0.66061508943E+02 -0.37289109050E+02 -0.36100863831E+03  0.40699437728E+03  0.17193773753E+03 0.  0.
         24    2    5    5    0    0 -0.63899222103E+02 -0.34245326401E+02 -0.10157446596E+03  0.14749077446E+03  0.78614906026E+02 0.  0.
          5    1    5    5  501    0 -0.21622868396E+01 -0.30437826495E+01 -0.25943417235E+03  0.25950360282E+03  0.47000000000E+01 0. -1.
        -13    1    6    6    0    0 -0.55359703471E+02  0.59519151685E+01 -0.25964979031E+02  0.61435349748E+02  0.00000000000E+00 0.  1.
         14    1    6    6    0    0 -0.85395186322E+01 -0.40197241569E+02 -0.75609486933E+02  0.86055424713E+02  0.00000000000E+00 0. -1.
         -5    1    3    3    0  503 -0.13921719075E+02 -0.46052682335E+02 -0.67921088711E+02  0.83366828558E+02  0.47000000000E+01 0.  1.
         11    1    4    4    0    0  0.24267148883E+02 -0.11406967495E+02 -0.16129212685E+02  0.31291611083E+02  0.00000000000E+00 0. -1.
        -12    1    4    4    0    0  0.55716079134E+02  0.94748758880E+02 -0.16200087643E+03  0.19576999961E+03  0.00000000000E+00 0.  1.
</event>
<event>
12    1  0.8747122E-002  0.1746433E+03  0.7818608E-02  0.1173345E+00
         21   -1    0    0  501  502  0.00000000000E+00  0.00000000000E+00  0.42106280960E+03  0.42106280960E+03  0.00000000000E+00 0.  1.
         21   -1    0    0  502  503 -0.00000000000E+00 -0.00000000000E+00 -0.81150782283E+02  0.81150782283E+02  0.00000000000E+00 0.  1.
         -6    2    1    2    0  503 -0.20673238231E+02  0.65053479048E+00  0.85284273870E+02  0.19344901521E+03  0.17239868950E+03 0.  0.
        -24    2    3    3    0    0 -0.45430004509E+02 -0.43040409646E+02  0.98814742088E+02  0.14122871578E+03  0.79150708996E+02 0.  0.
          6    2    1    2  501    0  0.20673238231E+02 -0.65053479048E+00  0.25462775344E+03  0.30876457667E+03  0.17341414305E+03 0.  0.
         24    2    5    5    0    0 -0.23882866717E+02  0.42056297269E+02  0.21764425396E+03  0.23666055995E+03  0.79373017413E+02 0.  0.
          5    1    5    5  501    0  0.44556104949E+02 -0.42706832060E+02  0.36983499486E+02  0.72104016719E+02  0.47000000000E+01 0. -1.
        -11    1    6    6    0    0 -0.22169205283E+02 -0.46124541147E+01  0.11700443734E+02  0.25488208635E+02  0.00000000000E+00 0.  1.
         12    1    6    6    0    0 -0.17136614341E+01  0.46668751384E+02  0.20594381022E+03  0.21117235132E+03  0.00000000000E+00 0. -1.
         -5    1    3    3    0  503  0.24756766278E+02  0.43690944436E+02 -0.13530468218E+02  0.52220299429E+02  0.47000000000E+01 0.  1.
         11    1    4    4    0    0 -0.41634141754E+01 -0.51217046341E+02  0.27121822406E+02  0.58104329478E+02  0.00000000000E+00 0. -1.
        -12    1    4    4    0    0 -0.41266590334E+02  0.81766366953E+01  0.71692919682E+02  0.83124386301E+02  0.00000000000E+00 0.  1.
</event>
<event>
12    1  0.8747122E-002  0.1984457E+03  0.7818608E-02  0.1151835E+00
         21   -1    0    0  503  502  0.00000000000E+00  0.00000000000E+00  0.20934782876E+04  0.20934782876E+04  0.00000000000E+00 0. -1.
         21   -1    0    0  501  503 -0.00000000000E+00 -0.00000000000E+00 -0.57807325460E+02  0.57807325460E+02  0.00000000000E+00 0. -1.
          6    2    1    2  501    0  0.48339044386E+02  0.86057942546E+02  0.13351935762E+03  0.23918213942E+03  0.17215703375E+03 0.  0.
         24    2    3    3    0    0  0.82066887622E+02  0.95280702006E+02  0.13804920134E+03  0.20361198078E+03  0.81159537394E+02 0.  0.
         -6    2    1    2    0  502 -0.48339044386E+02 -0.86057942546E+02  0.19021516045E+04  0.19121034736E+04  0.16797718492E+03 0.  0.
        -24    2    5    5    0    0 -0.76457595459E+02 -0.40199734870E+02  0.16533953411E+04  0.16575540742E+04  0.79420227924E+02 0.  0.
          5    1    3    3  501    0 -0.33727843236E+02 -0.92227594597E+01 -0.45298437133E+01  0.35570158637E+02  0.47000000000E+01 0. -1.
        -11    1    4    4    0    0  0.16891421763E+01 -0.11084867870E+02  0.29929398990E+02  0.31960857637E+02  0.00000000000E+00 0.  1.
         12    1    4    4    0    0  0.80377745446E+02  0.10636556988E+03  0.10811980235E+03  0.17165112315E+03  0.00000000000E+00 0. -1.
         -5    1    5    5    0  502  0.28118551073E+02 -0.45858207676E+02  0.24875626345E+03  0.25454939939E+03  0.47000000000E+01 0.  1.
         11    1    6    6    0    0 -0.76724443302E+02 -0.16343984493E+01  0.12362979366E+04  0.12386774800E+04  0.00000000000E+00 0. -1.
        -12    1    6    6    0    0  0.26684784315E+00 -0.38565336421E+02  0.41709740444E+03  0.41887659420E+03  0.00000000000E+00 0.  1.
</event>
<event>
12    1  0.8747122E-002  0.1793436E+03  0.7818608E-02  0.1168734E+00
         21   -1    0    0  503  502  0.00000000000E+00  0.00000000000E+00  0.69035236455E+03  0.69035236455E+03  0.00000000000E+00 0. -1.
         21   -1    0    0  501  503 -0.00000000000E+00 -0.00000000000E+00 -0.47690518082E+03  0.47690518082E+03  0.00000000000E+00 0. -1.
          6    2    1    2  501    0  0.63317025625E+00 -0.47270526144E+02 -0.44783028058E+03  0.48240656042E+03  0.17300065257E+03 0.  0.
         24    2    3    3    0    0 -0.47450102211E+02 -0.25947470964E+02 -0.13660598914E+03  0.16673374982E+03  0.78829966449E+02 0.  0.
         -6    2    1    2    0  502 -0.63317025625E+00  0.47270526144E+02  0.66127746430E+03  0.68485098495E+03  0.17175006038E+03 0.  0.
        -24    2    5    5    0    0 -0.45121894815E+02 -0.43350823135E+01  0.22173814826E+03  0.24003721966E+03  0.79970507689E+02 0.  0.
          5    1    3    3  501    0  0.48083272467E+02 -0.21323055180E+02 -0.31122429144E+03  0.31567281060E+03  0.47000000000E+01 0. -1.
        -11    1    4    4    0    0 -0.64496627475E+02 -0.15113616124E+02 -0.12925175655E+03  0.14523860685E+03  0.00000000000E+00 0.  1.
         12    1    4    4    0    0  0.17046525264E+02 -0.10833854840E+02 -0.73542325881E+01  0.21495142968E+02  0.00000000000E+00 0. -1.
         -5    1    5    5    0  502  0.44488724558E+02  0.51605608458E+02  0.43953931604E+03  0.44481376528E+03  0.47000000000E+01 0.  1.
         11    1    6    6    0    0  0.89176523873E+01 -0.21031242700E+02  0.13199886717E+03  0.13396095934E+03  0.00000000000E+00 0. -1.
        -12    1    6    6    0    0 -0.54039547202E+02  0.16696160387E+02  0.89739281092E+02  0.10607626032E+03  0.00000000000E+00 0.  1.
</event>
<event>
12    1  0.8747122E-002  0.2275166E+03  0.7818608E-02  0.1130083E+00
         21   -1    0    0  503  502  0.00000000000E+00  0.00000000000E+00  0.54702455943E+03  0.54702455943E+03  0.00000000000E+00 0. -1.
         21   -1    0    0  501  503 -0.00000000000E+00 -0.00000000000E+00 -0.10241272075E+03  0.10241272075E+03  0.00000000000E+00 0. -1.
          6    2    1    2  501    0 -0.58068001070E+02  0.12143645636E+03  0.11720057040E+03  0.25592925244E+03  0.18342601471E+03 0.  0.
         24    2    3    3    0    0 -0.76850074134E+02  0.84676136301E+01  0.67989362649E+02  0.13119530091E+03  0.81314323294E+02 0.  0.
         -6    2    1    2    0  502  0.58068001070E+02 -0.12143645636E+03  0.32741126827E+03  0.39350802774E+03  0.17184796660E+03 0.  0.
        -24    2    5    5    0    0 -0.23773509480E+02 -0.96169167882E+02  0.22554907988E+03  0.26033721960E+03  0.84198526549E+02 0.  0.
          5    1    3    3  501    0  0.18782073064E+02  0.11296884273E+03  0.49211207753E+02  0.12473395153E+03  0.47000000000E+01 0. -1.
        -13    1    4    4    0    0 -0.32289293986E+02 -0.32680859078E+02  0.94573585754E+01  0.46904996401E+02  0.00000000000E+00 0.  1.
         14    1    4    4    0    0 -0.44560780148E+02  0.41148472708E+02  0.58532004074E+02  0.84290304511E+02  0.00000000000E+00 0. -1.
         -5    1    5    5    0  502  0.81841510550E+02 -0.25267288474E+02  0.10186218839E+03  0.13317080814E+03  0.47000000000E+01 0.  1.
         11    1    6    6    0    0 -0.55155871386E+01 -0.10805990304E+03  0.18953461699E+03  0.21824466863E+03  0.00000000000E+00 0. -1.
        -12    1    6    6    0    0 -0.18257922341E+02  0.11890735155E+02  0.36014462887E+02  0.42092550977E+02  0.00000000000E+00 0.  1.
</event>
<event>
12    1  0.8747122E-002  0.2570891E+03  0.7818608E-02  0.1109059E+00
         21   -1    0    0  501  502  0.00000000000E+00  0.00000000000E+00  0.16725465091E+03  0.16725465091E+03  0.00000000000E+00 0.  1.
         21   -1    0    0  502  503 -0.00000000000E+00 -0.00000000000E+00 -0.64277973657E+03  0.64277973657E+03  0.00000000000E+00 0. -1.
         -6    2    1    2    0  503 -0.13210528091E+03 -0.13594192927E+03 -0.48963495648E+03  0.55255841744E+03  0.17218130185E+03 0.  0.
        -24    2    3    3    0    0 -0.19827722327E+02 -0.10992007631E+03 -0.22889119433E+03  0.26743951857E+03  0.81591393579E+02 0.  0.
          6    2    1    2  501    0  0.13210528091E+03  0.13594192927E+03  0.14109870817E+02  0.25747597004E+03  0.17367433119E+03 0.  0.
         24    2    5    5    0    0  0.15428293219E+03  0.10426266333E+03  0.39424413044E+02  0.21101803040E+03  0.91106523812E+02 0.  0.
          5    1    5    5  501    0 -0.22177651281E+02  0.31679265937E+02 -0.25314542226E+02  0.46457939631E+02  0.47000000000E+01 0. -1.
        -11    1    6    6    0    0  0.12814483305E+03  0.90330117065E+02 -0.58777363085E+01  0.15689224350E+03  0.00000000000E+00 0.  1.
         12    1    6    6    0    0  0.26138099145E+02  0.13932546269E+02  0.45302149352E+02  0.54125786908E+02  0.00000000000E+00 0. -1.
         -5    1    3    3    0  503 -0.11227755858E+03 -0.26021852964E+02 -0.26074376215E+03  0.28511889887E+03  0.47000000000E+01 0.  1.
         11    1    4    4    0    0 -0.13965380055E+02 -0.96612026323E+02 -0.23275227538E+03  0.25239361554E+03  0.00000000000E+00 0. -1.
        -12    1    4    4    0    0 -0.58623422728E+01 -0.13308049984E+02  0.38610810507E+01  0.15045903036E+02  0.00000000000E+00 0.  1.
</event>
<event>
12    1  0.8747122E-002  0.1911263E+03  0.7818608E-02  0.1157850E+00
         21   -1    0    0  503  502  0.00000000000E+00  0.00000000000E+00  0.17013403545E+03  0.17013403545E+03  0.00000000000E+00 0.  1.
         21   -1    0    0  501  503 -0.00000000000E+00 -0.00000000000E+00 -0.26479810741E+03  0.26479810741E+03  0.00000000000E+00 0.  1.
          6    2    1    2  501    0 -0.76809003030E+02  0.24653120786E+02  0.48935922875E+02  0.19729165144E+03  0.17326820791E+03 0.  0.
         24    2    3    3    0    0 -0.20705911077E+02  0.58461047439E+02 -0.20612824002E+02  0.10163784324E+03  0.77839153672E+02 0.  0.
         -6    2    1    2    0  502  0.76809003030E+02 -0.24653120786E+02 -0.14359999484E+03  0.23764049142E+03  0.17130278845E+03 0.  0.
        -24    2    5    5    0    0 -0.17643744446E+02  0.39106900442E+02 -0.63195669323E+02  0.98092623733E+02  0.61545258382E+02 0.  0.
          5    1    3    3  501    0 -0.56103091953E+02 -0.33807926653E+02  0.69548746878E+02  0.95653808202E+02  0.47000000000E+01 0. -1.
        -11    1    4    4    0    0 -0.33354122252E+02  0.47984029608E+02  0.16778283044E+02  0.60798645960E+02  0.00000000000E+00 0.  1.
         12    1    4    4    0    0  0.12648211175E+02  0.10477017832E+02 -0.37391107046E+02  0.40839197283E+02  0.00000000000E+00 0. -1.
         -5    1    5    5    0  502  0.94452747476E+02 -0.63760021228E+02 -0.80404325520E+02  0.13954786768E+03  0.47000000000E+01 0.  1.
         11    1    6    6    0    0 -0.11243753081E+01  0.51610224430E+00 -0.55379485728E+02  0.55393303033E+02  0.00000000000E+00 0. -1.
        -12    1    6    6    0    0 -0.16519369138E+02  0.38590798197E+02 -0.78161835953E+01  0.42699320700E+02  0.00000000000E+00 0.  1.
</event>
<event>
12    1  0.8747122E-002  0.3927718E+03  0.7818608E-02  0.1046319E+00
         21   -1    0    0  503  502  0.00000000000E+00  0.00000000000E+00  0.62056312119E+03  0.62056312119E+03  0.00000000000E+00 0. -1.
         21   -1    0    0  501  503 -0.00000000000E+00 -0.00000000000E+00 -0.26435281439E+03  0.26435281439E+03  0.00000000000E+00 0.  1.
          6    2    1    2  501    0 -0.25165262548E+03  0.24793459463E+03  0.69925681393E+02  0.39894770192E+03  0.17166554933E+03 0.  0.
         24    2    3    3    0    0 -0.20298274230E+03  0.19736465243E+03 -0.73707804533E+01  0.29443497735E+03  0.80516009492E+02 0.  0.
         -6    2    1    2    0  502  0.25165262548E+03 -0.24793459463E+03  0.28628462541E+03  0.48596823365E+03  0.17148069934E+03 0.  0.
        -24    2    5    5    0    0  0.26958182532E+03 -0.23675107211E+03  0.25204712239E+03  0.44546114790E+03  0.78628567969E+02 0.  0.
          5    1    3    3  501    0 -0.48669883177E+02  0.50569942205E+02  0.77296461846E+02  0.10451272457E+03  0.47000000000E+01 0. -1.
        -13    1    4    4    0    0 -0.33923282186E+02  0.10097810222E+02  0.20018418224E+02  0.40663151793E+02  0.00000000000E+00 0.  1.
         14    1    4    4    0    0 -0.16905946012E+03  0.18726684220E+03 -0.27389198677E+02  0.25377182556E+03  0.00000000000E+00 0. -1.
         -5    1    5    5    0  502 -0.17929199837E+02 -0.11183522526E+02  0.34237503021E+02  0.40507085751E+02  0.47000000000E+01 0.  1.
         11    1    6    6    0    0  0.50558671641E+02 -0.80550968209E+02  0.41114525231E+02  0.10361004750E+03  0.00000000000E+00 0. -1.
        -12    1    6    6    0    0  0.21902315367E+03 -0.15620010390E+03  0.21093259716E+03  0.34185110040E+03  0.00000000000E+00 0.  1.
</event>
<event>
12    1  0.8747122E-002  0.1793817E+03  0.7818608E-02  0.1168720E+00
         21   -1    0    0  501  502  0.00000000000E+00  0.00000000000E+00  0.27075476532E+03  0.27075476532E+03  0.00000000000E+00 0. -1.
         21   -1    0    0  502  503 -0.00000000000E+00 -0.00000000000E+00 -0.11805752630E+03  0.11805752630E+03  0.00000000000E+00 0. -1.
         -6    2    1    2    0  503 -0.65339499975E+01  0.47412624289E+02  0.71850594785E+02  0.19323641782E+03  0.17287902058E+03 0.  0.
        -24    2    3    3    0    0  0.90748613891E+01  0.24319901671E+01 -0.25687354777E+02  0.84596489420E+02  0.80052845930E+02 0.  0.
          6    2    1    2  501    0  0.65339499975E+01 -0.47412624289E+02  0.80846644244E+02  0.19557587380E+03  0.17153160957E+03 0.  0.
         24    2    5    5    0    0  0.46688717277E+02 -0.19511556696E+02  0.10589665697E+03  0.14043543450E+03  0.77119855685E+02 0.  0.
          5    1    5    5  501    0 -0.40154767280E+02 -0.27901067593E+02 -0.25050012723E+02  0.55140439294E+02  0.47000000000E+01 0. -1.
        -13    1    6    6    0    0  0.65574145357E+02 -0.19251603940E+01  0.67105103714E+02  0.93844391022E+02  0.00000000000E+00 0.  1.
         14    1    6    6    0    0 -0.18885428080E+02 -0.17586396302E+02  0.38791553253E+02  0.46591043479E+02  0.00000000000E+00 0. -1.
         -5    1    3    3    0  503 -0.15608811387E+02  0.44980634122E+02  0.97537949562E+02  0.10863992840E+03  0.47000000000E+01 0.  1.
         13    1    4    4    0    0  0.31823570722E+02 -0.17839289567E+02 -0.37124982402E+02  0.52050400806E+02  0.00000000000E+00 0. -1.
        -14    1    4    4    0    0 -0.22748709333E+02  0.20271279734E+02  0.11437627625E+02  0.32546088614E+02  0.00000000000E+00 0.  1.
</event>
<event>
12    1  0.8747122E-002  0.1742867E+03  0.7818608E-02  0.1174350E+00
         21   -1    0    0  501  502  0.00000000000E+00  0.00000000000E+00  0.12470865758E+04  0.12470865758E+04  0.00000000000E+00 0. -1.
         21   -1    0    0  502  503 -0.00000000000E+00 -0.00000000000E+00 -0.28258783528E+02  0.28258783528E+02  0.00000000000E+00 0. -1.
         -6    2    1    2    0  503  0.25950854020E+01  0.17136649239E+02  0.86605244281E+03  0.88341534949E+03  0.17342274012E+03 0.  0.
        -24    2    3    3    0    0  0.12835380440E+01  0.50052322781E+02  0.82494209237E+03  0.83052572257E+03  0.82077022428E+02 0.  0.
          6    2    1    2  501    0 -0.25950854020E+01 -0.17136649239E+02  0.35277534948E+03  0.39193000986E+03  0.16987726810E+03 0.  0.
         24    2    5    5    0    0  0.14192267467E+02  0.46762423247E+02  0.27064506349E+03  0.28641991291E+03  0.79996696434E+02 0.  0.
          5    1    5    5  501    0 -0.16787352869E+02 -0.63899072485E+02  0.82130285991E+02  0.10551009695E+03  0.47000000000E+01 0. -1.
        -11    1    6    6    0    0 -0.19449846353E+02 -0.14184284918E+02  0.73879093521E+02  0.77702065103E+02  0.00000000000E+00 0.  1.
         12    1    6    6    0    0  0.33642113820E+02  0.60946708165E+02  0.19676596997E+03  0.20871784781E+03  0.00000000000E+00 0. -1.
         -5    1    3    3    0  503  0.13115473580E+01 -0.32915673542E+02  0.41110350445E+02  0.52889626912E+02  0.47000000000E+01 0.  1.
         11    1    4    4    0    0 -0.37742879940E+02  0.25274681858E+02  0.28374460547E+03  0.28735750497E+03  0.00000000000E+00 0. -1.
        -12    1    4    4    0    0  0.39026417984E+02  0.24777640922E+02  0.54119748690E+03  0.54316821760E+03  0.00000000000E+00 0.  1.
</event>
<event>
12    1  0.8747122E-002  0.1732603E+03  0.7818608E-02  0.1174748E+00
         21   -1    0    0  501  502  0.00000000000E+00  0.00000000000E+00  0.68412545560E+02  0.68412545560E+02  0.00000000000E+00 0. -1.
         21   -1    0    0  502  503 -0.00000000000E+00 -0.00000000000E+00 -0.44780432473E+03  0.44780432473E+03  0.00000000000E+00 0. -1.
         -6    2    1    2    0  503  0.59240473499E+01 -0.19611644992E+02 -0.23063265891E+03  0.28785662915E+03  0.17102720437E+03 0.  0.
        -24    2    3    3    0    0  0.69400797882E+02 -0.17286744598E+01 -0.14602828591E+03  0.18048303638E+03  0.80189819021E+02 0.  0.
          6    2    1    2  501    0 -0.59240473499E+01  0.19611644992E+02 -0.14875912025E+03  0.22836024113E+03  0.17204479915E+03 0.  0.
         24    2    5    5    0    0 -0.13107592304E+02  0.57147511020E+02 -0.16073281496E+03  0.18803650220E+03  0.78006675115E+02 0.  0.
          5    1    5    5  501    0  0.71835449539E+01 -0.37535866028E+02  0.11973694707E+02  0.40323738933E+02  0.47000000000E+01 0. -1.
        -11    1    6    6    0    0  0.31167571300E+02  0.35672961698E+02 -0.92327702798E+02  0.10377081671E+03  0.00000000000E+00 0.  1.
         12    1    6    6    0    0 -0.44275163604E+02  0.21474549322E+02 -0.68405112162E+02  0.84265685488E+02  0.00000000000E+00 0. -1.
         -5    1    3    3    0  503 -0.63476750532E+02 -0.17882970532E+02 -0.84604373006E+02  0.10737359277E+03  0.47000000000E+01 0.  1.
         13    1    4    4    0    0 -0.50099781053E+01 -0.76958062225E+01  0.61013741674E+01  0.11025066021E+02  0.00000000000E+00 0. -1.
        -14    1    4    4    0    0  0.74410775987E+02  0.59671317627E+01 -0.15212966007E+03  0.16945797036E+03  0.00000000000E+00 0.  1.
</event>
<event>
12    1  0.8747122E-002  0.2053268E+03  0.7818608E-02  0.1146574E+00
         21   -1    0    0  501  502  0.00000000000E+00  0.00000000000E+00  0.18386711375E+03  0.18386711375E+03  0.00000000000E+00 0. -1.
         21   -1    0    0  502  503 -0.00000000000E+00 -0.00000000000E+00 -0.61763500575E+03  0.61763500575E+03  0.00000000000E+00 0. -1.
         -6    2    1    2    0  503  0.10933469046E+03  0.12805404450E+02 -0.53620770285E+03  0.57203965120E+03  0.16611023156E+03 0.  0.
        -24    2    3    3    0    0  0.35041406248E+02  0.55444934107E+02 -0.19725772416E+03  0.22240155313E+03  0.79055677996E+02 0.  0.
          6    2    1    2  501    0 -0.10933469046E+03 -0.12805404450E+02  0.10243981086E+03  0.22946246830E+03  0.17332356040E+03 0.  0.
         24    2    5    5    0    0 -0.68939133244E+02 -0.71754992338E+02  0.36924492157E+02  0.13239959208E+03  0.79150810766E+02 0.  0.
          5    1    5    5  501    0 -0.40395557212E+02  0.58949587888E+02  0.65515318699E+02  0.97062876214E+02  0.47000000000E+01 0. -1.
        -13    1    6    6    0    0 -0.41200659899E+01 -0.16042048624E+02 -0.22762088117E+02  0.28150220661E+02  0.00000000000E+00 0.  1.
         14    1    6    6    0    0 -0.64819067254E+02 -0.55712943715E+02  0.59686580275E+02  0.10424937142E+03  0.00000000000E+00 0. -1.
         -5    1    3    3    0  503  0.74293284208E+02 -0.42639529657E+02 -0.33894997870E+03  0.34963809808E+03  0.47000000000E+01 0.  1.
         13    1    4    4    0    0  0.24308217853E+02  0.20121403535E+02 -0.17797514971E+03  0.18075097303E+03  0.00000000000E+00 0. -1.
        -14    1    4    4    0    0  0.10733188395E+02  0.35323530573E+02 -0.19282574443E+02  0.41650580097E+02  0.00000000000E+00 0.  1.
</event>
<event>
12    1  0.8747122E-002  0.2069082E+03  0.7818608E-02  0.1144337E+00
         21   -1    0    0  503  502  0.00000000000E+00  0.00000000000E+00  0.28553185206E+03  0.28553185206E+03  0.00000000000E+00 0.  1.
         21   -1    0    0  501  503 -0.00000000000E+00 -0.00000000000E+00 -0.32139675359E+03  0.32139675359E+03  0.00000000000E+00 0. -1.
          6    2    1    2  501    0 -0.92689597760E+01 -0.11537535113E+03 -0.24024314131E+03  0.31609969691E+03  0.16971996399E+03 0.  0.
         24    2    3    3    0    0 -0.49653357290E+02 -0.37729785967E+02 -0.18880216653E+03  0.21447294237E+03  0.80395225507E+02 0.  0.
         -6    2    1    2    0  502  0.92689597760E+01  0.11537535113E+03  0.20437823978E+03  0.29082890875E+03  0.17150394748E+03 0.  0.
        -24    2    5    5    0    0 -0.45100050805E+02  0.72040263185E+02  0.18576488422E+03  0.21870078549E+03  0.78087305389E+02 0.  0.
          5    1    3    3  501    0  0.40384397514E+02 -0.77645565167E+02 -0.51440974783E+02  0.10162675454E+03  0.47000000000E+01 0. -1.
        -11    1    4    4    0    0 -0.37935409709E+02  0.15593957644E+02 -0.46214487333E+02  0.61790336334E+02  0.00000000000E+00 0.  1.
         12    1    4    4    0    0 -0.11717947581E+02 -0.53323743611E+02 -0.14258767919E+03  0.15268260603E+03  0.00000000000E+00 0. -1.
         -5    1    5    5    0  502  0.54369010581E+02  0.43335087949E+02  0.18613355560E+02  0.72128123256E+02  0.47000000000E+01 0.  1.
         11    1    6    6    0    0 -0.49980338704E+02  0.28207444374E+02  0.50563180229E+02  0.76487445832E+02  0.00000000000E+00 0. -1.
        -12    1    6    6    0    0  0.48802878991E+01  0.43832818811E+02  0.13520170399E+03  0.14221333966E+03  0.00000000000E+00 0.  1.
</event>
<event>
12    1  0.8747122E-002  0.1739605E+03  0.7818608E-02  0.1173990E+00
         21   -1    0    0  503  502  0.00000000000E+00  0.00000000000E+00  0.51898335985E+03  0.51898335985E+03  0.00000000000E+00 0. -1.
         21   -1    0    0  501  503 -0.00000000000E+00 -0.00000000000E+00 -0.14092452301E+03  0.14092452301E+03  0.00000000000E+00 0. -1.
          6    2    1    2  501    0  0.85720222817E+01 -0.23175257000E+02 -0.63839627733E+02  0.18530446457E+03  0.17219661558E+03 0.  0.
         24    2    3    3    0    0  0.68622351733E+02  0.89802167566E+01 -0.43056793274E+02  0.11393197149E+03  0.79604869392E+02 0.  0.
         -6    2    1    2    0  502 -0.85720222817E+01  0.23175257000E+02  0.44189846458E+03  0.47460341829E+03  0.17135804491E+03 0.  0.
        -24    2    5    5    0    0  0.32995708796E+02  0.67050239730E+02  0.32338170150E+03  0.34148240753E+03  0.80312255218E+02 0.  0.
          5    1    3    3  501    0 -0.60050329451E+02 -0.32155473757E+02 -0.20782834459E+02  0.71372493076E+02  0.47000000000E+01 0. -1.
        -11    1    4    4    0    0 -0.17050183231E+02  0.61897458130E+01 -0.29862378760E+00  0.18141413330E+02  0.00000000000E+00 0.  1.
         12    1    4    4    0    0  0.85672534964E+02  0.27904709436E+01 -0.42758169487E+02  0.95790558163E+02  0.00000000000E+00 0. -1.
         -5    1    5    5    0  502 -0.41567731078E+02 -0.43874982730E+02  0.11851676308E+03  0.13312101076E+03  0.47000000000E+01 0.  1.
         11    1    6    6    0    0  0.67389131961E+01  0.70812949058E+02  0.29128045053E+03  0.29984027009E+03  0.00000000000E+00 0. -1.
        -12    1    6    6    0    0  0.26256795600E+02 -0.37627093274E+01  0.32101250972E+02  0.41642137440E+02  0.00000000000E+00 0.  1.
</event>
<event>
12    1  0.8747122E-002  0.1935796E+03  0.7818608E-02  0.1155296E+00
         21   -1    0    0  503  502  0.00000000000E+00  0.00000000000E+00  0.24610108262E+03  0.24610108262E+03  0.00000000000E+00 0.  1.
         21   -1    0    0  501  503 -0.00000000000E+00 -0.00000000000E+00 -0.20123398429E+03  0.20123398429E+03  0.00000000000E+00 0. -1.
          6    2    1    2  501    0  0.11902208840E+02 -0.87956636051E+02 -0.87992209323E+02  0.21263985675E+03  0.17203211146E+03 0.  0.
         24    2    3    3    0    0 -0.44826467218E+01 -0.11770010664E+03 -0.10239809075E+03  0.17545441666E+03  0.80159055092E+02 0.  0.
         -6    2    1    2    0  502 -0.11902208840E+02  0.87956636051E+02  0.13285930766E+03  0.23469521017E+03  0.17190757297E+03 0.  0.
        -24    2    5    5    0    0  0.10636887279E+02  0.94078392078E+02  0.27967509818E+02  0.12713189856E+03  0.80102751503E+02 0.  0.
          5    1    3    3  501    0  0.16384855562E+02  0.29743470585E+02  0.14405881431E+02  0.37185440082E+02  0.47000000000E+01 0. -1.
        -11    1    4    4    0    0 -0.15923667173E+02 -0.42920811849E+01  0.65807044259E+01  0.17756430043E+02  0.00000000000E+00 0.  1.
         12    1    4    4    0    0  0.11441020451E+02 -0.11340802545E+03 -0.10897879518E+03  0.15769798662E+03  0.00000000000E+00 0. -1.
         -5    1    5    5    0  502 -0.22539096119E+02 -0.61217560260E+01  0.10489179784E+03  0.10756331161E+03  0.47000000000E+01 0.  1.
         13    1    6    6    0    0 -0.29669228582E+02  0.38842207876E+02 -0.85404054854E+01  0.49617726300E+02  0.00000000000E+00 0. -1.
        -14    1    6    6    0    0  0.40306115860E+02  0.55236184202E+02  0.36507915303E+02  0.77514172257E+02  0.00000000000E+00 0.  1.
</event>
<event>
12    1  0.8747122E-002  0.2052964E+03  0.7818608E-02  0.1145625E+00
         21   -1    0    0  501  502  0.00000000000E+00  0.00000000000E+00  0.39764331936E+04  0.39764331936E+04  0.00000000000E+00 0.  1.
         21   -1    0    0  502  503 -0.00000000000E+00 -0.00000000000E+00 -0.12064954552E+02  0.12064954552E+02  0.00000000000E+00 0.  1.
         -6    2    1    2    0  503  0.22628176001E+02 -0.10925238476E+03  0.12647846229E+04  0.12811196532E+04  0.17070238925E+03 0.  0.
        -24    2    3    3    0    0  0.25701581125E+02 -0.12602206029E+03  0.12466833997E+04  0.12558132881E+04  0.79406451002E+02 0.  0.
          6    2    1    2  501    0 -0.22628176001E+02  0.10925238476E+03  0.26995836162E+04  0.27073784949E+04  0.17233251622E+03 0.  0.
         24    2    5    5    0    0 -0.72555292275E+02  0.10795394987E+03  0.18078543402E+04  0.18142393151E+04  0.78794996182E+02 0.  0.
          5    1    5    5  501    0  0.49927116274E+02  0.12984348915E+01  0.89172927600E+03  0.89313917984E+03  0.47000000000E+01 0. -1.
        -13    1    6    6    0    0 -0.26879160251E+02  0.48464001717E+02  0.12667488504E+04  0.12679605272E+04  0.00000000000E+00 0.  1.
         14    1    6    6    0    0 -0.45676132024E+02  0.59489948155E+02  0.54110548981E+03  0.54627878786E+03  0.00000000000E+00 0. -1.
         -5    1    3    3    0  503 -0.30734051241E+01  0.16769675530E+02  0.18101223145E+02  0.25306365124E+02  0.47000000000E+01 0.  1.
         11    1    4    4    0    0 -0.14564979113E+02  0.30592595869E+01  0.17538381433E+03  0.17601414720E+03  0.00000000000E+00 0. -1.
        -12    1    4    4    0    0  0.40266560238E+02 -0.12908131988E+03  0.10712995854E+04  0.10797991409E+04  0.00000000000E+00 0.  1.
</event>
<event>
12    1  0.8747122E-002  0.2304792E+03  0.7818608E-02  0.1126348E+00
         21   -1    0    0  501  502  0.00000000000E+00  0.00000000000E+00  0.96441340159E+02  0.96441340159E+02  0.00000000000E+00 0. -1.
         21   -1    0    0  502  503 -0.00000000000E+00 -0.00000000000E+00 -0.98461013234E+03  0.98461013234E+03  0.00000000000E+00 0.  1.
         -6    2    1    2    0  503 -0.14434758423E+03  0.50337588376E+02 -0.80298190985E+03  0.83533318390E+03  0.17213797574E+03 0.  0.
        -24    2    3    3    0    0 -0.71829173490E+02  0.90649220861E+02 -0.38694548697E+03  0.41107813941E+03  0.76692342542E+02 0.  0.
          6    2    1    2  501    0  0.14434758423E+03 -0.50337588376E+02 -0.85186882325E+02  0.24571828860E+03  0.17248354865E+03 0.  0.
         24    2    5    5    0    0  0.10141619279E+03 -0.90556636174E+02 -0.98409254259E+02  0.18524021575E+03  0.78382445042E+02 0.  0.
          5    1    5    5  501    0  0.42931391436E+02  0.40219047798E+02  0.13222371934E+02  0.60478072853E+02  0.47000000000E+01 0. -1.
        -11    1    6    6    0    0 -0.38589087450E+01  0.82772840137E+01  0.20169883147E+01  0.93526920834E+01  0.00000000000E+00 0.  1.
         12    1    6    6    0    0  0.10527510154E+03 -0.98833920188E+02 -0.10042624257E+03  0.17588752366E+03  0.00000000000E+00 0. -1.
         -5    1    3    3    0  503 -0.72518410736E+02 -0.40311632486E+02 -0.41603642288E+03  0.42425504449E+03  0.47000000000E+01 0.  1.
         11    1    4    4    0    0  0.16674302447E+01  0.54318242621E+02 -0.11797185791E+03  0.12988691645E+03  0.00000000000E+00 0. -1.
        -12    1    4    4    0    0 -0.73496603735E+02  0.36330978240E+02 -0.26897362906E+03  0.28119122296E+03  0.00000000000E+00 0.  1.
</event>
<event>
12    1  0.8747122E-002  0.2071806E+03  0.7818608E-02  0.1144313E+00
         21   -1    0    0  501  502  0.00000000000E+00  0.00000000000E+00  0.20046660108E+04  0.20046660108E+04  0.00000000000E+00 0. -1.
         21   -1    0    0  502  503 -0.00000000000E+00 -0.00000000000E+00 -0.58522147590E+02  0.58522147590E+02  0.00000000000E+00 0.  1.
         -6    2    1    2    0  503 -0.93279640982E+02 -0.60712789923E+02  0.15090620181E+03  0.25631324136E+03  0.17474742250E+03 0.  0.
        -24    2    3    3    0    0 -0.17688291495E+02  0.33531142034E+02  0.78807288735E+02  0.11554281089E+03  0.75513834813E+02 0.  0.
          6    2    1    2  501    0  0.93279640982E+02  0.60712789923E+02  0.17952376614E+04  0.18068749170E+04  0.17184752138E+03 0.  0.
         24    2    5    5    0    0  0.10790269094E+03 -0.80995543284E+01  0.11378673608E+04  0.11457344067E+04  0.79098712965E+02 0.  0.
          5    1    5    5  501    0 -0.14623049958E+02  0.68812344251E+02  0.65737030060E+03  0.66114051035E+03  0.47000000000E+01 0. -1.
        -13    1    6    6    0    0  0.69715624406E+02 -0.34396783851E+02  0.48186898905E+03  0.48809950793E+03  0.00000000000E+00 0.  1.
         14    1    6    6    0    0  0.38187066534E+02  0.26297229523E+02  0.65599837171E+03  0.65763489873E+03  0.00000000000E+00 0. -1.
         -5    1    3    3    0  503 -0.75591349487E+02 -0.94243931957E+02  0.72098913076E+02  0.14077043047E+03  0.47000000000E+01 0.  1.
         13    1    4    4    0    0  0.22321281634E+02  0.26062547909E+02  0.10247564714E+02  0.35812129229E+02  0.00000000000E+00 0. -1.
        -14    1    4    4    0    0 -0.40009573129E+02  0.74685941250E+01  0.68559724021E+02  0.79730681660E+02  0.00000000000E+00 0.  1.
</event>
<event>
12    1  0.8747122E-002  0.1883465E+03  0.7818608E-02  0.1160069E+00
         21   -1    0    0  501  502  0.00000000000E+00  0.00000000000E+00  0.57532843524E+02  0.57532843524E+02  0.00000000000E+00 0.  1.
         21   -1    0    0  502  503 -0.00000000000E+00 -0.00000000000E+00 -0.76262251979E+03  0.76262251979E+03  0.00000000000E+00 0.  1.
         -6    2    1    2    0  503  0.16207577910E+02  0.76578030156E+02 -0.53328959356E+03  0.56557243708E+03  0.17131115171E+03 0.  0.
        -24    2    3    3    0    0  0.39832841892E+02  0.14357115126E+02 -0.13578708477E+03  0.16250925363E+03  0.78602436824E+02 0.  0.
          6    2    1    2  501    0 -0.16207577910E+02 -0.76578030156E+02 -0.17180008271E+03  0.25458292623E+03  0.17079320135E+03 0.  0.
         24    2    5    5    0    0 -0.15359486326E+02 -0.55620196078E+02 -0.19745165472E+03  0.22111587953E+03  0.81089803274E+02 0.  0.
          5    1    5    5  501    0 -0.84809158367E+00 -0.20957834078E+02  0.25651572013E+02  0.33467046707E+02  0.47000000000E+01 0. -1.
        -11    1    6    6    0    0  0.16116346173E+02 -0.35134650178E+02 -0.28460037048E+02  0.48001603784E+02  0.00000000000E+00 0.  1.
         12    1    6    6    0    0 -0.31475832499E+02 -0.20485545900E+02 -0.16899161767E+03  0.17311427574E+03  0.00000000000E+00 0. -1.
         -5    1    3    3    0  503 -0.23625263982E+02  0.62220915031E+02 -0.39750250878E+03  0.40306318345E+03  0.47000000000E+01 0.  1.
         11    1    4    4    0    0  0.59055451881E+02  0.27919999770E+02 -0.10658341496E+03  0.12500838823E+03  0.00000000000E+00 0. -1.
        -12    1    4    4    0    0 -0.19222609988E+02 -0.13562884644E+02 -0.29203669814E+02  0.37500865393E+02  0.00000000000E+00 0.  1.
</event>
<event>
12    1  0.8747122E-002  0.2171732E+03  0.7818608E-02  0.1137112E+00
         21   -1    0    0  501  502  0.00000000000E+00  0.00000000000E+00  0.17949309085E+04  0.17949309085E+04  0.00000000000E+00 0.  1.
         21   -1    0    0  502  503 -0.00000000000E+00 -0.00000000000E+00 -0.29281394154E+02  0.29281394154E+02  0.00000000000E+00 0.  1.
         -6    2    1    2    0  503 -0.71594740766E+02 -0.11130107332E+03  0.54850866797E+03  0.58784826125E+03  0.16489415873E+03 0.  0.
        -24    2    3    3    0    0 -0.32366528646E+02 -0.88073976490E+01  0.35315565671E+03  0.36373066892E+03  0.80348735031E+02 0.  0.
          6    2    1    2  501    0  0.71594740766E+02  0.11130107332E+03  0.12171408464E+04  0.12363640414E+04  0.17219311003E+03 0.  0.
         24    2    5    5    0    0  0.87778020235E+02  0.13321443701E+03  0.11372072638E+04  0.11517853108E+04  0.88983000320E+02 0.  0.
          5    1    5    5  501    0 -0.16183279469E+02 -0.21913363689E+02  0.79933582620E+02  0.84578730619E+02  0.47000000000E+01 0. -1.
        -13    1    6    6    0    0  0.80691628086E+02  0.13383019813E+03  0.83521088727E+03  0.84970517651E+03  0.00000000000E+00 0.  1.
         14    1    6    6    0    0  0.70863921483E+01 -0.61576111296E+00  0.30199637651E+03  0.30208013430E+03  0.00000000000E+00 0. -1.
         -5    1    3    3    0  503 -0.39228212120E+02 -0.10249367567E+03  0.19535301126E+03  0.22411759232E+03  0.47000000000E+01 0.  1.
         13    1    4    4    0    0  0.20297103199E+02  0.13548927103E+02  0.55528065370E+02  0.60654034224E+02  0.00000000000E+00 0. -1.
        -14    1    4    4    0    0 -0.52663631845E+02 -0.22356324752E+02  0.29762759134E+03  0.30307663470E+03  0.00000000000E+00 0.  1.
</event>
<event>
12    1  0.8747122E-002  0.2286659E+03  0.7818608E-02  0.1127958E+00
         21   -1    0    0  501  502  0.00000000000E+00  0.00000000000E+00  0.28754404199E+03  0.28754404199E+03  0.00000000000E+00 0. -1.
         21   -1    0    0  502  503 -0.00000000000E+00 -0.00000000000E+00 -0.19026036948E+03  0.19026036948E+03  0.00000000000E+00 0.  1.
         -6    2    1    2    0  503 -0.15071027614E+03 -0.11239029483E+02 -0.65862291701E+01  0.22665299979E+03  0.16878477651E+03 0.  0.
        -24    2    3    3    0    0 -0.12235445438E+03  0.51013353069E+02 -0.21659542120E+02  0.15644825263E+03  0.80211877475E+02 0.  0.
          6    2    1    2  501    0  0.15071027614E+03  0.11239029483E+02  0.10386990167E+03  0.25115141168E+03  0.17160469690E+03 0.  0.
         24    2    5    5    0    0  0.76639847195E+02 -0.37571535413E+02  0.46599182512E+01  0.11798380864E+03  0.81321447428E+02 0.  0.
          5    1    5    5  501    0  0.74070428942E+02  0.48810564896E+02  0.99209983422E+02  0.13316760304E+03  0.47000000000E+01 0. -1.
        -11    1    6    6    0    0  0.26673299328E+02  0.20419456017E+02 -0.18054953382E+02  0.38136602139E+02  0.00000000000E+00 0.  1.
         12    1    6    6    0    0  0.49966547866E+02 -0.57990991430E+02  0.22714871634E+02  0.79847206501E+02  0.00000000000E+00 0. -1.
         -5    1    3    3    0  503 -0.28355821760E+02 -0.62252382552E+02  0.15073312950E+02  0.70204747164E+02  0.47000000000E+01 0.  1.
         11    1    4    4    0    0 -0.11739834450E+02  0.37899499013E+02  0.94705754376E+01  0.40790777604E+02  0.00000000000E+00 0. -1.
        -12    1    4    4    0    0 -0.11061461993E+03  0.13113854056E+02 -0.31130117557E+02  0.11565747502E+03  0.00000000000E+00 0.  1.
</event>
<event>
12    1  0.8747122E-002  0.1965847E+03  0.7818608E-02  0.1153081E+00
         21   -1    0    0  503  502  0.00000000000E+00  0.00000000000E+00  0.34592601675E+03  0.34592601675E+03  0.00000000000E+00 0. -1.
         21   -1    0    0  501  503 -0.00000000000E+00 -0.00000000000E+00 -0.25184836918E+03  0.25184836918E+03  0.00000000000E+00 0. -1.
          6    2    1    2  501    0 -0.60842923714E+01 -0.95474284471E+02 -0.17690094525E+03  0.26299842753E+03  0.16947528092E+03 0.  0.
         24    2    3    3    0    0  0.19441438854E+02 -0.42850641110E+02 -0.18055162601E+03  0.20420873230E+03  0.82994998067E+02 0.  0.
         -6    2    1    2    0  502  0.60842923714E+01  0.95474284471E+02  0.27097859282E+03  0.33477595840E+03  0.17173580566E+03 0.  0.
        -24    2    5    5    0    0 -0.29009517018E+02  0.19294663380E+02  0.22002301640E+03  0.23652388007E+03  0.79495798557E+02 0.  0.
          5    1    3    3  501    0 -0.25525731226E+02 -0.52623643361E+02  0.36506807581E+01  0.58789695229E+02  0.47000000000E+01 0. -1.
        -13    1    4    4    0    0  0.70073150784E+01 -0.11610274484E+02  0.58715569652E+01  0.14777554581E+02  0.00000000000E+00 0.  1.
         14    1    4    4    0    0  0.12434123776E+02 -0.31240366626E+02 -0.18642318298E+03  0.18943117772E+03  0.00000000000E+00 0. -1.
         -5    1    5    5    0  502  0.35093809389E+02  0.76179621092E+02  0.50955576425E+02  0.98252078329E+02  0.47000000000E+01 0.  1.
         13    1    6    6    0    0  0.78506122648E+01  0.29404829351E+02  0.17426515820E+03  0.17690285883E+03  0.00000000000E+00 0. -1.
        -14    1    6    6    0    0 -0.36860129282E+02 -0.10110165971E+02  0.45757858201E+02  0.59621021241E+02  0.00000000000E+00 0.  1.
</event>
<event>
12    1  0.8747122E-002  0.1797065E+03  0.7818608E-02  0.1168736E+00
         21   -1    0    0  503  502  0.00000000000E+00  0.00000000000E+00  0.17999597697E+03  0.17999597697E+03  0.00000000000E+00 0.  1.
         21   -1    0    0  501  503 -0.00000000000E+00 -0.00000000000E+00 -0.34580382914E+03  0.34580382914E+03  0.00000000000E+00 0. -1.
          6    2    1    2  501    0  0.31964443966E+02  0.40152210040E+02 -0.26701898279E+03  0.32185952044E+03  0.17222220553E+03 0.  0.
         24    2    3    3    0    0 -0.46204377526E+02  0.19075763952E+01 -0.11900111199E+03  0.15009108116E+03  0.78915046972E+02 0.  0.
         -6    2    1    2    0  502 -0.31964443966E+02 -0.40152210040E+02  0.10121113061E+03  0.20394028567E+03  0.16945212158E+03 0.  0.
        -24    2    5    5    0    0 -0.78422522228E+02 -0.83533754321E+01  0.93938198951E+02  0.14697973394E+03  0.80986332757E+02 0.  0.
          5    1    3    3  501    0  0.78168821492E+02  0.38244633645E+02 -0.14801787080E+03  0.17176843928E+03  0.47000000000E+01 0. -1.
        -11    1    4    4    0    0 -0.16871955869E+02  0.20037968900E+02 -0.63777088143E-03  0.26195096734E+02  0.00000000000E+00 0.  1.
         12    1    4    4    0    0 -0.29332421657E+02 -0.18130392505E+02 -0.11900047422E+03  0.12389598442E+03  0.00000000000E+00 0. -1.
         -5    1    5    5    0  502  0.46458078262E+02 -0.31798834608E+02  0.72729316628E+01  0.56960551728E+02  0.47000000000E+01 0.  1.
         13    1    6    6    0    0 -0.69406427727E+02  0.40705906029E+01  0.21268021456E+02  0.72705918977E+02  0.00000000000E+00 0. -1.
        -14    1    6    6    0    0 -0.90160945010E+01 -0.12423966035E+02  0.72670177495E+02  0.74273814964E+02  0.00000000000E+00 0.  1.
</event>
<event>
12    1  0.8747122E-002  0.2086037E+03  0.7818608E-02  0.1143233E+00
         21   -1    0    0  503  502  0.00000000000E+00  0.00000000000E+00  0.73992039326E+03  0.73992039326E+03  0.00000000000E+00 0.  1.
         21   -1    0    0  501  503 -0.00000000000E+00 -0.00000000000E+00 -0.27573337598E+03  0.27573337598E+03  0.00000000000E+00 0.  1.
          6    2    1    2  501    0  0.23701556842E+01  0.11773733445E+03 -0.21881076628E+03  0.30231384480E+03  0.17218539937E+03 0.  0.
         24    2    3    3    0    0  0.62517903358E+01  0.56320135822E+01 -0.15388849613E+03  0.17262320822E+03  0.77757946970E+02 0.  0.
         -6    2    1    2    0  502 -0.23701556842E+01 -0.11773733445E+03  0.68299778356E+03  0.71333992444E+03  0.16881995703E+03 0.  0.
        -24    2    5    5    0    0 -0.46651961941E+02 -0.85284094492E+02  0.28149878149E+03  0.30807750352E+03  0.78869524328E+02 0.  0.
          5    1    3    3  501    0 -0.38816346517E+01  0.11210532087E+03 -0.64922270157E+02  0.12969063658E+03  0.47000000000E+01 0. -1.
        -11    1    4    4    0    0 -0.22717455290E+02  0.12280914574E+02 -0.13533810711E+02  0.29155919982E+02  0.00000000000E+00 0.  1.
         12    1    4    4    0    0  0.28969245626E+02 -0.66489009920E+01 -0.14035468541E+03  0.14346728824E+03  0.00000000000E+00 0. -1.
         -5    1    5    5    0  502  0.44281806257E+02 -0.32453239962E+02  0.40149900207E+03  0.40526242092E+03  0.47000000000E+01 0.  1.
         11    1    6    6    0    0 -0.43955545271E+02 -0.98569948739E+02  0.26813804670E+03  0.28904348607E+03  0.00000000000E+00 0. -1.
        -12    1    6    6    0    0 -0.26964166709E+01  0.13285854248E+02  0.13360734795E+02  0.19034017448E+02  0.00000000000E+00 0.  1.
</event>
<event>
12    1  0.8747122E-002  0.2580544E+03  0.7818608E-02  0.1108829E+00
         21   -1    0    0  501  502  0.00000000000E+00  0.00000000000E+00  0.80724605431E+03  0.80724605431E+03  0.00000000000E+00 0.  1.
         21   -1    0    0  502  503 -0.00000000000E+00 -0.00000000000E+00 -0.93048362323E+02  0.93048362323E+02  0.00000000000E+00 0.  1.
         -6    2    1    2    0  503 -0.18682911983E+03  0.48172363511E+02  0.20005530983E+03  0.32651827459E+03  0.17136615777E+03 0.  0.
        -24    2    3    3    0    0 -0.43867269112E+02 -0.28422221524E+02  0.56518742264E+02  0.10988573446E+03  0.78411392246E+02 0.  0.
          6    2    1    2  501    0  0.18682911983E+03 -0.48172363511E+02  0.51414238215E+03  0.57377614204E+03  0.16628582449E+03 0.  0.
         24    2    5    5    0    0  0.14240383835E+03 -0.94241074681E+02  0.34887695566E+03  0.39648913468E+03  0.79550426759E+02 0.  0.
          5    1    5    5  501    0  0.44425281483E+02  0.46068711169E+02  0.16526542650E+03  0.17728700736E+03  0.47000000000E+01 0. -1.
        -11    1    6    6    0    0  0.37496273881E+02 -0.14848447165E+02  0.26385042296E+02  0.48193541010E+02  0.00000000000E+00 0.  1.
         12    1    6    6    0    0  0.10490756447E+03 -0.79392627516E+02  0.32249191336E+03  0.34829559367E+03  0.00000000000E+00 0. -1.
         -5    1    3    3    0  503 -0.14296185072E+03  0.76594585035E+02  0.14353656757E+03  0.21663254014E+03  0.47000000000E+01 0.  1.
         13    1    4    4    0    0 -0.53667196404E+02 -0.21185416463E+02  0.70657792565E+02  0.91222330001E+02  0.00000000000E+00 0. -1.
        -14    1    4    4    0    0  0.97999272918E+01 -0.72368050607E+01 -0.14139050301E+02  0.18663404454E+02  0.00000000000E+00 0.  1.
</event>
<event>
12    1  0.8747122E-002  0.2225154E+03  0.7818608E-02  0.1132583E+00
         21   -1    0    0  501  502  0.00000000000E+00  0.00000000000E+00  0.80529084260E+03  0.80529084260E+03  0.00000000000E+00 0. -1.
         21   -1    0    0  502  503 -0.00000000000E+00 -0.00000000000E+00 -0.12566716237E+03  0.12566716237E+03  0.00000000000E+00 0. -1.
         -6    2    1    2    0  503 -0.13254510763E+03  0.28147040838E+02  0.38753658494E+01  0.21951657902E+03  0.17266165915E+03 0.  0.
        -24    2    3    3    0    0 -0.37299515998E+02  0.67396700429E+02  0.23626032386E+02  0.11451925843E+03  0.81381214181E+02 0.  0.
          6    2    1    2  501    0  0.13254510763E+03 -0.28147040838E+02  0.67574831438E+03  0.71144142595E+03  0.17650115213E+03 0.  0.
         24    2    5    5    0    0  0.43585738241E+02 -0.48013102762E+02  0.18026952147E+03  0.20762622765E+03  0.80041085822E+02 0.  0.
          5    1    5    5  501    0  0.88959369389E+02  0.19866061924E+02  0.49547879291E+03  0.50381519830E+03  0.47000000000E+01 0. -1.
        -11    1    6    6    0    0  0.64007094735E+02 -0.19112845133E+02  0.10490961337E+03  0.12437136327E+03  0.00000000000E+00 0.  1.
         12    1    6    6    0    0 -0.20421356494E+02 -0.28900257629E+02  0.75359908104E+02  0.83254864371E+02  0.00000000000E+00 0. -1.
         -5    1    3    3    0  503 -0.95245591632E+02 -0.39249659591E+02 -0.19750666537E+02  0.10499732059E+03  0.47000000000E+01 0.  1.
         11    1    4    4    0    0 -0.16162727986E+02 -0.16577698901E+02 -0.42697027145E+01  0.23543241877E+02  0.00000000000E+00 0. -1.
        -12    1    4    4    0    0 -0.21136788012E+02  0.83974399330E+02  0.27895735101E+02  0.90976016549E+02  0.00000000000E+00 0.  1.
</event>
<event>
12    1  0.8747122E-002  0.1874920E+03  0.7818608E-02  0.1161146E+00
         21   -1    0    0  503  502  0.00000000000E+00  0.00000000000E+00  0.33062838939E+04  0.33062838939E+04  0.00000000000E+00 0. -1.
         21   -1    0    0  501  503 -0.00000000000E+00 -0.00000000000E+00 -0.11020262810E+02  0.11020262810E+02  0.00000000000E+00 0. -1.
          6    2    1    2  501    0 -0.63552311206E+02 -0.30048491220E+02  0.13064047575E+04  0.13197903803E+04  0.17381441156E+03 0.  0.
         24    2    3    3    0    0 -0.38614322848E+02 -0.92914882269E+01  0.12589513168E+04  0.12621130411E+04  0.79959443910E+02 0.  0.
         -6    2    1    2    0  502  0.63552311206E+02  0.30048491220E+02  0.19888588736E+04  0.19975137763E+04  0.17192980965E+03 0.  0.
        -24    2    5    5    0    0  0.57948955153E+02 -0.45025956599E+02  0.12776933212E+04  0.12823591754E+04  0.80990206293E+02 0.  0.
          5    1    3    3  501    0 -0.24937988358E+02 -0.20757002993E+02  0.47453440659E+02  0.57677339285E+02  0.47000000000E+01 0. -1.
        -11    1    4    4    0    0 -0.43643524708E+02  0.13318601056E+02  0.11408269799E+04  0.11417391736E+04  0.00000000000E+00 0.  1.
         12    1    4    4    0    0  0.50292018605E+01 -0.22610089283E+02  0.11812433685E+03  0.12037386745E+03  0.00000000000E+00 0. -1.
         -5    1    5    5    0  502  0.56033560527E+01  0.75074447819E+02  0.71116555245E+03  0.71515460098E+03  0.47000000000E+01 0.  1.
         13    1    6    6    0    0  0.28874057200E+02  0.10181137326E+02  0.15861971327E+03  0.16154745487E+03  0.00000000000E+00 0. -1.
        -14    1    6    6    0    0  0.29074897953E+02 -0.55207093925E+02  0.11190736079E+04  0.11208117205E+04  0.00000000000E+00 0.  1.
</event>
<event>
12    1  0.8747122E-002  0.2082057E+03  0.7818608E-02  0.1143633E+00
         21   -1    0    0  501  502  0.00000000000E+00  0.00000000000E+00  0.58282277246E+03  0.58282277246E+03  0.00000000000E+00 0.  1.
         21   -1    0    0  502  503 -0.00000000000E+00 -0.00000000000E+00 -0.94430282892E+02  0.94430282892E+02  0.00000000000E+00 0. -1.
         -6    2    1    2    0  503  0.10614684737E+03 -0.38669524311E+02  0.82393624079E+02  0.22098045963E+03  0.17111741271E+03 0.  0.
        -24    2    3    3    0    0  0.33814679348E+02 -0.13722590126E+02 -0.22587072413E+02  0.90990734296E+02  0.80233383752E+02 0.  0.
          6    2    1    2  501    0 -0.10614684737E+03  0.38669524311E+02  0.40599886549E+03  0.45627259572E+03  0.17489173084E+03 0.  0.
         24    2    5    5    0    0 -0.11954593584E+03  0.74677142949E+02  0.36848968917E+03  0.40237350037E+03  0.79068807515E+02 0.  0.
          5    1    5    5  501    0  0.13399088470E+02 -0.36007618638E+02  0.37509176315E+02  0.53899095351E+02  0.47000000000E+01 0. -1.
        -13    1    6    6    0    0 -0.43360820627E+02  0.67598473512E+02  0.23706350638E+03  0.25029746391E+03  0.00000000000E+00 0.  1.
         14    1    6    6    0    0 -0.76185115209E+02  0.70786694363E+01  0.13142618279E+03  0.15207603646E+03  0.00000000000E+00 0. -1.
         -5    1    3    3    0  503  0.72332168018E+02 -0.24946934184E+02  0.10498069649E+03  0.12998972533E+03  0.47000000000E+01 0.  1.
         13    1    4    4    0    0 -0.11041138993E+01  0.30759630489E+02 -0.21281937363E+01  0.30852927639E+02  0.00000000000E+00 0. -1.
        -14    1    4    4    0    0  0.34918793247E+02 -0.44482220615E+02 -0.20458878677E+02  0.60137806656E+02  0.00000000000E+00 0.  1.
</event>
<event>
12    1  0.8747122E-002  0.1950499E+03  0.7818608E-02  0.1154000E+00
         21   -1    0    0  501  502  0.00000000000E+00  0.00000000000E+00  0.12823004296E+03  0.12823004296E+03  0.00000000000E+00 0. -1.
         21   -1    0    0  502  503 -0.00000000000E+00 -0.00000000000E+00 -0.48779371690E+03  0.48779371690E+03  0.00000000000E+00 0.  1.
         -6    2    1    2    0  503  0.27585658351E+02 -0.86859042022E+02 -0.37264926638E+03  0.42060903013E+03  0.17245004716E+03 0.  0.
        -24    2    3    3    0    0  0.50816429542E+02 -0.61688130261E+02 -0.11585438192E+03  0.16149718900E+03  0.79191977612E+02 0.  0.
          6    2    1    2  501    0 -0.27585658351E+02  0.86859042022E+02  0.13085592442E+02  0.19541472973E+03  0.17236653427E+03 0.  0.
         24    2    5    5    0    0  0.22166419914E+02  0.37901220089E+02 -0.49793778551E+02  0.10135069347E+03  0.76581264217E+02 0.  0.
          5    1    5    5  501    0 -0.49752078265E+02  0.48957821933E+02  0.62879370993E+02  0.94064036255E+02  0.47000000000E+01 0. -1.
        -11    1    6    6    0    0  0.32929530847E+02  0.56502931296E+02 -0.29326237034E+02  0.71672612799E+02  0.00000000000E+00 0.  1.
         12    1    6    6    0    0 -0.10763110933E+02 -0.18601711206E+02 -0.20467541517E+02  0.29678080675E+02  0.00000000000E+00 0. -1.
         -5    1    3    3    0  503 -0.23230771191E+02 -0.25170911761E+02 -0.25679488446E+03  0.25911184113E+03  0.47000000000E+01 0.  1.
         11    1    4    4    0    0  0.23115782291E+02 -0.11878658259E+02  0.62641476757E+01  0.26733526873E+02  0.00000000000E+00 0. -1.
        -12    1    4    4    0    0  0.27700647252E+02 -0.49809472001E+02 -0.12211852959E+03  0.13476366213E+03  0.00000000000E+00 0.  1.
</event>
<event>
12    1  0.8747122E-002  0.1843785E+03  0.7818608E-02  0.1163988E+00
         21   -1    0    0  501  502  0.00000000000E+00  0.00000000000E+00  0.29463893391E+04  0.29463893391E+04  0.00000000000E+00 0.  1.
         21   -1    0    0  502  503 -0.00000000000E+00 -0.00000000000E+00 -0.13181807036E+02  0.13181807036E+02  0.00000000000E+00 0.  1.
         -6    2    1    2    0  503 -0.31417456251E+02  0.60065296402E+02  0.92400613472E+03  0.94192754933E+03  0.16983896725E+03 0.  0.
        -24    2    3    3    0    0  0.16597499926E+01  0.10105052542E+03  0.70145865819E+03  0.71318454970E+03  0.79837267734E+02 0.  0.
          6    2    1    2  501    0  0.31417456251E+02 -0.60065296402E+02  0.20092013973E+04  0.20176435968E+04  0.17146583407E+03 0.  0.
         24    2    5    5    0    0  0.29246282159E+02 -0.10307511297E+03  0.17231921515E+04  0.17283722069E+04  0.79996691248E+02 0.  0.
          5    1    5    5  501    0  0.21711740918E+01  0.43009816566E+02  0.28600924585E+03  0.28927138992E+03  0.47000000000E+01 0. -1.
        -11    1    6    6    0    0  0.49903864308E+02 -0.99778725884E+02  0.15263306027E+04  0.15304023323E+04  0.00000000000E+00 0.  1.
         12    1    6    6    0    0 -0.20657582150E+02 -0.32963870837E+01  0.19686154875E+03  0.19796987459E+03  0.00000000000E+00 0. -1.
         -5    1    3    3    0  503 -0.33077206243E+02 -0.40985229022E+02  0.22254747653E+03  0.22874299963E+03  0.47000000000E+01 0.  1.
         11    1    4    4    0    0 -0.13346996141E+02  0.90160255683E+01  0.32320467033E+03  0.32360576316E+03  0.00000000000E+00 0. -1.
        -12    1    4    4    0    0  0.15006746134E+02  0.92034499855E+02  0.37825398786E+03  0.38957878654E+03  0.00000000000E+00 0.  1.
</event>
<event>
12    1  0.8747122E-002  0.1760511E+03  0.7818608E-02  0.1171809E+00
         21   -1    0    0  503  502  0.00000000000E+00  0.00000000000E+00  0.54714387284E+02  0.54714387284E+02  0.00000000000E+00 0. -1.
         21   -1    0    0  501  503 -0.00000000000E+00 -0.00000000000E+00 -0.62292052122E+03  0.62292052122E+03  0.00000000000E+00 0.  1.
          6    2    1    2  501    0 -0.20540198886E+02  0.35118097213E+02 -0.38721032269E+03  0.42514043477E+03  0.17075530667E+03 0.  0.
         24    2    3    3    0    0 -0.52331325309E+02  0.68810862978E+02 -0.20209542248E+03  0.23425959638E+03  0.81003063133E+02 0.  0.
         -6    2    1    2    0  502  0.20540198886E+02 -0.35118097213E+02 -0.18099581125E+03  0.25249447374E+03  0.17128571177E+03 0.  0.
        -24    2    5    5    0    0 -0.14217897719E+02 -0.54773481571E+02 -0.40757535819E+02  0.10660642313E+03  0.80631692455E+02 0.  0.
          5    1    3    3  501    0  0.31791126423E+02 -0.33692765764E+02 -0.18511490021E+03  0.19088083839E+03  0.47000000000E+01 0. -1.
        -13    1    4    4    0    0 -0.55404268505E+02  0.17259791858E+02 -0.15031827195E+03  0.16113074277E+03  0.00000000000E+00 0.  1.
         14    1    4    4    0    0  0.30729431964E+01  0.51551071120E+02 -0.51777150531E+02  0.73128853612E+02  0.00000000000E+00 0. -1.
         -5    1    5    5    0  502  0.34758096605E+02  0.19655384358E+02 -0.14023827543E+03  0.14588805060E+03  0.47000000000E+01 0.  1.
         11    1    6    6    0    0 -0.16798385763E+02  0.18551083496E+02 -0.12594276747E+02  0.28016856889E+02  0.00000000000E+00 0. -1.
        -12    1    6    6    0    0  0.25804880441E+01 -0.73324565068E+02 -0.28163259072E+02  0.78589566244E+02  0.00000000000E+00 0.  1.
</event>
<event>
12    1  0.8747122E-002  0.2588958E+03  0.7818608E-02  0.1107945E+00
         21   -1    0    0  503  502  0.00000000000E+00  0.00000000000E+00  0.69820314573E+03  0.69820314573E+03  0.00000000000E+00 0. -1.
         21   -1    0    0  501  503 -0.00000000000E+00 -0.00000000000E+00 -0.12230221408E+03  0.12230221408E+03  0.00000000000E+00 0.  1.
          6    2    1    2  501    0  0.11415840305E+03  0.15614449394E+03  0.47980292439E+03  0.54519526767E+03  0.17208657606E+03 0.  0.
         24    2    3    3    0    0  0.10967934892E+03  0.38929105651E+02  0.23231650118E+03  0.27127716156E+03  0.77944254572E+02 0.  0.
         -6    2    1    2    0  502 -0.11415840305E+03 -0.15614449394E+03  0.96098007257E+02  0.27531009213E+03  0.17072661144E+03 0.  0.
        -24    2    5    5    0    0 -0.24503780225E+02 -0.10287256604E+03  0.10419186328E+03  0.17060359662E+03  0.84062136053E+02 0.  0.
          5    1    3    3  501    0  0.44790541288E+01  0.11721538829E+03  0.24748642321E+03  0.27391810611E+03  0.47000000000E+01 0. -1.
        -13    1    4    4    0    0 -0.81805945775E+01 -0.82902033257E+01  0.32604824587E+02  0.34622596453E+02  0.00000000000E+00 0.  1.
         14    1    4    4    0    0  0.11785994349E+03  0.47219308977E+02  0.19971167659E+03  0.23665456511E+03  0.00000000000E+00 0. -1.
         -5    1    5    5    0  502 -0.89654622822E+02 -0.53271927903E+02 -0.80938560246E+01  0.10470649551E+03  0.47000000000E+01 0.  1.
         13    1    6    6    0    0  0.30903402848E+02 -0.28733618230E+02  0.27129026574E+02  0.50165976588E+02  0.00000000000E+00 0. -1.
        -14    1    6    6    0    0 -0.55407183073E+02 -0.74138947812E+02  0.77062836707E+02  0.12043762004E+03  0.00000000000E+00 0.  1.
</event>
<event>
12    1  0.8747122E-002  0.2914665E+03  0.7818608E-02  0.1090011E+00
         21   -1    0    0  501  502  0.00000000000E+00  0.00000000000E+00  0.92252037821E+02  0.92252037821E+02  0.00000000000E+00 0. -1.
         21   -1    0    0  502  503 -0.00000000000E+00 -0.00000000000E+00 -0.97749469401E+03  0.97749469401E+03  0.00000000000E+00 0.  1.
         -6    2    1    2    0  503 -0.22433834711E+03  0.71806657779E+02 -0.30503835869E+03  0.42190181740E+03  0.17166494449E+03 0.  0.
        -24    2    3    3    0    0 -0.22648552904E+03  0.38431652983E+02 -0.30203546958E+03  0.38799593770E+03  0.80887180515E+02 0.  0.
          6    2    1    2  501    0  0.22433834711E+03 -0.71806657779E+02 -0.58020429750E+03  0.64784491443E+03  0.16607864473E+03 0.  0.
         24    2    5    5    0    0  0.13013703158E+03 -0.10604217988E+03 -0.41130477894E+03  0.45138856765E+03  0.79996418202E+02 0.  0.
          5    1    5    5  501    0  0.94201315524E+02  0.34235522105E+02 -0.16889951856E+03  0.19645634678E+03  0.47000000000E+01 0. -1.
        -11    1    6    6    0    0  0.99112870014E+02 -0.56568988107E+02 -0.18244958136E+03  0.21520051384E+03  0.00000000000E+00 0.  1.
         12    1    6    6    0    0  0.31024161570E+02 -0.49473191776E+02 -0.22885519758E+03  0.23618805381E+03  0.00000000000E+00 0. -1.
         -5    1    3    3    0  503  0.21471819275E+01  0.33375004795E+02 -0.30028891097E+01  0.33905879702E+02  0.47000000000E+01 0.  1.
         13    1    4    4    0    0 -0.22872654417E+02 -0.11609326889E+02 -0.80171194294E+01  0.26873946395E+02  0.00000000000E+00 0. -1.
        -14    1    4    4    0    0 -0.20361287462E+03  0.50040979872E+02 -0.29401835016E+03  0.36112199131E+03  0.00000000000E+00 0.  1.
</event>
<event>
12    1  0.8747122E-002  0.2144190E+03  0.7818608E-02  0.1138350E+00
         21   -1    0    0  503  502  0.00000000000E+00  0.00000000000E+00  0.29383553337E+03  0.29383553337E+03  0.00000000000E+00 0. -1.
         21   -1    0    0  501  503 -0.00000000000E+00 -0.00000000000E+00 -0.38205154971E+03  0.38205154971E+03  0.00000000000E+00 0.  1.
          6    2    1    2  501    0  0.67272461410E+02  0.10761075790E+03 -0.30424851709E+03  0.37150975646E+03  0.17130872632E+03 0.  0.
         24    2    3    3    0    0  0.32924901035E+02  0.14033839475E+03 -0.22930123673E+03  0.28268387087E+03  0.80945657921E+02 0.  0.
         -6    2    1    2    0  502 -0.67272461410E+02 -0.10761075790E+03  0.21603250074E+03  0.30437732662E+03  0.17282897993E+03 0.  0.
        -24    2    5    5    0    0  0.25556336491E+02 -0.76347102351E+02  0.14653917876E+03  0.18418575588E+03  0.77257073360E+02 0.  0.
          5    1    3    3  501    0  0.34347560375E+02 -0.32727636847E+02 -0.74947280358E+02  0.88825885587E+02  0.47000000000E+01 0. -1.
        -13    1    4    4    0    0  0.37379855488E+02  0.15773768103E+02 -0.60725179095E+02  0.73031587225E+02  0.00000000000E+00 0.  1.
         14    1    4    4    0    0 -0.44549544531E+01  0.12456462665E+03 -0.16857605764E+03  0.20965228365E+03  0.00000000000E+00 0. -1.
         -5    1    5    5    0  502 -0.92828797901E+02 -0.31263655552E+02  0.69493321981E+02  0.12019157075E+03  0.47000000000E+01 0.  1.
         11    1    6    6    0    0  0.26248866399E+02 -0.91002812737E+02  0.11212038639E+03  0.14677021482E+03  0.00000000000E+00 0. -1.
        -12    1    6    6    0    0 -0.69252990757E+00  0.14655710386E+02  0.34418792373E+02  0.37415541063E+02  0.00000000000E+00 0.  1.
</event>
<event>
12    1  0.8747122E-002  0.1949110E+03  0.7818608E-02  0.1154762E+00
         21   -1    0    0  501  502  0.00000000000E+00  0.00000000000E+00  0.23693325229E+03  0.23693325229E+03  0.00000000000E+00 0.  1.
         21   -1    0    0  502  503 -0.00000000000E+00 -0.00000000000E+00 -0.17246372011E+03  0.17246372011E+03  0.00000000000E+00 0.  1.
         -6    2    1    2    0  503 -0.90738722896E+02  0.12176004298E+02 -0.27030136795E+02  0.19677634244E+03  0.17207129259E+03 0.  0.
        -24    2    3    3    0    0 -0.80239215622E+02  0.15135275440E+02  0.45939968138E+02  0.12284581320E+03  0.79455678606E+02 0.  0.
          6    2    1    2  501    0  0.90738722896E+02 -0.12176004298E+02  0.91499668967E+02  0.21262062996E+03  0.16868186610E+03 0.  0.
         24    2    5    5    0    0  0.63331782141E+02  0.10996300822E+02 -0.11601904194E+02  0.10334977148E+03  0.80092058424E+02 0.  0.
          5    1    5    5  501    0  0.27406940755E+02 -0.23172305120E+02  0.10310157316E+03  0.10927085849E+03  0.47000000000E+01 0. -1.
        -13    1    6    6    0    0  0.22801966527E+02 -0.33842637329E+02 -0.13192968263E+02  0.42887156474E+02  0.00000000000E+00 0.  1.
         14    1    6    6    0    0  0.40529815614E+02  0.44838938151E+02  0.15910640697E+01  0.60462615003E+02  0.00000000000E+00 0. -1.
         -5    1    3    3    0  503 -0.10499507275E+02 -0.29592711421E+01 -0.72970104932E+02  0.73930529232E+02  0.47000000000E+01 0.  1.
         13    1    4    4    0    0 -0.75789211598E+02 -0.18727668171E+02  0.21909053180E+02  0.81084750484E+02  0.00000000000E+00 0. -1.
        -14    1    4    4    0    0 -0.44500040238E+01  0.33862943610E+02  0.24030914957E+02  0.41761062719E+02  0.00000000000E+00 0.  1.
</event>
<event>
12    1  0.8747122E-002  0.1964113E+03  0.7818608E-02  0.1155226E+00
         21   -1    0    0  503  502  0.00000000000E+00  0.00000000000E+00  0.98083645647E+02  0.98083645647E+02  0.00000000000E+00 0. -1.
         21   -1    0    0  501  503 -0.00000000000E+00 -0.00000000000E+00 -0.44091036010E+03  0.44091036010E+03  0.00000000000E+00 0. -1.
          6    2    1    2  501    0  0.63969679886E+02  0.26946574091E+02 -0.27393861071E+03  0.33085227894E+03  0.17205414917E+03 0.  0.
         24    2    3    3    0    0  0.94671563751E+02 -0.14239670460E+02 -0.24015770817E+03  0.26919068807E+03  0.74982855050E+02 0.  0.
         -6    2    1    2    0  502 -0.63969679886E+02 -0.26946574091E+02 -0.68888103747E+02  0.20814172681E+03  0.18373668605E+03 0.  0.
        -24    2    5    5    0    0 -0.74852732417E+02 -0.95761846612E+01  0.27836989401E+02  0.10915685470E+03  0.73794892005E+02 0.  0.
          5    1    3    3  501    0 -0.30701883865E+02  0.41186244550E+02 -0.33780902539E+02  0.61661590876E+02  0.47000000000E+01 0. -1.
        -11    1    4    4    0    0  0.35677364298E+02 -0.13802378068E+02 -0.24075752171E+02  0.45199798740E+02  0.00000000000E+00 0.  1.
         12    1    4    4    0    0  0.58994199454E+02 -0.43729239165E+00 -0.21608195600E+03  0.22399088933E+03  0.00000000000E+00 0. -1.
         -5    1    5    5    0  502  0.10883052530E+02 -0.17370389430E+02 -0.96725093148E+02  0.98984872106E+02  0.47000000000E+01 0.  1.
         13    1    6    6    0    0 -0.58652097447E+02 -0.37948878551E+02  0.65562336655E+01  0.70165305658E+02  0.00000000000E+00 0. -1.
        -14    1    6    6    0    0 -0.16200634969E+02  0.28372693890E+02  0.21280755736E+02  0.38991549041E+02  0.00000000000E+00 0.  1.
</event>
<event>
12    1  0.8747122E-002  0.1962024E+03  0.7818608E-02  0.1153160E+00
         21   -1    0    0  501  502  0.00000000000E+00  0.00000000000E+00  0.98929435338E+03  0.98929435338E+03  0.00000000000E+00 0.  1.
         21   -1    0    0  502  503 -0.00000000000E+00 -0.00000000000E+00 -0.52826292611E+02  0.52826292611E+02  0.00000000000E+00 0.  1.
         -6    2    1    2    0  503 -0.62703737353E+02  0.71348783190E+02  0.19855315195E+03  0.27856723564E+03  0.17074525786E+03 0.  0.
        -24    2    3    3    0    0 -0.16609729060E+02  0.22240272858E+02  0.19292799955E+03  0.21081743322E+03  0.80325987735E+02 0.  0.
          6    2    1    2  501    0  0.62703737353E+02 -0.71348783190E+02  0.73791490882E+03  0.76355341036E+03  0.17167699398E+03 0.  0.
         24    2    5    5    0    0  0.41989419211E+02 -0.47734844855E+02  0.19683075456E+03  0.22153786348E+03  0.79340735286E+02 0.  0.
          5    1    5    5  501    0  0.20714318142E+02 -0.23613938335E+02  0.54108415426E+03  0.54201554687E+03  0.47000000000E+01 0. -1.
        -11    1    6    6    0    0 -0.16437693535E+02 -0.45446140602E+01  0.94556143249E+02  0.96081816760E+02  0.00000000000E+00 0.  1.
         12    1    6    6    0    0  0.58427112746E+02 -0.43190230795E+02  0.10227461131E+03  0.12545604672E+03  0.00000000000E+00 0. -1.
         -5    1    3    3    0  503 -0.46094008293E+02  0.49108510332E+02  0.56251524008E+01  0.67749802414E+02  0.47000000000E+01 0.  1.
         11    1    4    4    0    0  0.14409869475E+02 -0.19608059080E+02  0.24551795813E+02  0.34567484676E+02  0.00000000000E+00 0. -1.
        -12    1    4    4    0    0 -0.31019598535E+02  0.41848331938E+02  0.16837620374E+03  0.17624994855E+03  0.00000000000E+00 0.  1.
</event>
<event>
12    1  0.8747122E-002  0.1943811E+03  0.7818608E-02  0.1154843E+00
         21   -1    0    0  503  502  0.00000000000E+00  0.00000000000E+00  0.31694494653E+03  0.31694494653E+03  0.00000000000E+00 0.  1.
         21   -1    0    0  501  503 -0.00000000000E+00 -0.00000000000E+00 -0.14036199197E+03  0.14036199197E+03  0.00000000000E+00 0. -1.
          6    2    1    2  501    0  0.86111482354E+02 -0.21840130132E+02 -0.22947915922E+01  0.19314553800E+03  0.17148689193E+03 0.  0.
         24    2    3    3    0    0  0.31093847588E+02  0.31040294038E+02  0.47265647714E+02  0.10203238561E+03  0.79033151569E+02 0.  0.
         -6    2    1    2    0  502 -0.86111482354E+02  0.21840130132E+02  0.17887774616E+03  0.26416140049E+03  0.17289250638E+03 0.  0.
        -24    2    5    5    0    0 -0.73214003134E+02  0.74135457359E+02  0.86943051331E+02  0.15750670377E+03  0.79955683133E+02 0.  0.
          5    1    3    3  501    0  0.55017634766E+02 -0.52880424170E+02 -0.49560439306E+02  0.91113152397E+02  0.47000000000E+01 0. -1.
        -11    1    4    4    0    0 -0.21936700589E+02 -0.44230383923E+01  0.27057653455E+02  0.35112657431E+02  0.00000000000E+00 0.  1.
         12    1    4    4    0    0  0.53030548177E+02  0.35463332430E+02  0.20207994259E+02  0.66919728175E+02  0.00000000000E+00 0. -1.
         -5    1    5    5    0  502 -0.12897479220E+02 -0.52295327227E+02  0.91934694825E+02  0.10665469672E+03  0.47000000000E+01 0.  1.
         11    1    6    6    0    0 -0.25004263248E+02 -0.13251186802E+02  0.34958539380E+02  0.44976734072E+02  0.00000000000E+00 0. -1.
        -12    1    6    6    0    0 -0.48209739886E+02  0.87386644161E+02  0.51984511951E+02  0.11252996970E+03  0.00000000000E+00 0.  1.
</event>
<event>
12    1  0.8747122E-002  0.1915172E+03  0.7818608E-02  0.1158881E+00
         21   -1    0    0  503  502  0.00000000000E+00  0.00000000000E+00  0.38649049554E+02  0.38649049554E+02  0.00000000000E+00 0. -1.
         21   -1    0    0  501  503 -0.00000000000E+00 -0.00000000000E+00 -0.11165193059E+04  0.11165193059E+04  0.00000000000E+00 0.  1.
          6    2    1    2  501    0  0.58271022366E+02 -0.31766441712E+02 -0.77770728932E+03  0.79911124968E+03  0.17130540750E+03 0.  0.
         24    2    3    3    0    0 -0.31115173473E+02 -0.38948529682E+02 -0.37018031577E+03  0.38180824398E+03  0.79113380693E+02 0.  0.
         -6    2    1    2    0  502 -0.58271022366E+02  0.31766441712E+02 -0.30016296706E+03  0.35605710580E+03  0.17965031849E+03 0.  0.
        -24    2    5    5    0    0  0.98919853324E+01  0.46064044013E+02 -0.25945477454E+03  0.27524953198E+03  0.78903594951E+02 0.  0.
          5    1    3    3  501    0  0.89386195838E+02  0.71820879699E+01 -0.40752697355E+03  0.41730300570E+03  0.47000000000E+01 0. -1.
        -11    1    4    4    0    0  0.19431153697E+02  0.72675185472E+01 -0.14396581044E+03  0.14545288288E+03  0.00000000000E+00 0.  1.
         12    1    4    4    0    0 -0.50546327170E+02 -0.46216048229E+02 -0.22621450533E+03  0.23635536111E+03  0.00000000000E+00 0. -1.
         -5    1    5    5    0  502 -0.68163007698E+02 -0.14297602301E+02 -0.40708192513E+02  0.80807573827E+02  0.47000000000E+01 0.  1.
         11    1    6    6    0    0  0.38050982201E+02  0.10847067638E+02 -0.69091553502E+02  0.79618960607E+02  0.00000000000E+00 0. -1.
        -12    1    6    6    0    0 -0.28158996869E+02  0.35216976375E+02 -0.19036322104E+03  0.19563057137E+03  0.00000000000E+00 0.  1.
</event>
<event>
12    1  0.8747122E-002  0.2247002E+03  0.7818608E-02  0.1130427E+00
         21   -1    0    0  501  502  0.00000000000E+00  0.00000000000E+00  0.13028371415E+04  0.13028371415E+04  0.00000000000E+00 0. -1.
         21   -1    0    0  502  503 -0.00000000000E+00 -0.00000000000E+00 -0.53712647855E+02  0.53712647855E+02  0.00000000000E+00 0.  1.
         -6    2    1    2    0  503 -0.50379000453E+02 -0.13595733679E+03  0.26661446953E+03  0.34867387802E+03  0.17166175095E+03 0.  0.
        -24    2    3    3    0    0  0.17770190503E+02 -0.10940534825E+02  0.83393389032E+02  0.11658431053E+03  0.78752581891E+02 0.  0.
          6    2    1    2  501    0  0.50379000453E+02  0.13595733679E+03  0.98251002414E+03  0.10078759114E+04  0.17165507289E+03 0.  0.
         24    2    5    5    0    0  0.29258493733E+02  0.71334686717E+02  0.27908700625E+03  0.30115942308E+03  0.82841680743E+02 0.  0.
          5    1    5    5  501    0  0.21120506720E+02  0.64622650069E+02  0.70342301789E+03  0.70671648828E+03  0.47000000000E+01 0. -1.
        -11    1    6    6    0    0 -0.76766081683E+01  0.13957233076E+01 -0.28742892636E+01  0.83150403060E+01  0.00000000000E+00 0.  1.
         12    1    6    6    0    0  0.36935101901E+02  0.69938963409E+02  0.28196129551E+03  0.29284438277E+03  0.00000000000E+00 0. -1.
         -5    1    3    3    0  503 -0.68149190957E+02 -0.12501680196E+03  0.18322108050E+03  0.23208956750E+03  0.47000000000E+01 0.  1.
         13    1    4    4    0    0 -0.27605243281E+02 -0.91249149580E+01  0.57186823154E+02  0.64153302893E+02  0.00000000000E+00 0. -1.
        -14    1    4    4    0    0  0.45375433784E+02 -0.18156198671E+01  0.26206565878E+02  0.52431007636E+02  0.00000000000E+00 0.  1.
</event>
<event>
12    1  0.8747122E-002  0.1902131E+03  0.7818608E-02  0.1158271E+00
         21   -1    0    0  503  502  0.00000000000E+00  0.00000000000E+00  0.78981381337E+02  0.78981381337E+02  0.00000000000E+00 0.  1.
         21   -1    0    0  501  503 -0.00000000000E+00 -0.00000000000E+00 -0.47478497912E+03  0.47478497912E+03  0.00000000000E+00 0.  1.
          6    2    1    2  501    0  0.28957256657E+02 -0.76098159693E+02 -0.14596620563E+03  0.23976041163E+03  0.17189959040E+03 0.  0.
         24    2    3    3    0    0  0.35002774812E+02 -0.11517426871E+03 -0.13499795964E+03  0.19845807506E+03  0.81675284104E+02 0.  0.
         -6    2    1    2    0  502 -0.28957256657E+02  0.76098159693E+02 -0.24983739215E+03  0.31400594882E+03  0.17190567401E+03 0.  0.
        -24    2    5    5    0    0 -0.82640976572E+02  0.63890840333E+02 -0.20263744970E+03  0.24133625089E+03  0.79181307676E+02 0.  0.
          5    1    3    3  501    0 -0.60455181551E+01  0.39076109021E+02 -0.10968245990E+02  0.41302336569E+02  0.47000000000E+01 0. -1.
        -11    1    4    4    0    0  0.17332569978E+02 -0.61796452432E+00  0.36680372491E+01  0.17727220861E+02  0.00000000000E+00 0.  1.
         12    1    4    4    0    0  0.17670204834E+02 -0.11455630419E+03 -0.13866599689E+03  0.18073085420E+03  0.00000000000E+00 0. -1.
         -5    1    5    5    0  502  0.53683719915E+02  0.12207319360E+02 -0.47199942454E+02  0.72669697933E+02  0.47000000000E+01 0.  1.
         11    1    6    6    0    0 -0.64378424337E+02  0.47262959983E+02 -0.69327284800E+02  0.10575746463E+03  0.00000000000E+00 0. -1.
        -12    1    6    6    0    0 -0.18262552236E+02  0.16627880349E+02 -0.13331016490E+03  0.13557878626E+03  0.00000000000E+00 0.  1.
</event>
<event>
12    1  0.8747122E-002  0.1951391E+03  0.7818608E-02  0.1155657E+00
         21   -1    0    0  503  502  0.00000000000E+00  0.00000000000E+00  0.29643777891E+02  0.29643777891E+02  0.00000000000E+00 0. -1.
         21   -1    0    0  501  503 -0.00000000000E+00 -0.00000000000E+00 -0.12645499485E+04  0.12645499485E+04  0.00000000000E+00 0. -1.
          6    2    1    2  501    0  0.48395002431E+02  0.55175608275E+02 -0.70672978641E+03  0.73112217057E+03  0.17229687549E+03 0.  0.
         24    2    3    3    0    0  0.49977539520E+02  0.70944902585E+02 -0.70475151768E+03  0.71447348853E+03  0.79162683645E+02 0.  0.
         -6    2    1    2    0  502 -0.48395002431E+02 -0.55175608275E+02 -0.52817638425E+03  0.56307155586E+03  0.18081167035E+03 0.  0.
        -24    2    5    5    0    0 -0.12975581964E+02  0.37896422802E+02 -0.32121114209E+03  0.33334641624E+03  0.79616146765E+02 0.  0.
          5    1    3    3  501    0 -0.15825370886E+01 -0.15769294310E+02 -0.19782687280E+01  0.16648682045E+02  0.47000000000E+01 0. -1.
        -13    1    4    4    0    0 -0.13992882703E+00 -0.72958300939E+01 -0.56617388680E+01  0.92360166655E+01  0.00000000000E+00 0.  1.
         14    1    4    4    0    0  0.50117468347E+02  0.78240732679E+02 -0.69908977881E+03  0.70523747186E+03  0.00000000000E+00 0. -1.
         -5    1    5    5    0  502 -0.35419420467E+02 -0.93072031077E+02 -0.20696524216E+03  0.22972513963E+03  0.47000000000E+01 0.  1.
         11    1    6    6    0    0 -0.27588638810E+02 -0.13901632459E+02 -0.17138316104E+03  0.17414527345E+03  0.00000000000E+00 0. -1.
        -12    1    6    6    0    0  0.14613056845E+02  0.51798055261E+02 -0.14982798106E+03  0.15920114279E+03  0.00000000000E+00 0.  1.
</event>
<event>
12    1  0.8747122E-002  0.2446373E+03  0.7818608E-02  0.1117222E+00
         21   -1    0    0  501  502  0.00000000000E+00  0.00000000000E+00  0.46089350049E+02  0.46089350049E+02  0.00000000000E+00 0. -1.
         21   -1    0    0  502  503 -0.00000000000E+00 -0.00000000000E+00 -0.20920494310E+04  0.20920494310E+04  0.00000000000E+00 0. -1.
         -6    2    1    2    0  503  0.15145146966E+03  0.77337419701E+02 -0.16840240596E+04  0.17012805753E+04  0.17175546101E+03 0.  0.
        -24    2    3    3    0    0  0.15982481585E+03  0.10533742456E+03 -0.15802833677E+04  0.15933994631E+04  0.70614319982E+02 0.  0.
          6    2    1    2  501    0 -0.15145146966E+03 -0.77337419701E+02 -0.36193602140E+03  0.43685820581E+03  0.17586581319E+03 0.  0.
         24    2    5    5    0    0 -0.14930618746E+03 -0.27043640975E+02 -0.34160505110E+03  0.38236504323E+03  0.80531479692E+02 0.  0.
          5    1    5    5  501    0 -0.21452822059E+01 -0.50293778727E+02 -0.20330970304E+02  0.54493162579E+02  0.47000000000E+01 0. -1.
        -11    1    6    6    0    0 -0.60345412398E+02  0.25806160173E+02 -0.10097920357E+03  0.12043390824E+03  0.00000000000E+00 0.  1.
         12    1    6    6    0    0 -0.88960775060E+02 -0.52849801148E+02 -0.24062584753E+03  0.26193113500E+03  0.00000000000E+00 0. -1.
         -5    1    3    3    0  503 -0.83733461828E+01 -0.28000004861E+02 -0.10374069192E+03  0.10788111214E+03  0.47000000000E+01 0.  1.
         13    1    4    4    0    0  0.94073150470E+02  0.72479591730E+02 -0.12152704840E+04  0.12210591296E+04  0.00000000000E+00 0. -1.
        -14    1    4    4    0    0  0.65751665377E+02  0.32857832832E+02 -0.36501288371E+03  0.37234033350E+03  0.00000000000E+00 0.  1.
</event>
<event>
12    1  0.8747122E-002  0.2362432E+03  0.7818608E-02  0.1122352E+00
         21   -1    0    0  501  502  0.00000000000E+00  0.00000000000E+00  0.69957625316E+03  0.69957625316E+03  0.00000000000E+00 0.  1.
         21   -1    0    0  502  503 -0.00000000000E+00 -0.00000000000E+00 -0.89821470434E+02  0.89821470434E+02  0.00000000000E+00 0. -1.
         -6    2    1    2    0  503  0.87345022866E+02 -0.13641555399E+03  0.17259278847E+03  0.29257330216E+03  0.17196659593E+03 0.  0.
        -24    2    3    3    0    0  0.35687422977E+02 -0.95360770460E+01  0.11261674633E+03  0.14295336724E+03  0.79928747815E+02 0.  0.
          6    2    1    2  501    0 -0.87345022866E+02  0.13641555399E+03  0.43716199426E+03  0.49682442144E+03  0.17171354089E+03 0.  0.
         24    2    5    5    0    0 -0.81589785866E+02  0.54647191573E+02  0.36900351397E+03  0.39011520778E+03  0.79894138160E+02 0.  0.
          5    1    5    5  501    0 -0.57552370006E+01  0.81768362413E+02  0.68158480282E+02  0.10670921366E+03  0.47000000000E+01 0. -1.
        -11    1    6    6    0    0 -0.81233719059E+02  0.47261794676E+02  0.20032983191E+03  0.22127954243E+03  0.00000000000E+00 0.  1.
         12    1    6    6    0    0 -0.35606680684E+00  0.73853968968E+01  0.16867368207E+03  0.16883566535E+03  0.00000000000E+00 0. -1.
         -5    1    3    3    0  503  0.51657599890E+02 -0.12687947694E+03  0.59976042146E+02  0.14961993492E+03  0.47000000000E+01 0.  1.
         13    1    4    4    0    0  0.80333410538E+01  0.42436716757E+01 -0.11723492551E+02  0.14831843964E+02  0.00000000000E+00 0. -1.
        -14    1    4    4    0    0  0.27654081923E+02 -0.13779748722E+02  0.12434023888E+03  0.12812152328E+03  0.00000000000E+00 0.  1.
</event>
<event>
12    1  0.8747122E-002  0.2552117E+03  0.7818608E-02  0.1110064E+00
         21   -1    0    0  503  502  0.00000000000E+00  0.00000000000E+00  0.18041082799E+03  0.18041082799E+03  0.00000000000E+00 0. -1.
         21   -1    0    0  501  503 -0.00000000000E+00 -0.00000000000E+00 -0.36415743864E+03  0.36415743864E+03  0.00000000000E+00 0.  1.
          6    2    1    2  501    0  0.59007451372E+02 -0.17990715808E+03 -0.66268498750E+02  0.26361608077E+03  0.17103642673E+03 0.  0.
         24    2    3    3    0    0  0.10252396066E+03 -0.16257906172E+03 -0.48144051160E+02  0.21317269563E+03  0.78623372356E+02 0.  0.
         -6    2    1    2    0  502 -0.59007451372E+02  0.17990715808E+03 -0.11747811190E+03  0.28095218585E+03  0.17112731843E+03 0.  0.
        -24    2    5    5    0    0 -0.24077742397E+02  0.39080616752E+02  0.40718138261E+01  0.91614725864E+02  0.79181096498E+02 0.  0.
          5    1    3    3  501    0 -0.43516509290E+02 -0.17328096362E+02 -0.18124447589E+02  0.50443385143E+02  0.47000000000E+01 0. -1.
        -11    1    4    4    0    0  0.67017894940E+02 -0.61300626816E+02 -0.54045505160E+02  0.10568860732E+03  0.00000000000E+00 0.  1.
         12    1    4    4    0    0  0.35506065722E+02 -0.10127843490E+03  0.59014539994E+01  0.10748408830E+03  0.00000000000E+00 0. -1.
         -5    1    5    5    0  502 -0.34929708976E+02  0.14082654133E+03 -0.12154992572E+03  0.18933745999E+03  0.47000000000E+01 0.  1.
         13    1    6    6    0    0 -0.55077942172E+01  0.25104259296E+02  0.40758690130E+02  0.48185375925E+02  0.00000000000E+00 0. -1.
        -14    1    6    6    0    0 -0.18569948180E+02  0.13976357457E+02 -0.36686876304E+02  0.43429349939E+02  0.00000000000E+00 0.  1.
</event>
<event>
12    1  0.8747122E-002  0.2777970E+03  0.7818608E-02  0.1097008E+00
         21   -1    0    0  503  502  0.00000000000E+00  0.00000000000E+00  0.68531639054E+03  0.68531639054E+03  0.00000000000E+00 0.  1.
         21   -1    0    0  501  503 -0.00000000000E+00 -0.00000000000E+00 -0.20751018824E+03  0.20751018824E+03  0.00000000000E+00 0. -1.
          6    2    1    2  501    0  0.21655764121E+03 -0.16325068247E+02 -0.63321217858E+02  0.28492232244E+03  0.17322653773E+03 0.  0.
         24    2    3    3    0    0  0.78902636821E+02 -0.57065778581E+00  0.31000294912E+02  0.11724483601E+03  0.80990008888E+02 0.  0.
         -6    2    1    2    0  502 -0.21655764121E+03  0.16325068247E+02  0.54112742015E+03  0.60790425634E+03  0.17194470103E+03 0.  0.
        -24    2    5    5    0    0 -0.18299384124E+03  0.54633440836E+02  0.50219312131E+03  0.54362339056E+03  0.82806406033E+02 0.  0.
          5    1    3    3  501    0  0.13765500439E+03 -0.15754410461E+02 -0.94321512769E+02  0.16767748643E+03  0.47000000000E+01 0. -1.
        -13    1    4    4    0    0  0.34078745773E+02  0.36265430193E+02  0.32094601695E+02  0.59216600700E+02  0.00000000000E+00 0.  1.
         14    1    4    4    0    0  0.44823891048E+02 -0.36836087979E+02 -0.10943067828E+01  0.58028235314E+02  0.00000000000E+00 0. -1.
         -5    1    5    5    0  502 -0.33563799977E+02 -0.38308372588E+02  0.38934298837E+02  0.64280865779E+02  0.47000000000E+01 0.  1.
         11    1    6    6    0    0 -0.63708615207E+02  0.61341265558E+02  0.22665348773E+03  0.24329681874E+03  0.00000000000E+00 0. -1.
        -12    1    6    6    0    0 -0.11928522603E+03 -0.67078247227E+01  0.27553963359E+03  0.30032657182E+03  0.00000000000E+00 0.  1.
</event>
<event>
12    1  0.8747122E-002  0.1951482E+03  0.7818608E-02  0.1154432E+00
         21   -1    0    0  503  502  0.00000000000E+00  0.00000000000E+00  0.92121072247E+02  0.92121072247E+02  0.00000000000E+00 0.  1.
         21   -1    0    0  501  503 -0.00000000000E+00 -0.00000000000E+00 -0.20965735683E+04  0.20965735683E+04  0.00000000000E+00 0.  1.
          6    2    1    2  501    0  0.73397240572E+02  0.36722530645E+02 -0.19854804740E+04  0.19950477477E+04  0.17705113327E+03 0.  0.
         24    2    3    3    0    0  0.18598861878E+02  0.48835870462E+02 -0.17531732859E+04  0.17560115267E+04  0.85023829555E+02 0.  0.
         -6    2    1    2    0  502 -0.73397240572E+02 -0.36722530645E+02 -0.18972022079E+02  0.19364689287E+03  0.17436594368E+03 0.  0.
        -24    2    5    5    0    0 -0.86281790333E+02 -0.60832186280E+02 -0.58949773650E+02  0.14498892602E+03  0.80010065770E+02 0.  0.
          5    1    3    3  501    0  0.54798378694E+02 -0.12113339817E+02 -0.23230718808E+03  0.23903622099E+03  0.47000000000E+01 0. -1.
        -11    1    4    4    0    0  0.50952091500E+02  0.26165294103E+02 -0.81717250338E+03  0.81917741578E+03  0.00000000000E+00 0.  1.
         12    1    4    4    0    0 -0.32353229622E+02  0.22670576358E+02 -0.93600078252E+03  0.93683411092E+03  0.00000000000E+00 0. -1.
         -5    1    5    5    0  502  0.12884549761E+02  0.24109655635E+02  0.39977751571E+02  0.48657966851E+02  0.47000000000E+01 0.  1.
         13    1    6    6    0    0 -0.32831046033E+02 -0.71775634365E+01 -0.60534339942E+02  0.69237282678E+02  0.00000000000E+00 0. -1.
        -14    1    6    6    0    0 -0.53450744300E+02 -0.53654622843E+02  0.15845662920E+01  0.75751643342E+02  0.00000000000E+00 0.  1.
</event>
<event>
12    1  0.8747122E-002  0.1992692E+03  0.7818608E-02  0.1150856E+00
         21   -1    0    0  501  502  0.00000000000E+00  0.00000000000E+00  0.48839310889E+03  0.48839310889E+03  0.00000000000E+00 0. -1.
         21   -1    0    0  502  503 -0.00000000000E+00 -0.00000000000E+00 -0.82727722153E+02  0.82727722153E+02  0.00000000000E+00 0. -1.
         -6    2    1    2    0  503  0.24170958201E+02  0.99247866465E+02  0.15560761174E+03  0.25282792379E+03  0.17109604320E+03 0.  0.
        -24    2    3    3    0    0  0.13708518742E+02  0.11639088132E+03  0.17839042533E+03  0.22209533210E+03  0.61387555334E+02 0.  0.
          6    2    1    2  501    0 -0.24170958201E+02 -0.99247866465E+02  0.25005777499E+03  0.31829290725E+03  0.16836599940E+03 0.  0.
         24    2    5    5    0    0 -0.43232546642E+02  0.27255456282E+01  0.14003236764E+03  0.16699981028E+03  0.80021190684E+02 0.  0.
          5    1    5    5  501    0  0.19061588440E+02 -0.10197341209E+03  0.11002540735E+03  0.15129309697E+03  0.47000000000E+01 0. -1.
        -13    1    6    6    0    0 -0.44595295955E+02 -0.25778360295E+02  0.12398841684E+03  0.13426239902E+03  0.00000000000E+00 0.  1.
         14    1    6    6    0    0  0.13627493132E+01  0.28503905924E+02  0.16043950802E+02  0.32737411259E+02  0.00000000000E+00 0. -1.
         -5    1    3    3    0  503  0.10462439460E+02 -0.17143014851E+02 -0.22782813584E+02  0.30732591697E+02  0.47000000000E+01 0.  1.
         13    1    4    4    0    0 -0.10059231161E+02  0.10576820779E+03  0.14482236439E+03  0.17961519740E+03  0.00000000000E+00 0. -1.
        -14    1    4    4    0    0  0.23767749903E+02  0.10622673526E+02  0.33568060937E+02  0.42480134691E+02  0.00000000000E+00 0.  1.
</event>
<event>
12    1  0.8747122E-002  0.2021881E+03  0.7818608E-02  0.1149203E+00
         21   -1    0    0  503  502  0.00000000000E+00  0.00000000000E+00  0.96082078913E+02  0.96082078913E+02  0.00000000000E+00 0. -1.
         21   -1    0    0  501  503 -0.00000000000E+00 -0.00000000000E+00 -0.53947940944E+03  0.53947940944E+03  0.00000000000E+00 0.  1.
          6    2    1    2  501    0  0.15943961258E+02 -0.10790165492E+03 -0.37837276092E+03  0.42900581381E+03  0.17024413364E+03 0.  0.
         24    2    3    3    0    0 -0.32664683813E+02 -0.10162692017E+03 -0.34453748647E+03  0.36926396525E+03  0.79087192260E+02 0.  0.
         -6    2    1    2    0  502 -0.15943961258E+02  0.10790165492E+03 -0.65024569602E+02  0.20655567454E+03  0.16291124884E+03 0.  0.
        -24    2    5    5    0    0 -0.18882443733E+02  0.23348563286E+02 -0.93934445419E+02  0.11702506020E+03  0.63003829964E+02 0.  0.
          5    1    3    3  501    0  0.48608645071E+02 -0.62747347521E+01 -0.33835274451E+02  0.59741848557E+02  0.47000000000E+01 0. -1.
        -11    1    4    4    0    0  0.13011932476E+02 -0.78826239938E+02 -0.23956869533E+03  0.25253919749E+03  0.00000000000E+00 0.  1.
         12    1    4    4    0    0 -0.45676616289E+02 -0.22800680228E+02 -0.10496879114E+03  0.11672476776E+03  0.00000000000E+00 0. -1.
         -5    1    5    5    0  502  0.29384824753E+01  0.84553091633E+02  0.28909875817E+02  0.89530614338E+02  0.47000000000E+01 0.  1.
         13    1    6    6    0    0 -0.34195913332E+02  0.20575455116E+02 -0.26708735662E+02  0.48021520202E+02  0.00000000000E+00 0. -1.
        -14    1    6    6    0    0  0.15313469599E+02  0.27731081698E+01 -0.67225709757E+02  0.69003539999E+02  0.00000000000E+00 0.  1.
</event>
<event>
12    1  0.8747122E-002  0.2704002E+03  0.7818608E-02  0.1101199E+00
         21   -1    0    0  501  502  0.00000000000E+00  0.00000000000E+00  0.34379213751E+03  0.34379213751E+03  0.00000000000E+00 0.  1.
         21   -1    0    0  502  503 -0.00000000000E+00 -0.00000000000E+00 -0.22309413340E+03  0.22309413340E+03  0.00000000000E+00 0.  1.
         -6    2    1    2    0  503 -0.25145718649E+02 -0.20509463548E+03 -0.31460928949E+01  0.27041853856E+03  0.17441379368E+03 0.  0.
        -24    2    3    3    0    0 -0.39985914197E+02 -0.15095817296E+03 -0.64951085344E+02  0.18679476759E+03  0.79286810990E+02 0.  0.
          6    2    1    2  501    0  0.25145718649E+02  0.20509463548E+03  0.12384409700E+03  0.29646773235E+03  0.17279941926E+03 0.  0.
         24    2    5    5    0    0  0.82375631828E+02  0.15335132098E+03  0.80871841770E+02  0.20802940199E+03  0.80209755860E+02 0.  0.
          5    1    5    5  501    0 -0.57229913178E+02  0.51743314497E+02  0.42972255230E+02  0.88438330362E+02  0.47000000000E+01 0. -1.
        -13    1    6    6    0    0  0.59222318359E+02  0.30443266848E+02  0.27215375760E+02  0.71935750263E+02  0.00000000000E+00 0.  1.
         14    1    6    6    0    0  0.23153313468E+02  0.12290805413E+03  0.53656466010E+02  0.13609365173E+03  0.00000000000E+00 0. -1.
         -5    1    3    3    0  503  0.14840195548E+02 -0.54136462522E+02  0.61804992449E+02  0.83623770962E+02  0.47000000000E+01 0.  1.
         13    1    4    4    0    0 -0.73646903299E+01 -0.30853471430E+00 -0.27085948583E+02  0.28071025417E+02  0.00000000000E+00 0. -1.
        -14    1    4    4    0    0 -0.32621223867E+02 -0.15064963824E+03 -0.37865136761E+02  0.15872374218E+03  0.00000000000E+00 0.  1.
</event>
<event>
12    1  0.8747122E-002  0.2429365E+03  0.7818608E-02  0.1120287E+00
         21   -1    0    0  501  502  0.00000000000E+00  0.00000000000E+00  0.13109693330E+03  0.13109693330E+03  0.00000000000E+00 0.  1.
         21   -1    0    0  502  503 -0.00000000000E+00 -0.00000000000E+00 -0.48608210703E+03  0.48608210703E+03  0.00000000000E+00 0. -1.
         -6    2    1    2    0  503 -0.14271831644E+03 -0.47613729329E+02 -0.29250861311E+03  0.38023604954E+03  0.19074218086E+03 0.  0.
        -24    2    3    3    0    0 -0.11792420868E+03 -0.87572208730E+02 -0.13304163977E+03  0.21391337086E+03  0.80522304903E+02 0.  0.
          6    2    1    2  501    0  0.14271831644E+03  0.47613729329E+02 -0.62476560619E+02  0.23694299079E+03  0.17205544220E+03 0.  0.
         24    2    5    5    0    0  0.10166001979E+03  0.61350837891E+02 -0.10360319828E+03  0.17704322284E+03  0.80696933799E+02 0.  0.
          5    1    5    5  501    0  0.41058296650E+02 -0.13737108562E+02  0.41126637664E+02  0.59899767954E+02  0.47000000000E+01 0. -1.
        -13    1    6    6    0    0  0.25297635697E+02  0.19794615502E+02  0.10318602639E+02  0.33738268112E+02  0.00000000000E+00 0.  1.
         14    1    6    6    0    0  0.76362384090E+02  0.41556222389E+02 -0.11392180092E+03  0.14330495472E+03  0.00000000000E+00 0. -1.
         -5    1    3    3    0  503 -0.24794107760E+02  0.39958479401E+02 -0.15946697334E+03  0.16632267868E+03  0.47000000000E+01 0.  1.
         11    1    4    4    0    0 -0.68609414628E+01 -0.34543745492E+02 -0.63340606509E+02  0.72473273027E+02  0.00000000000E+00 0. -1.
        -12    1    4    4    0    0 -0.11106326721E+03 -0.53028463238E+02 -0.69701033257E+02  0.14144009783E+03  0.00000000000E+00 0.  1.
</event>
<event>
12    1  0.8747122E-002  0.1868177E+03  0.7818608E-02  0.1161390E+00
         21   -1    0    0  501  502  0.00000000000E+00  0.00000000000E+00  0.22562936502E+03  0.22562936502E+03  0.00000000000E+00 0.  1.
         21   -1    0    0  502  503 -0.00000000000E+00 -0.00000000000E+00 -0.16697113209E+03  0.16697113209E+03  0.00000000000E+00 0.  1.
         -6    2    1    2    0  503 -0.36874783468E+02 -0.62942994657E+02 -0.24121030512E+02  0.18836841463E+03  0.17198623575E+03 0.  0.
        -24    2    3    3    0    0 -0.15389664510E+02 -0.10393703556E+03 -0.41621421178E+02  0.13866453752E+03  0.80347757477E+02 0.  0.
          6    2    1    2  501    0  0.36874783468E+02  0.62942994657E+02  0.82779263443E+02  0.20423208247E+03  0.17186263940E+03 0.  0.
         24    2    5    5    0    0  0.34507588574E+02  0.10571188952E+03  0.36885665929E+02  0.14127897077E+03  0.78951997931E+02 0.  0.
          5    1    5    5  501    0  0.23671948943E+01 -0.42768894861E+02  0.45893597514E+02  0.62953111695E+02  0.47000000000E+01 0. -1.
        -13    1    6    6    0    0 -0.88947433662E+01  0.20332625074E+02 -0.20005412026E+02  0.29878899114E+02  0.00000000000E+00 0.  1.
         14    1    6    6    0    0  0.43402331940E+02  0.85379264444E+02  0.56891077955E+02  0.11140007166E+03  0.00000000000E+00 0. -1.
         -5    1    3    3    0  503 -0.21485118959E+02  0.40994040902E+02  0.17500390666E+02  0.49703877108E+02  0.47000000000E+01 0.  1.
         11    1    4    4    0    0  0.19374263227E+02 -0.23168958230E+02  0.15360805042E+02  0.33883875702E+02  0.00000000000E+00 0. -1.
        -12    1    4    4    0    0 -0.34763927737E+02 -0.80768077329E+02 -0.56982226220E+02  0.10478066182E+03  0.00000000000E+00 0.  1.
</event>
<event>
12    1  0.8747122E-002  0.2497994E+03  0.7818608E-02  0.1114943E+00
         21   -1    0    0  503  502  0.00000000000E+00  0.00000000000E+00  0.14513516383E+04  0.14513516383E+04  0.00000000000E+00 0.  1.
         21   -1    0    0  501  503 -0.00000000000E+00 -0.00000000000E+00 -0.80416695557E+02  0.80416695557E+02  0.00000000000E+00 0. -1.
          6    2    1    2  501    0  0.10048744552E+03 -0.13893280957E+03  0.12256443568E+04  0.12508412421E+04  0.18165811682E+03 0.  0.
         24    2    3    3    0    0  0.13463513046E+03 -0.13841208615E+03  0.11233205938E+04  0.11428663468E+04  0.83724586334E+02 0.  0.
         -6    2    1    2    0  502 -0.10048744552E+03  0.13893280957E+03  0.14529058598E+03  0.28092709175E+03  0.16855451410E+03 0.  0.
        -24    2    5    5    0    0 -0.68948827969E+02  0.98520970562E+02  0.17067456139E+03  0.22353164475E+03  0.79851535854E+02 0.  0.
          5    1    3    3  501    0 -0.34147684935E+02 -0.52072342300E+00  0.10232376299E+03  0.10797489528E+03  0.47000000000E+01 0. -1.
        -13    1    4    4    0    0  0.11388227059E+03 -0.12759768543E+03  0.10815348406E+04  0.10949739505E+04  0.00000000000E+00 0.  1.
         14    1    4    4    0    0  0.20752859867E+02 -0.10814400718E+02  0.41785753185E+02  0.47892396315E+02  0.00000000000E+00 0. -1.
         -5    1    5    5    0  502 -0.31538617555E+02  0.40411839009E+02 -0.25383975409E+02  0.57395447006E+02  0.47000000000E+01 0.  1.
         11    1    6    6    0    0 -0.31749943179E+02  0.87369146646E+02  0.72288048352E+02  0.11775817854E+03  0.00000000000E+00 0. -1.
        -12    1    6    6    0    0 -0.37198884790E+02  0.11151823916E+02  0.98386513038E+02  0.10577346621E+03  0.00000000000E+00 0.  1.
</event>
<event>
12    1  0.8747122E-002  0.1866813E+03  0.7818608E-02  0.1161932E+00
         21   -1    0    0  503  502  0.00000000000E+00  0.00000000000E+00  0.11639739919E+03  0.11639739919E+03  0.00000000000E+00 0.  1.
         21   -1    0    0  501  503 -0.00000000000E+00 -0.00000000000E+00 -0.30333940169E+03  0.30333940169E+03  0.00000000000E+00 0.  1.
          6    2    1    2  501    0  0.63101941704E+02 -0.32658918026E+02 -0.12485702181E+03  0.22300236939E+03  0.17056471172E+03 0.  0.
         24    2    3    3    0    0  0.35718140990E+02 -0.51259898732E+02 -0.15046044892E+03  0.18088949126E+03  0.78608514460E+02 0.  0.
         -6    2    1    2    0  502 -0.63101941704E+02  0.32658918026E+02 -0.62084980682E+02  0.19673443149E+03  0.17263091187E+03 0.  0.
        -24    2    5    5    0    0 -0.49093784526E+02 -0.46734465339E+02 -0.28090138548E+02  0.10911435912E+03  0.80762476150E+02 0.  0.
          5    1    3    3  501    0  0.27383800714E+02  0.18600980705E+02  0.25603427108E+02  0.42112878130E+02  0.47000000000E+01 0. -1.
        -11    1    4    4    0    0 -0.22389185886E+02 -0.19925720250E+02 -0.74193082776E+02  0.80018269813E+02  0.00000000000E+00 0.  1.
         12    1    4    4    0    0  0.58107326876E+02 -0.31334178482E+02 -0.76267366145E+02  0.10087122145E+03  0.00000000000E+00 0. -1.
         -5    1    5    5    0  502 -0.14008157178E+02  0.79393383365E+02 -0.33994842134E+02  0.87620072366E+02  0.47000000000E+01 0.  1.
         13    1    6    6    0    0 -0.71189006679E+01  0.10328379782E+02 -0.35727421497E+02  0.37865588896E+02  0.00000000000E+00 0. -1.
        -14    1    6    6    0    0 -0.41974883858E+02 -0.57062845121E+02  0.76372829491E+01  0.71248770228E+02  0.00000000000E+00 0.  1.
</event>
<event>
12    1  0.8747122E-002  0.1780941E+03  0.7818608E-02  0.1169775E+00
         21   -1    0    0  503  502  0.00000000000E+00  0.00000000000E+00  0.33952530832E+03  0.33952530832E+03  0.00000000000E+00 0. -1.
         21   -1    0    0  501  503 -0.00000000000E+00 -0.00000000000E+00 -0.23339285042E+03  0.23339285042E+03  0.00000000000E+00 0. -1.
          6    2    1    2  501    0  0.10978006184E+02 -0.43722700628E+02 -0.16894199238E+03  0.24547692919E+03  0.17229432610E+03 0.  0.
         24    2    3    3    0    0 -0.50191898974E+02 -0.45268090495E+02 -0.53920021729E+02  0.11510711191E+03  0.75985865322E+02 0.  0.
         -6    2    1    2    0  502 -0.10978006184E+02  0.43722700628E+02  0.27507445027E+03  0.32744122954E+03  0.17181273073E+03 0.  0.
        -24    2    5    5    0    0 -0.54858706621E+02 -0.22894196109E+02  0.14933940958E+03  0.17846231406E+03  0.77542996956E+02 0.  0.
          5    1    3    3  501    0  0.61169905158E+02  0.15453898674E+01 -0.11502197065E+03  0.13036981728E+03  0.47000000000E+01 0. -1.
        -11    1    4    4    0    0 -0.34036715246E+02  0.16313904342E+02 -0.15931035584E+02  0.40968760713E+02  0.00000000000E+00 0.  1.
         12    1    4    4    0    0 -0.16155183728E+02 -0.61581994837E+02 -0.37988986145E+02  0.74138351194E+02  0.00000000000E+00 0. -1.
         -5    1    5    5    0  502  0.43880700437E+02  0.66616896736E+02  0.12573504069E+03  0.14897891549E+03  0.47000000000E+01 0.  1.
         13    1    6    6    0    0 -0.45232017879E+02  0.22873213067E+02  0.84042913965E+02  0.98144437974E+02  0.00000000000E+00 0. -1.
        -14    1    6    6    0    0 -0.96266887414E+01 -0.45767409176E+02  0.65296495618E+02  0.80317876085E+02  0.00000000000E+00 0.  1.
</event>
<event>
12    1  0.8747122E-002  0.2232773E+03  0.7818608E-02  0.1134978E+00
         21   -1    0    0  503  502  0.00000000000E+00  0.00000000000E+00  0.12611185358E+03  0.12611185358E+03  0.00000000000E+00 0.  1.
         21   -1    0    0  501  503 -0.00000000000E+00 -0.00000000000E+00 -0.41020175759E+03  0.41020175759E+03  0.00000000000E+00 0. -1.
          6    2    1    2  501    0  0.91656398194E+02 -0.10572592077E+03 -0.57002166644E+02  0.23043868656E+03  0.17399389532E+03 0.  0.
         24    2    3    3    0    0  0.81880669711E+02 -0.97695348556E+02 -0.10242701602E+03  0.18305132646E+03  0.82265845317E+02 0.  0.
         -6    2    1    2    0  502 -0.91656398194E+02  0.10572592077E+03 -0.22708773737E+03  0.30587492460E+03  0.14970558902E+03 0.  0.
        -24    2    5    5    0    0 -0.24310291511E+01  0.42547164536E+02 -0.13430539222E+03  0.16240585026E+03  0.80756118705E+02 0.  0.
          5    1    3    3  501    0  0.97757284821E+01 -0.80305722137E+01  0.45424849371E+02  0.47387360106E+02  0.47000000000E+01 0. -1.
        -13    1    4    4    0    0  0.39467166662E+02 -0.11201329001E+02  0.18750874702E+01  0.41068759036E+02  0.00000000000E+00 0.  1.
         14    1    4    4    0    0  0.42413503049E+02 -0.86494019555E+02 -0.10430210349E+03  0.14198256742E+03  0.00000000000E+00 0. -1.
         -5    1    5    5    0  502 -0.89225369043E+02  0.63178756234E+02 -0.92782345151E+02  0.14346907434E+03  0.47000000000E+01 0.  1.
         13    1    6    6    0    0  0.63623965980E+01  0.61299733928E+01 -0.12293856065E+03  0.12325561390E+03  0.00000000000E+00 0. -1.
        -14    1    6    6    0    0 -0.87934257491E+01  0.36417191143E+02 -0.11366831569E+02  0.39150236360E+02  0.00000000000E+00 0.  1.
</event>
<event>
12    1  0.8747122E-002  0.2117301E+03  0.7818608E-02  0.1140492E+00
         21   -1    0    0  501  502  0.00000000000E+00  0.00000000000E+00  0.49584514763E+03  0.49584514763E+03  0.00000000000E+00 0. -1.
         21   -1    0    0  502  503 -0.00000000000E+00 -0.00000000000E+00 -0.10517018551E+03  0.10517018551E+03  0.00000000000E+00 0.  1.
         -6    2    1    2    0  503  0.54193175472E+02 -0.11012173508E+03  0.31085836665E+03  0.37611507637E+03  0.17252805497E+03 0.  0.
        -24    2    3    3    0    0  0.28108764501E+02 -0.70414781884E+02  0.69413848831E+02  0.12999603238E+03  0.79576013199E+02 0.  0.
          6    2    1    2  501    0 -0.54193175472E+02  0.11012173508E+03  0.79816595472E+02  0.22490025677E+03  0.17072123412E+03 0.  0.
         24    2    5    5    0    0 -0.23682497013E+02  0.14072681027E+03  0.44538646572E+02  0.16891636797E+03  0.78639382863E+02 0.  0.
          5    1    5    5  501    0 -0.30510678459E+02 -0.30605075183E+02  0.35277948900E+02  0.55983888803E+02  0.47000000000E+01 0. -1.
        -11    1    6    6    0    0 -0.11024173679E+02  0.80641148139E+02  0.65033360886E+02  0.10418188521E+03  0.00000000000E+00 0.  1.
         12    1    6    6    0    0 -0.12658323334E+02  0.60085662126E+02 -0.20494714314E+02  0.64734482756E+02  0.00000000000E+00 0. -1.
         -5    1    3    3    0  503  0.26084410971E+02 -0.39706953199E+02  0.24144451782E+03  0.24611904398E+03  0.47000000000E+01 0.  1.
         13    1    4    4    0    0  0.19978602718E+01 -0.19046880894E+02  0.69791570225E+02  0.72371530258E+02  0.00000000000E+00 0. -1.
        -14    1    4    4    0    0  0.26110904229E+02 -0.51367900990E+02 -0.37772139445E+00  0.57624502126E+02  0.00000000000E+00 0.  1.
</event>
<event>
12    1  0.8747122E-002  0.2994997E+03  0.7818608E-02  0.1085541E+00
         21   -1    0    0  501  502  0.00000000000E+00  0.00000000000E+00  0.23513071861E+03  0.23513071861E+03  0.00000000000E+00 0. -1.
         21   -1    0    0  502  503 -0.00000000000E+00 -0.00000000000E+00 -0.43444413857E+03  0.43444413857E+03  0.00000000000E+00 0. -1.
         -6    2    1    2    0  503  0.33329514511E+02  0.24226088576E+03 -0.21715865492E+03  0.36994317059E+03  0.17291291089E+03 0.  0.
        -24    2    3    3    0    0 -0.12017947530E+02  0.23754337427E+03 -0.16292975829E+03  0.29893957591E+03  0.79040990545E+02 0.  0.
          6    2    1    2  501    0 -0.33329514511E+02 -0.24226088576E+03  0.17845234960E+02  0.29963168658E+03  0.17221934237E+03 0.  0.
         24    2    5    5    0    0  0.81382909921E+01 -0.47124003049E+02 -0.25244421699E+02  0.95482744879E+02  0.78694156702E+02 0.  0.
          5    1    5    5  501    0 -0.41467805503E+02 -0.19513688271E+03  0.43089656659E+02  0.20414894170E+03  0.47000000000E+01 0. -1.
        -11    1    6    6    0    0 -0.20040272254E+02 -0.47496656678E+01 -0.37819523159E+02  0.43063768622E+02  0.00000000000E+00 0.  1.
         12    1    6    6    0    0  0.28178563246E+02 -0.42374337381E+02  0.12575101460E+02  0.52418976257E+02  0.00000000000E+00 0. -1.
         -5    1    3    3    0  503  0.45347462041E+02  0.47175114958E+01 -0.54228896633E+02  0.71003594685E+02  0.47000000000E+01 0.  1.
         11    1    4    4    0    0 -0.28741126750E+02  0.13730028557E+03 -0.54946740578E+02  0.15065379213E+03  0.00000000000E+00 0. -1.
        -12    1    4    4    0    0  0.16723179220E+02  0.10024308870E+03 -0.10798301771E+03  0.14828578377E+03  0.00000000000E+00 0.  1.
</event>
<event>
12    1  0.8747122E-002  0.1779059E+03  0.7818608E-02  0.1173358E+00
         21   -1    0    0  503  502  0.00000000000E+00  0.00000000000E+00  0.55182896530E+02  0.55182896530E+02  0.00000000000E+00 0.  1.
         21   -1    0    0  501  503 -0.00000000000E+00 -0.00000000000E+00 -0.60802716939E+03  0.60802716939E+03  0.00000000000E+00 0.  1.
          6    2    1    2  501    0  0.26669276683E+02  0.30256471607E+02 -0.38529333315E+03  0.41882550134E+03  0.15917645432E+03 0.  0.
         24    2    3    3    0    0 -0.29212603515E+02 -0.15645521277E+02 -0.26111318217E+03  0.27504588741E+03  0.79824731355E+02 0.  0.
         -6    2    1    2    0  502 -0.26669276683E+02 -0.30256471607E+02 -0.16755093971E+03  0.24438456458E+03  0.17327375339E+03 0.  0.
        -24    2    5    5    0    0  0.17752231768E+02 -0.22447559102E+01 -0.10582012156E+02  0.78796941714E+02  0.76005252321E+02 0.  0.
          5    1    3    3  501    0  0.55881880198E+02  0.45901992884E+02 -0.12418015098E+03  0.14377961393E+03  0.47000000000E+01 0. -1.
        -13    1    4    4    0    0 -0.62330779925E+01  0.16075959188E+02 -0.81556983956E+01  0.19073624233E+02  0.00000000000E+00 0.  1.
         14    1    4    4    0    0 -0.22979525522E+02 -0.31721480465E+02 -0.25295748378E+03  0.25597226318E+03  0.00000000000E+00 0. -1.
         -5    1    5    5    0  502 -0.44421508451E+02 -0.28011715697E+02 -0.15696892755E+03  0.16558762287E+03  0.47000000000E+01 0.  1.
         13    1    6    6    0    0 -0.49227431828E+01 -0.29653522515E+02  0.16314038085E+02  0.34201061923E+02  0.00000000000E+00 0. -1.
        -14    1    6    6    0    0  0.22674974951E+02  0.27408766605E+02 -0.26896050241E+02  0.44595879791E+02  0.00000000000E+00 0.  1.
</event>
<event>
12    1  0.8747122E-002  0.1840011E+03  0.7818608E-02  0.1164112E+00
         21   -1    0    0  503  502  0.00000000000E+00  0.00000000000E+00  0.29621631096E+03  0.29621631096E+03  0.00000000000E+00 0. -1.
         21   -1    0    0  501  503 -0.00000000000E+00 -0.00000000000E+00 -0.12160743846E+03  0.12160743846E+03  0.00000000000E+00 0. -1.
          6    2    1    2  501    0  0.24513602012E+00 -0.64180801230E+02  0.35048859930E+02  0.18730948187E+03  0.17244472760E+03 0.  0.
         24    2    3    3    0    0 -0.52559606024E+02 -0.76631914392E+02 -0.32279578388E+01  0.12074691146E+03  0.77035280394E+02 0.  0.
         -6    2    1    2    0  502 -0.24513602012E+00  0.64180801230E+02  0.13956001256E+03  0.23051426755E+03  0.17187377665E+03 0.  0.
        -24    2    5    5    0    0 -0.35673958150E+02  0.68669404853E+01  0.13670127476E+03  0.16290995960E+03  0.80824688394E+02 0.  0.
          5    1    3    3  501    0  0.52804742045E+02  0.12451113162E+02  0.38276817769E+02  0.66562570412E+02  0.47000000000E+01 0. -1.
        -11    1    4    4    0    0 -0.23562763637E+01 -0.67046093448E+02  0.10307490434E+02  0.67874701060E+02  0.00000000000E+00 0.  1.
         12    1    4    4    0    0 -0.50203329661E+02 -0.95858209444E+01 -0.13535448273E+02  0.52872210396E+02  0.00000000000E+00 0. -1.
         -5    1    5    5    0  502  0.35428822130E+02  0.57313860745E+02  0.28587377999E+01  0.67604307945E+02  0.47000000000E+01 0.  1.
         13    1    6    6    0    0  0.14800417178E+02  0.27707224540E+02  0.32101448734E+02  0.44913757928E+02  0.00000000000E+00 0. -1.
        -14    1    6    6    0    0 -0.50474375328E+02 -0.20840284055E+02  0.10459982603E+03  0.11799620168E+03  0.00000000000E+00 0.  1.
</event>
<event>
12    1  0.8747122E-002  0.1875744E+03  0.7818608E-02  0.1160949E+00
         21   -1    0    0  501  502  0.00000000000E+00  0.00000000000E+00  0.13162414109E+03  0.13162414109E+03  0.00000000000E+00 0.  1.
         21   -1    0    0  502  503 -0.00000000000E+00 -0.00000000000E+00 -0.29474549275E+03  0.29474549275E+03  0.00000000000E+00 0. -1.
         -6    2    1    2    0  503 -0.13956935065E+02  0.73935066500E+02 -0.14245913673E+02  0.18689511572E+03  0.17048650425E+03 0.  0.
        -24    2    3    3    0    0 -0.65587002510E+01 -0.74602036027E+01 -0.52805316691E+02  0.96402898187E+02  0.80040278118E+02 0.  0.
          6    2    1    2  501    0  0.13956935065E+02 -0.73935066500E+02 -0.14887543798E+03  0.23947451812E+03  0.17182246273E+03 0.  0.
         24    2    5    5    0    0  0.13787217015E+02  0.26582160837E+02 -0.87270208547E+02  0.12148707773E+03  0.79033677169E+02 0.  0.
          5    1    5    5  501    0  0.16971805015E+00 -0.10051722734E+03 -0.61605229437E+02  0.11798744039E+03  0.47000000000E+01 0. -1.
        -11    1    6    6    0    0  0.80880418836E+01  0.14344193571E+02  0.12583586150E+02  0.20724838989E+02  0.00000000000E+00 0.  1.
         12    1    6    6    0    0  0.56991751312E+01  0.12237967266E+02 -0.99853794698E+02  0.10076223874E+03  0.00000000000E+00 0. -1.
         -5    1    3    3    0  503 -0.73982348140E+01  0.81395270102E+02  0.38559403018E+02  0.90492217536E+02  0.47000000000E+01 0.  1.
         11    1    4    4    0    0 -0.41920463500E+02 -0.96078948416E+01 -0.17634376597E+02  0.46482342253E+02  0.00000000000E+00 0. -1.
        -12    1    4    4    0    0  0.35361763249E+02  0.21476912389E+01 -0.35170940093E+02  0.49920555934E+02  0.00000000000E+00 0.  1.
</event>
<event>
12    1  0.8747122E-002  0.1774299E+03  0.7818608E-02  0.1170449E+00
         21   -1    0    0  501  502  0.00000000000E+00  0.00000000000E+00  0.57308582097E+02  0.57308582097E+02  0.00000000000E+00 0.  1.
         21   -1    0    0  502  503 -0.00000000000E+00 -0.00000000000E+00 -0.54875519116E+03  0.54875519116E+03  0.00000000000E+00 0.  1.
         -6    2    1    2    0  503  0.33296312489E+02  0.17596078403E+02 -0.23246005803E+03  0.29243642114E+03  0.17338718357E+03 0.  0.
        -24    2    3    3    0    0  0.63900414855E+02  0.19775127522E+02 -0.23842669942E+03  0.26082866661E+03  0.81914489808E+02 0.  0.
          6    2    1    2  501    0 -0.33296312489E+02 -0.17596078403E+02 -0.25898655103E+03  0.31362735212E+03  0.17282886328E+03 0.  0.
         24    2    5    5    0    0 -0.61600924304E+02  0.24802758458E+02 -0.23425220449E+03  0.25677059952E+03  0.81530330372E+02 0.  0.
          5    1    5    5  501    0  0.28304611815E+02 -0.42398836861E+02 -0.24734346546E+02  0.56856752600E+02  0.47000000000E+01 0. -1.
        -13    1    6    6    0    0 -0.75588373827E+00  0.39931994489E+02 -0.11963487822E+03  0.12612549160E+03  0.00000000000E+00 0.  1.
         14    1    6    6    0    0 -0.60845040566E+02 -0.15129236031E+02 -0.11461732626E+03  0.13064510792E+03  0.00000000000E+00 0. -1.
         -5    1    3    3    0  503 -0.30604102366E+02 -0.21790491182E+01  0.59666413897E+01  0.31607754526E+02  0.47000000000E+01 0.  1.
         13    1    4    4    0    0  0.49004004431E+02  0.22597196836E+02 -0.55985638263E+02  0.77758712996E+02  0.00000000000E+00 0. -1.
        -14    1    4    4    0    0  0.14896410424E+02 -0.28220693145E+01 -0.18244106116E+03  0.18306995361E+03  0.00000000000E+00 0.  1.
</event>
<event>
12    1  0.8747122E-002  0.1935332E+03  0.7818608E-02  0.1155455E+00
         21   -1    0    0  501  502  0.00000000000E+00  0.00000000000E+00  0.29976637170E+03  0.29976637170E+03  0.00000000000E+00 0.  1.
         21   -1    0    0  502  503 -0.00000000000E+00 -0.00000000000E+00 -0.15571017261E+03  0.15571017261E+03  0.00000000000E+00 0.  1.
         -6    2    1    2    0  503 -0.46737125039E+02  0.76379668946E+02 -0.29975419149E+02  0.19520339439E+03  0.17084386656E+03 0.  0.
        -24    2    3    3    0    0 -0.50678978676E+01 -0.16619697985E+02  0.16074848567E+02  0.83275185705E+02  0.79840201952E+02 0.  0.
          6    2    1    2  501    0  0.46737125039E+02 -0.76379668946E+02  0.17403161824E+03  0.26027314993E+03  0.17157183843E+03 0.  0.
         24    2    5    5    0    0  0.61079123246E+02  0.78596441847E+01  0.12862388450E+03  0.16339225876E+03  0.79752700625E+02 0.  0.
          5    1    5    5  501    0 -0.14341998207E+02 -0.84239313131E+02  0.45407733740E+02  0.96880891164E+02  0.47000000000E+01 0. -1.
        -11    1    6    6    0    0 -0.25875354568E+01 -0.27154922019E+02  0.44891978892E+02  0.52529752508E+02  0.00000000000E+00 0.  1.
         12    1    6    6    0    0  0.63666658702E+02  0.35014566204E+02  0.83731905605E+02  0.11086250625E+03  0.00000000000E+00 0. -1.
         -5    1    3    3    0  503 -0.41669227171E+02  0.92999366931E+02 -0.46050267716E+02  0.11192820868E+03  0.47000000000E+01 0.  1.
         11    1    4    4    0    0 -0.17125577960E+02  0.19524749235E+01  0.44221818157E+02  0.47462266906E+02  0.00000000000E+00 0. -1.
        -12    1    4    4    0    0  0.12057680092E+02 -0.18572172909E+02 -0.28146969590E+02  0.35812918798E+02  0.00000000000E+00 0.  1.
</event>
<event>
12    1  0.8747122E-002  0.2499886E+03  0.7818608E-02  0.1113995E+00
         21   -1    0    0  503  502  0.00000000000E+00  0.00000000000E+00  0.10543480732E+04  0.10543480732E+04  0.00000000000E+00 0.  1.
         21   -1    0    0  501  503 -0.00000000000E+00 -0.00000000000E+00 -0.92176114017E+02  0.92176114017E+02  0.00000000000E+00 0. -1.
          6    2    1    2  501    0 -0.16386569324E+03 -0.58905787765E+02  0.13599535625E+03  0.28458568962E+03  0.17936672090E+03 0.  0.
         24    2    3    3    0    0 -0.80508054223E+02 -0.35320142213E+02 -0.50249771587E+01  0.11901515151E+03  0.80064328211E+02 0.  0.
         -6    2    1    2    0  502  0.16386569324E+03  0.58905787765E+02  0.82617660292E+03  0.86193849758E+03  0.17334456192E+03 0.  0.
        -24    2    5    5    0    0  0.16670350070E+03  0.90016481054E+02  0.77600811061E+03  0.80265193917E+03  0.78539949743E+02 0.  0.
          5    1    3    3  501    0 -0.83357639012E+02 -0.23585645552E+02  0.14102033341E+03  0.16557053812E+03  0.47000000000E+01 0. -1.
        -11    1    4    4    0    0 -0.25258855339E+02 -0.50518699035E+02  0.14787497831E+02  0.58385090711E+02  0.00000000000E+00 0.  1.
         12    1    4    4    0    0 -0.55249198883E+02  0.15198556823E+02 -0.19812474990E+02  0.60630060795E+02  0.00000000000E+00 0. -1.
         -5    1    5    5    0  502 -0.28378074607E+01 -0.31110693290E+02  0.50168492304E+02  0.59286558411E+02  0.47000000000E+01 0.  1.
         13    1    6    6    0    0  0.17829133238E+02  0.35779807467E+02  0.88309132830E+02  0.96935935316E+02  0.00000000000E+00 0. -1.
        -14    1    6    6    0    0  0.14887436746E+03  0.54236673588E+02  0.68769897778E+03  0.70571600385E+03  0.00000000000E+00 0.  1.
</event>
<event>
12    1  0.8747122E-002  0.2002147E+03  0.7818608E-02  0.1149801E+00
         21   -1    0    0  503  502  0.00000000000E+00  0.00000000000E+00  0.13686928671E+03  0.13686928671E+03  0.00000000000E+00 0. -1.
         21   -1    0    0  501  503 -0.00000000000E+00 -0.00000000000E+00 -0.47011497777E+03  0.47011497777E+03  0.00000000000E+00 0. -1.
          6    2    1    2  501    0  0.91380305477E+02  0.36505270852E+02 -0.35355324368E+03  0.40574233505E+03  0.17304320648E+03 0.  0.
         24    2    3    3    0    0  0.20536856386E+02 -0.38926492173E+02 -0.20085302206E+03  0.22122081101E+03  0.81606840953E+02 0.  0.
         -6    2    1    2    0  502 -0.91380305477E+02 -0.36505270852E+02  0.20307552621E+02  0.20124192943E+03  0.17436433820E+03 0.  0.
        -24    2    5    5    0    0 -0.37101459829E+02 -0.65385047739E+02  0.62696654874E+02  0.12641439046E+03  0.79987528994E+02 0.  0.
          5    1    3    3  501    0  0.70843449091E+02  0.75431763025E+02 -0.15270022162E+03  0.18452152404E+03  0.47000000000E+01 0. -1.
        -13    1    4    4    0    0  0.21939178479E+02 -0.80790462752E+01 -0.62738093444E+01  0.24206594654E+02  0.00000000000E+00 0.  1.
         14    1    4    4    0    0 -0.14023220927E+01 -0.30847445898E+02 -0.19457921272E+03  0.19701421636E+03  0.00000000000E+00 0. -1.
         -5    1    5    5    0  502 -0.54278845649E+02  0.28879776886E+02 -0.42389102252E+02  0.74827538966E+02  0.47000000000E+01 0.  1.
         13    1    6    6    0    0 -0.40324803896E+02 -0.26103770598E+02  0.71396758530E+02  0.86052273516E+02  0.00000000000E+00 0. -1.
        -14    1    6    6    0    0  0.32233440679E+01 -0.39281277140E+02 -0.87001036562E+01  0.40362116946E+02  0.00000000000E+00 0.  1.
</event>
<event>
12    1  0.8747122E-002  0.1793350E+03  0.7818608E-02  0.1168613E+00
         21   -1    0    0  501  502  0.00000000000E+00  0.00000000000E+00  0.23450896176E+02  0.23450896176E+02  0.00000000000E+00 0.  1.
         21   -1    0    0  502  503 -0.00000000000E+00 -0.00000000000E+00 -0.14455347416E+04  0.14455347416E+04  0.00000000000E+00 0.  1.
         -6    2    1    2    0  503  0.48745561048E+02  0.97978326866E+01 -0.88179068090E+03  0.89970738537E+03  0.17159967109E+03 0.  0.
        -24    2    3    3    0    0  0.38063732482E+02 -0.44455205780E+02 -0.31066830548E+03  0.32589526338E+03  0.79169524492E+02 0.  0.
          6    2    1    2  501    0 -0.48745561048E+02 -0.97978326866E+01 -0.54029316457E+03  0.56927825245E+03  0.17230466560E+03 0.  0.
         24    2    5    5    0    0 -0.99217253835E+02 -0.15443624535E+02 -0.32736111122E+03  0.35032296916E+03  0.74015650938E+02 0.  0.
          5    1    5    5  501    0  0.50471692787E+02  0.56457918482E+01 -0.21293205335E+03  0.21895528330E+03  0.47000000000E+01 0. -1.
        -13    1    6    6    0    0 -0.54960421157E+02  0.20305409219E+02 -0.23196716535E+03  0.23925242599E+03  0.00000000000E+00 0.  1.
         14    1    6    6    0    0 -0.44256832678E+02 -0.35749033753E+02 -0.95393945861E+02  0.11107054317E+03  0.00000000000E+00 0. -1.
         -5    1    3    3    0  503  0.10681828566E+02  0.54253038466E+02 -0.57112237541E+03  0.57381212199E+03  0.47000000000E+01 0.  1.
         11    1    4    4    0    0 -0.12946808972E+02  0.39007566110E+01 -0.14895224503E+03  0.14956472533E+03  0.00000000000E+00 0. -1.
        -12    1    4    4    0    0  0.51010541454E+02 -0.48355962391E+02 -0.16171606046E+03  0.17633053805E+03  0.00000000000E+00 0.  1.
</event>
<event>
12    1  0.8747122E-002  0.2879746E+03  0.7818608E-02  0.1091928E+00
         21   -1    0    0  501  502  0.00000000000E+00  0.00000000000E+00  0.41185342478E+03  0.41185342478E+03  0.00000000000E+00 0. -1.
         21   -1    0    0  502  503 -0.00000000000E+00 -0.00000000000E+00 -0.30887662755E+03  0.30887662755E+03  0.00000000000E+00 0.  1.
         -6    2    1    2    0  503 -0.39454355283E+02  0.22991373535E+03 -0.16356487154E+03  0.33118397293E+03  0.16885610699E+03 0.  0.
        -24    2    3    3    0    0  0.28288052291E+02  0.70026311212E+02 -0.15505035610E+02  0.10293667897E+03  0.68203046738E+02 0.  0.
          6    2    1    2  501    0  0.39454355283E+02 -0.22991373535E+03  0.26654166877E+03  0.38954607940E+03  0.16212561466E+03 0.  0.
         24    2    5    5    0    0 -0.32400769566E+02 -0.16344742611E+03  0.19087591183E+03  0.26573846249E+03  0.80115203038E+02 0.  0.
          5    1    5    5  501    0  0.71855124848E+02 -0.66466309238E+02  0.75665756938E+02  0.12380761690E+03  0.47000000000E+01 0. -1.
        -13    1    6    6    0    0 -0.13248585380E+02 -0.57678624810E+00  0.42724003100E+02  0.44734753133E+02  0.00000000000E+00 0.  1.
         14    1    6    6    0    0 -0.19152184185E+02 -0.16287063987E+03  0.14815190873E+03  0.22100370936E+03  0.00000000000E+00 0. -1.
         -5    1    3    3    0  503 -0.67742407573E+02  0.15988742414E+03 -0.14805983593E+03  0.22824729396E+03  0.47000000000E+01 0.  1.
         13    1    4    4    0    0 -0.19924415008E+01 -0.10522847406E+02  0.84160969293E+01  0.13620970163E+02  0.00000000000E+00 0. -1.
        -14    1    4    4    0    0  0.30280493792E+02  0.80549158617E+02 -0.23921132539E+02  0.89315708810E+02  0.00000000000E+00 0.  1.
</event>
<event>
12    1  0.8747122E-002  0.2367345E+03  0.7818608E-02  0.1122993E+00
         21   -1    0    0  501  502  0.00000000000E+00  0.00000000000E+00  0.36830928081E+03  0.36830928081E+03  0.00000000000E+00 0. -1.
         21   -1    0    0  502  503 -0.00000000000E+00 -0.00000000000E+00 -0.16742598775E+03  0.16742598775E+03  0.00000000000E+00 0. -1.
         -6    2    1    2    0  503 -0.15782042204E+03  0.36323521270E+02  0.90895321729E+01  0.23105824481E+03  0.16455579324E+03 0.  0.
        -24    2    3    3    0    0 -0.15985301227E+03  0.66392152621E+02 -0.15730135756E+02  0.19173446154E+03  0.80955315506E+02 0.  0.
          6    2    1    2  501    0  0.15782042204E+03 -0.36323521270E+02  0.19179376089E+03  0.30467702375E+03  0.17267471811E+03 0.  0.
         24    2    5    5    0    0  0.25062514343E+02  0.17478637356E+02  0.35277525850E+02  0.92453659911E+02  0.79809416812E+02 0.  0.
          5    1    5    5  501    0  0.13275790770E+03 -0.53802158626E+02  0.15651623504E+03  0.21222336384E+03  0.47000000000E+01 0. -1.
        -11    1    6    6    0    0 -0.79275443820E+01  0.28842325223E+02  0.46942895665E+02  0.55662924263E+02  0.00000000000E+00 0.  1.
         12    1    6    6    0    0  0.32990058725E+02 -0.11363687867E+02 -0.11665369815E+02  0.36790735648E+02  0.00000000000E+00 0. -1.
         -5    1    3    3    0  503  0.20325902317E+01 -0.30068631351E+02  0.24819667929E+02  0.39323783268E+02  0.47000000000E+01 0.  1.
         13    1    4    4    0    0 -0.11083837435E+03  0.29754626639E+02 -0.45784080378E+02  0.12355834675E+03  0.00000000000E+00 0. -1.
        -14    1    4    4    0    0 -0.49014637921E+02  0.36637525982E+02  0.30053944621E+02  0.68176114790E+02  0.00000000000E+00 0.  1.
</event>
<event>
12    1  0.8747122E-002  0.2205734E+03  0.7818608E-02  0.1133577E+00
         21   -1    0    0  501  502  0.00000000000E+00  0.00000000000E+00  0.36873372979E+03  0.36873372979E+03  0.00000000000E+00 0. -1.
         21   -1    0    0  502  503 -0.00000000000E+00 -0.00000000000E+00 -0.29874454248E+03  0.29874454248E+03  0.00000000000E+00 0.  1.
         -6    2    1    2    0  503  0.13590986422E+03 -0.93817755365E+01 -0.21469293309E+03  0.30734424382E+03  0.17264970254E+03 0.  0.
        -24    2    3    3    0    0  0.14636441462E+03 -0.52799762201E+02 -0.16825918054E+03  0.24274855847E+03  0.80033455797E+02 0.  0.
          6    2    1    2  501    0 -0.13590986422E+03  0.93817755365E+01  0.28468212040E+03  0.36013402844E+03  0.17347362873E+03 0.  0.
         24    2    5    5    0    0 -0.23739280284E+01 -0.22044984544E+02  0.13145535159E+03  0.15441572546E+03  0.77923615995E+02 0.  0.
          5    1    5    5  501    0 -0.13353593619E+03  0.31426760081E+02  0.15322676880E+03  0.20571830298E+03  0.47000000000E+01 0. -1.
        -13    1    6    6    0    0 -0.35971169039E+02 -0.15627003797E+02  0.36842714441E+02  0.53809979159E+02  0.00000000000E+00 0.  1.
         14    1    6    6    0    0  0.33597241011E+02 -0.64179807468E+01  0.94612637153E+02  0.10060574630E+03  0.00000000000E+00 0. -1.
         -5    1    3    3    0  503 -0.10454550408E+02  0.43417986665E+02 -0.46433752550E+02  0.64595685352E+02  0.47000000000E+01 0.  1.
         11    1    4    4    0    0 -0.37081031074E+01  0.49778419321E+01 -0.30117818430E+02  0.30750803663E+02  0.00000000000E+00 0. -1.
        -12    1    4    4    0    0  0.15007251773E+03 -0.57777604133E+02 -0.13814136211E+03  0.21199775480E+03  0.00000000000E+00 0.  1.
</event>
<event>
12    1  0.8747122E-002  0.1736076E+03  0.7818608E-02  0.1174649E+00
         21   -1    0    0  503  502  0.00000000000E+00  0.00000000000E+00  0.47022921932E+03  0.47022921932E+03  0.00000000000E+00 0.  1.
         21   -1    0    0  501  503 -0.00000000000E+00 -0.00000000000E+00 -0.68485153792E+02  0.68485153792E+02  0.00000000000E+00 0.  1.
          6    2    1    2  501    0 -0.27024970245E+02  0.25521353972E+01  0.27565129768E+03  0.32576563169E+03  0.17147229066E+03 0.  0.
         24    2    3    3    0    0  0.43017008100E+02  0.29924742774E+02  0.19639018191E+03  0.21640589121E+03  0.74272828023E+02 0.  0.
         -6    2    1    2    0  502  0.27024970245E+02 -0.25521353972E+01  0.12609276785E+03  0.21294874142E+03  0.16944296373E+03 0.  0.
        -24    2    5    5    0    0  0.35626666026E+02 -0.64408471909E+02  0.53081225103E+02  0.11675637732E+03  0.73462402639E+02 0.  0.
          5    1    3    3  501    0 -0.70041978345E+02 -0.27372607376E+02  0.79261115767E+02  0.10935974048E+03  0.47000000000E+01 0. -1.
        -11    1    4    4    0    0  0.11726353311E+02 -0.13868157126E+02  0.12845962879E+03  0.12973707787E+03  0.00000000000E+00 0.  1.
         12    1    4    4    0    0  0.31290654789E+02  0.43792899900E+02  0.67930553115E+02  0.86668813337E+02  0.00000000000E+00 0. -1.
         -5    1    5    5    0  502 -0.86016957809E+01  0.61856336512E+02  0.73011542746E+02  0.96192364100E+02  0.47000000000E+01 0.  1.
         11    1    6    6    0    0  0.41549245785E+02 -0.46641774557E+01  0.10371231413E+02  0.43077335313E+02  0.00000000000E+00 0. -1.
        -12    1    6    6    0    0 -0.59225797586E+01 -0.59744294453E+02  0.42709993689E+02  0.73679042011E+02  0.00000000000E+00 0.  1.
</event>
<event>
12    1  0.8747122E-002  0.2118009E+03  0.7818608E-02  0.1140412E+00
         21   -1    0    0  503  502  0.00000000000E+00  0.00000000000E+00  0.89211379218E+03  0.89211379218E+03  0.00000000000E+00 0.  1.
         21   -1    0    0  501  503 -0.00000000000E+00 -0.00000000000E+00 -0.51985174206E+02  0.51985174206E+02  0.00000000000E+00 0. -1.
          6    2    1    2  501    0 -0.31242477912E+02  0.11870670231E+03  0.32831044727E+03  0.39070113295E+03  0.17260432179E+03 0.  0.
         24    2    3    3    0    0 -0.26137934612E+02  0.86381765114E+02  0.91133336817E+02  0.15123082237E+03  0.80127870208E+02 0.  0.
         -6    2    1    2    0  502  0.31242477912E+02 -0.11870670231E+03  0.51181817070E+03  0.55339783343E+03  0.17095013482E+03 0.  0.
        -24    2    5    5    0    0  0.30307564148E+02 -0.17210807053E+02  0.11692138278E+03  0.14563827937E+03  0.79530738361E+02 0.  0.
          5    1    3    3  501    0 -0.51045432997E+01  0.32324937196E+02  0.23717711046E+03  0.23947031058E+03  0.47000000000E+01 0. -1.
        -11    1    4    4    0    0 -0.32968460512E+02  0.11428572020E+02  0.60765953097E+02  0.70071625518E+02  0.00000000000E+00 0.  1.
         12    1    4    4    0    0  0.68305259001E+01  0.74953193093E+02  0.30367383720E+02  0.81159196848E+02  0.00000000000E+00 0. -1.
         -5    1    5    5    0  502  0.93491376382E+00 -0.10149589526E+03  0.39489678792E+03  0.40775955406E+03  0.47000000000E+01 0.  1.
         13    1    6    6    0    0  0.51665358549E+02  0.95972715391E+01  0.71706254383E+02  0.88899965201E+02  0.00000000000E+00 0. -1.
        -14    1    6    6    0    0 -0.21357794401E+02 -0.26808078592E+02  0.45215128395E+02  0.56738314174E+02  0.00000000000E+00 0.  1.
</event>
<event>
12    1  0.8747122E-002  0.1816597E+03  0.7818608E-02  0.1166233E+00
         21   -1    0    0  503  502  0.00000000000E+00  0.00000000000E+00  0.42348461904E+03  0.42348461904E+03  0.00000000000E+00 0. -1.
         21   -1    0    0  501  503 -0.00000000000E+00 -0.00000000000E+00 -0.90230331720E+02  0.90230331720E+02  0.00000000000E+00 0. -1.
          6    2    1    2  501    0 -0.57181998129E+02 -0.21135109557E+02  0.71635805075E+02  0.19527400856E+03  0.17112503056E+03 0.  0.
         24    2    3    3    0    0 -0.56842716177E+02  0.68626510950E+01  0.11005622210E+03  0.14750154622E+03  0.79788117858E+02 0.  0.
         -6    2    1    2    0  502  0.57181998129E+02  0.21135109557E+02  0.26161848224E+03  0.31844094220E+03  0.17100856602E+03 0.  0.
        -24    2    5    5    0    0 -0.21370879673E+02  0.28229100621E+02  0.58200770805E+02  0.10021689530E+03  0.73501699031E+02 0.  0.
          5    1    3    3  501    0 -0.33928195205E+00 -0.27997760652E+02 -0.38420417025E+02  0.47772462342E+02  0.47000000000E+01 0. -1.
        -11    1    4    4    0    0 -0.74296047188E+02 -0.18170951871E+01  0.10247373742E+03  0.12658622091E+03  0.00000000000E+00 0.  1.
         12    1    4    4    0    0  0.17453331011E+02  0.86797462821E+01  0.75824846787E+01  0.20915325310E+02  0.00000000000E+00 0. -1.
         -5    1    5    5    0  502  0.78552877802E+02 -0.70939910641E+01  0.20341771144E+03  0.21822404690E+03  0.47000000000E+01 0.  1.
         11    1    6    6    0    0 -0.14368765711E+02  0.14358035213E+02  0.74782801142E+02  0.77492463827E+02  0.00000000000E+00 0. -1.
        -12    1    6    6    0    0 -0.70021139621E+01  0.13871065408E+02 -0.16582030337E+02  0.22724431469E+02  0.00000000000E+00 0.  1.
</event>
<event>
12    1  0.8747122E-002  0.1843619E+03  0.7818608E-02  0.1163971E+00
         21   -1    0    0  501  502  0.00000000000E+00  0.00000000000E+00  0.30781632265E+03  0.30781632265E+03  0.00000000000E+00 0.  1.
         21   -1    0    0  502  503 -0.00000000000E+00 -0.00000000000E+00 -0.11055492091E+03  0.11055492091E+03  0.00000000000E+00 0.  1.
         -6    2    1    2    0  503  0.28270359549E+02  0.57768782068E+02  0.79544723164E+02  0.20079014248E+03  0.17277983946E+03 0.  0.
        -24    2    3    3    0    0 -0.32634543368E+02  0.21369402166E+02  0.72064771284E+02  0.12928936111E+03  0.10000371426E+03 0.  0.
          6    2    1    2  501    0 -0.28270359549E+02 -0.57768782068E+02  0.11771667858E+03  0.21758110107E+03  0.17131221123E+03 0.  0.
         24    2    5    5    0    0  0.34683162218E+02 -0.62476746042E+02  0.11063298172E+03  0.15388196773E+03  0.79584783786E+02 0.  0.
          5    1    5    5  501    0 -0.62953521767E+02  0.47079639742E+01  0.70836968581E+01  0.63699133345E+02  0.47000000000E+01 0. -1.
        -13    1    6    6    0    0 -0.45266057817E+01  0.70327169788E+01  0.57273402963E+02  0.57880842729E+02  0.00000000000E+00 0.  1.
         14    1    6    6    0    0  0.39209768000E+02 -0.69509463021E+02  0.53359578755E+02  0.96001124998E+02  0.00000000000E+00 0. -1.
         -5    1    3    3    0  503  0.60904902917E+02  0.36399379902E+02  0.74799518801E+01  0.71500781372E+02  0.47000000000E+01 0.  1.
         13    1    4    4    0    0 -0.65429390786E+01  0.24731655849E+02  0.92503236607E+02  0.95975588748E+02  0.00000000000E+00 0. -1.
        -14    1    4    4    0    0 -0.26091604289E+02 -0.33622536830E+01 -0.20438465323E+02  0.33313772362E+02  0.00000000000E+00 0.  1.
</event>
<event>
12    1  0.8747122E-002  0.2140442E+03  0.7818608E-02  0.1139528E+00
         21   -1    0    0  503  502  0.00000000000E+00  0.00000000000E+00  0.29534104264E+03  0.29534104264E+03  0.00000000000E+00 0. -1.
         21   -1    0    0  501  503 -0.00000000000E+00 -0.00000000000E+00 -0.22966283805E+03  0.22966283805E+03  0.00000000000E+00 0. -1.
          6    2    1    2  501    0 -0.11510166498E+03 -0.58163029047E+02  0.18675816778E+03  0.28406610875E+03  0.17083210962E+03 0.  0.
         24    2    3    3    0    0 -0.23424854721E+02 -0.52278786303E+02  0.16054084942E+03  0.18841727377E+03  0.80286421057E+02 0.  0.
         -6    2    1    2    0  502  0.11510166498E+03  0.58163029047E+02 -0.12107996319E+03  0.24093777194E+03  0.16358276569E+03 0.  0.
        -24    2    5    5    0    0  0.11681099705E+03  0.88473361478E+02 -0.12755294626E+03  0.20954306573E+03  0.78525139743E+02 0.  0.
          5    1    3    3  501    0 -0.91676810258E+02 -0.58842427438E+01  0.26217318366E+02  0.95648834985E+02  0.47000000000E+01 0. -1.
        -11    1    4    4    0    0  0.48991091579E+01  0.13172819956E+02  0.15197538021E+01  0.14136269230E+02  0.00000000000E+00 0.  1.
         12    1    4    4    0    0 -0.28323963879E+02 -0.65451606259E+02  0.15902109561E+03  0.17428100454E+03  0.00000000000E+00 0. -1.
         -5    1    5    5    0  502 -0.17093320685E+01 -0.30310332430E+02  0.64729830734E+01  0.31394706210E+02  0.47000000000E+01 0.  1.
         11    1    6    6    0    0 -0.75929325680E+01  0.17548974922E+02 -0.22362393284E+01  0.19251491166E+02  0.00000000000E+00 0. -1.
        -12    1    6    6    0    0  0.12440392962E+03  0.70924386556E+02 -0.12531670693E+03  0.19029157456E+03  0.00000000000E+00 0.  1.
</event>
<event>
12    1  0.8747122E-002  0.2250012E+03  0.7818608E-02  0.1130214E+00
         21   -1    0    0  503  502  0.00000000000E+00  0.00000000000E+00  0.40482553249E+02  0.40482553249E+02  0.00000000000E+00 0.  1.
         21   -1    0    0  501  503 -0.00000000000E+00 -0.00000000000E+00 -0.13899617976E+04  0.13899617976E+04  0.00000000000E+00 0.  1.
          6    2    1    2  501    0  0.95868575171E+02  0.10706679914E+03 -0.90134673161E+03  0.92899816345E+03  0.17308256387E+03 0.  0.
         24    2    3    3    0    0 -0.12157703046E+02  0.36579039197E+02 -0.47171100162E+03  0.48039237707E+03  0.82339122193E+02 0.  0.
         -6    2    1    2    0  502 -0.95868575171E+02 -0.10706679914E+03 -0.44813251270E+03  0.50144618736E+03  0.17312263485E+03 0.  0.
        -24    2    5    5    0    0 -0.55726577445E+02 -0.10177851200E+03 -0.17053347797E+03  0.22087060032E+03  0.78979985045E+02 0.  0.
          5    1    3    3  501    0  0.10802627822E+03  0.70487759941E+02 -0.42963572999E+03  0.44860578638E+03  0.47000000000E+01 0. -1.
        -13    1    4    4    0    0  0.33600521869E+02  0.28727794288E+02 -0.21124998520E+03  0.21582594256E+03  0.00000000000E+00 0.  1.
         14    1    4    4    0    0 -0.45758224915E+02  0.78512449091E+01 -0.26046101642E+03  0.26456643451E+03  0.00000000000E+00 0. -1.
         -5    1    5    5    0  502 -0.40141997726E+02 -0.52882871364E+01 -0.27759903473E+03  0.28057558704E+03  0.47000000000E+01 0.  1.
         13    1    6    6    0    0 -0.39194470101E+02 -0.22496785169E+02 -0.11249916222E+03  0.12123684807E+03  0.00000000000E+00 0. -1.
        -14    1    6    6    0    0 -0.16532107344E+02 -0.79281726833E+02 -0.58034315749E+02  0.99633752250E+02  0.00000000000E+00 0.  1.
</event>
<event>
12    1  0.8747122E-002  0.1896947E+03  0.7818608E-02  0.1158816E+00
         21   -1    0    0  501  502  0.00000000000E+00  0.00000000000E+00  0.29445042857E+03  0.29445042857E+03  0.00000000000E+00 0. -1.
         21   -1    0    0  502  503 -0.00000000000E+00 -0.00000000000E+00 -0.15325256447E+03  0.15325256447E+03  0.00000000000E+00 0. -1.
         -6    2    1    2    0  503 -0.52155857188E+02  0.59632657711E+02 -0.30465217069E+02  0.19212545348E+03  0.17235943003E+03 0.  0.
        -24    2    3    3    0    0 -0.76661909075E+02  0.20609414718E+02 -0.68510540367E+02  0.13218467690E+03  0.80481664910E+02 0.  0.
          6    2    1    2  501    0  0.52155857188E+02 -0.59632657711E+02  0.17166308117E+03  0.25557753955E+03  0.17197493417E+03 0.  0.
         24    2    5    5    0    0  0.87739951976E+02 -0.40324477733E+01  0.14375085253E+03  0.18375279692E+03  0.73390891556E+02 0.  0.
          5    1    5    5  501    0 -0.35584094788E+02 -0.55600209937E+02  0.27912228637E+02  0.71824742634E+02  0.47000000000E+01 0. -1.
        -11    1    6    6    0    0  0.92583511742E+02 -0.19757148666E+02  0.10348032831E+03  0.14025059685E+03  0.00000000000E+00 0.  1.
         12    1    6    6    0    0 -0.48435597660E+01  0.15724700893E+02  0.40270524229E+02  0.43502200071E+02  0.00000000000E+00 0. -1.
         -5    1    3    3    0  503  0.24506051888E+02  0.39023242993E+02  0.38045323298E+02  0.59940776586E+02  0.47000000000E+01 0.  1.
         11    1    4    4    0    0  0.70458355615E+01 -0.12996385781E+02 -0.31287883374E+02  0.34604645471E+02  0.00000000000E+00 0. -1.
        -12    1    4    4    0    0 -0.83707744637E+02  0.33605800499E+02 -0.37222656993E+02  0.97580031426E+02  0.00000000000E+00 0.  1.
</event>
<event>
12    1  0.8747122E-002  0.2256828E+03  0.7818608E-02  0.1129806E+00
         21   -1    0    0  501  502  0.00000000000E+00  0.00000000000E+00  0.21321196761E+03  0.21321196761E+03  0.00000000000E+00 0.  1.
         21   -1    0    0  502  503 -0.00000000000E+00 -0.00000000000E+00 -0.25067904207E+03  0.25067904207E+03  0.00000000000E+00 0.  1.
         -6    2    1    2    0  503 -0.11063785944E+03  0.93872900969E+02 -0.70148233649E+02  0.23585419712E+03  0.17220212002E+03 0.  0.
        -24    2    3    3    0    0 -0.49035147622E+02  0.12288722581E+03 -0.63545839322E+02  0.16728010027E+03  0.80242397026E+02 0.  0.
          6    2    1    2  501    0  0.11063785944E+03 -0.93872900969E+02  0.32681159191E+02  0.22803681256E+03  0.17285795393E+03 0.  0.
         24    2    5    5    0    0  0.94698471518E+02  0.28318876106E+01 -0.37750933737E+01  0.12336098644E+03  0.78916801451E+02 0.  0.
          5    1    5    5  501    0  0.15939387920E+02 -0.96704788580E+02  0.36456252565E+02  0.10467582611E+03  0.47000000000E+01 0. -1.
        -11    1    6    6    0    0  0.17704139877E+02 -0.33322159752E+02  0.40071979826E+01  0.37945494265E+02  0.00000000000E+00 0.  1.
         12    1    6    6    0    0  0.76994331641E+02  0.36154047363E+02 -0.77822913563E+01  0.85415492180E+02  0.00000000000E+00 0. -1.
         -5    1    3    3    0  503 -0.61602711816E+02 -0.29014324839E+02 -0.66023943268E+01  0.68574096857E+02  0.47000000000E+01 0.  1.
         11    1    4    4    0    0 -0.24686579711E+02  0.40068768707E+01 -0.34313497143E+02  0.42460550706E+02  0.00000000000E+00 0. -1.
        -12    1    4    4    0    0 -0.24348567911E+02  0.11888034894E+03 -0.29232342179E+02  0.12481954956E+03  0.00000000000E+00 0.  1.
</event>
<event>
12    1  0.8747122E-002  0.1780885E+03  0.7818608E-02  0.1169702E+00
         21   -1    0    0  501  502  0.00000000000E+00  0.00000000000E+00  0.38054640340E+03  0.38054640340E+03  0.00000000000E+00 0.  1.
         21   -1    0    0  502  503 -0.00000000000E+00 -0.00000000000E+00 -0.12752655670E+03  0.12752655670E+03  0.00000000000E+00 0.  1.
         -6    2    1    2    0  503  0.45582194465E+02  0.10843054500E+02 -0.23172343162E+02  0.17944300720E+03  0.17166108197E+03 0.  0.
        -24    2    3    3    0    0 -0.62364965550E-01  0.61910414072E+02 -0.41446115304E+02  0.10839850166E+03  0.78737230259E+02 0.  0.
          6    2    1    2  501    0 -0.45582194465E+02 -0.10843054500E+02  0.27619218987E+03  0.32862995290E+03  0.17181446946E+03 0.  0.
         24    2    5    5    0    0 -0.87729014259E+02 -0.37725647717E+01  0.25412633009E+03  0.28030461367E+03  0.79245647282E+02 0.  0.
          5    1    5    5  501    0  0.42146819794E+02 -0.70704897284E+01  0.22065859781E+02  0.48325339229E+02  0.47000000000E+01 0. -1.
        -11    1    6    6    0    0 -0.35612681921E+02  0.30236142223E+02  0.57616573442E+02  0.74176525568E+02  0.00000000000E+00 0.  1.
         12    1    6    6    0    0 -0.52116332338E+02 -0.34008706994E+02  0.19650975664E+03  0.20612808810E+03  0.00000000000E+00 0. -1.
         -5    1    3    3    0  503  0.45644559431E+02 -0.51067359572E+02  0.18273772141E+02  0.71044505541E+02  0.47000000000E+01 0.  1.
         13    1    4    4    0    0 -0.25476600953E+02  0.39126121210E+02  0.89421637711E+01  0.47538119966E+02  0.00000000000E+00 0. -1.
        -14    1    4    4    0    0  0.25414235987E+02  0.22784292862E+02 -0.50388279075E+02  0.60860381696E+02  0.00000000000E+00 0.  1.
</event>
<event>
12    1  0.8747122E-002  0.1947139E+03  0.7818608E-02  0.1154391E+00
         21   -1    0    0  503  502  0.00000000000E+00  0.00000000000E+00  0.10537200633E+03  0.10537200633E+03  0.00000000000E+00 0. -1.
         21   -1    0    0  501  503 -0.00000000000E+00 -0.00000000000E+00 -0.39663079537E+03  0.39663079537E+03  0.00000000000E+00 0.  1.
          6    2    1    2  501    0 -0.51142227672E+02  0.73118275138E+02 -0.22292513567E+03  0.29564637972E+03  0.17248001658E+03 0.  0.
         24    2    3    3    0    0 -0.64747215178E+02 -0.12689473734E+01 -0.18385981025E+03  0.21040117923E+03  0.79185947569E+02 0.  0.
         -6    2    1    2    0  502  0.51142227672E+02 -0.73118275138E+02 -0.68333653362E+02  0.20635642198E+03  0.17306552256E+03 0.  0.
        -24    2    5    5    0    0  0.87677737324E+02 -0.29811298742E+02 -0.11947267158E+02  0.12628237987E+03  0.85020015985E+02 0.  0.
          5    1    3    3  501    0  0.13604987506E+02  0.74387222512E+02 -0.39065325420E+02  0.85245200500E+02  0.47000000000E+01 0. -1.
        -13    1    4    4    0    0  0.12756028132E+00  0.27831325586E+02 -0.78554393069E+02  0.83339016228E+02  0.00000000000E+00 0.  1.
         14    1    4    4    0    0 -0.64874775459E+02 -0.29100272959E+02 -0.10530541718E+03  0.12706216300E+03  0.00000000000E+00 0. -1.
         -5    1    5    5    0  502 -0.36535509652E+02 -0.43306976396E+02 -0.56386386204E+02  0.80074042107E+02  0.47000000000E+01 0.  1.
         13    1    6    6    0    0  0.12574986315E+02  0.27143345645E+02 -0.11431817480E+02  0.32024645892E+02  0.00000000000E+00 0. -1.
        -14    1    6    6    0    0  0.75102751009E+02 -0.56954644387E+02 -0.51544967858E+00  0.94257733978E+02  0.00000000000E+00 0.  1.
</event>
<event>
12    1  0.8747122E-002  0.1896444E+03  0.7818608E-02  0.1159061E+00
         21   -1    0    0  501  502  0.00000000000E+00  0.00000000000E+00  0.35092578951E+03  0.35092578951E+03  0.00000000000E+00 0.  1.
         21   -1    0    0  502  503 -0.00000000000E+00 -0.00000000000E+00 -0.10211694902E+03  0.10211694902E+03  0.00000000000E+00 0.  1.
         -6    2    1    2    0  503 -0.66602511830E+02 -0.45201567510E+02  0.11264707719E+03  0.22057734749E+03  0.17171466431E+03 0.  0.
        -24    2    3    3    0    0 -0.65019481613E+02  0.54943141026E+01  0.12942486027E+03  0.16694748265E+03  0.82842905737E+02 0.  0.
          6    2    1    2  501    0  0.66602511830E+02  0.45201567510E+02  0.13616176331E+03  0.23246539104E+03  0.17035567486E+03 0.  0.
         24    2    5    5    0    0  0.21142956008E+02  0.73735736912E+02  0.48733451890E+02  0.12976889803E+03  0.92633871106E+02 0.  0.
          5    1    5    5  501    0  0.45459555822E+02 -0.28534169402E+02  0.87428311419E+02  0.10269649301E+03  0.47000000000E+01 0. -1.
        -11    1    6    6    0    0  0.28386788683E+02  0.94055556869E+02  0.44173644827E+02  0.10771986097E+03  0.00000000000E+00 0.  1.
         12    1    6    6    0    0 -0.72438326752E+01 -0.20319819957E+02  0.45598070624E+01  0.22049037062E+02  0.00000000000E+00 0. -1.
         -5    1    3    3    0  503 -0.15830302170E+01 -0.50695881613E+02 -0.16777783083E+02  0.53629864836E+02  0.47000000000E+01 0.  1.
         13    1    4    4    0    0 -0.77326711286E+02  0.10450048738E+02  0.66147786069E+02  0.10229444461E+03  0.00000000000E+00 0. -1.
        -14    1    4    4    0    0  0.12307229672E+02 -0.49557346355E+01  0.63277074205E+02  0.64653038041E+02  0.00000000000E+00 0.  1.
</event>
<event>
12    1  0.8747122E-002  0.2131404E+03  0.7818608E-02  0.1139444E+00
         21   -1    0    0  503  502  0.00000000000E+00  0.00000000000E+00  0.10303016124E+03  0.10303016124E+03  0.00000000000E+00 0.  1.
         21   -1    0    0  501  503 -0.00000000000E+00 -0.00000000000E+00 -0.84698781476E+03  0.84698781476E+03  0.00000000000E+00 0. -1.
          6    2    1    2  501    0  0.89439838752E+02 -0.88490558592E+02 -0.70312558736E+03  0.73472063613E+03  0.17204289535E+03 0.  0.
         24    2    3    3    0    0  0.94598400426E+02 -0.13280188347E+02 -0.27035773072E+03  0.29541058811E+03  0.71055557434E+02 0.  0.
         -6    2    1    2    0  502 -0.89439838752E+02  0.88490558592E+02 -0.40832066159E+02  0.21529733987E+03  0.16986942989E+03 0.  0.
        -24    2    5    5    0    0 -0.87357364381E+02  0.11804967448E+03 -0.42312748448E+01  0.16797096291E+03  0.81420549836E+02 0.  0.
          5    1    3    3  501    0 -0.51585616744E+01 -0.75210370245E+02 -0.43276785664E+03  0.43931004802E+03  0.47000000000E+01 0. -1.
        -11    1    4    4    0    0  0.25611084243E+02  0.23234207017E+02 -0.43931762694E+02  0.55908458977E+02  0.00000000000E+00 0.  1.
         12    1    4    4    0    0  0.68987316183E+02 -0.36514395364E+02 -0.22642596803E+03  0.23950212914E+03  0.00000000000E+00 0. -1.
         -5    1    5    5    0  502 -0.20824743704E+01 -0.29559115890E+02 -0.36600791315E+02  0.47326376964E+02  0.47000000000E+01 0.  1.
         11    1    6    6    0    0  0.44926089100E+01 -0.41004064501E+01 -0.13554490405E+02  0.14856684624E+02  0.00000000000E+00 0. -1.
        -12    1    6    6    0    0 -0.91849973291E+02  0.12215008093E+03  0.93232155602E+01  0.15311427828E+03  0.00000000000E+00 0.  1.
</event>
<event>
12    1  0.8747122E-002  0.1723215E+03  0.7818608E-02  0.1175659E+00
         21   -1    0    0  501  502  0.00000000000E+00  0.00000000000E+00  0.23096864283E+03  0.23096864283E+03  0.00000000000E+00 0. -1.
         21   -1    0    0  502  503 -0.00000000000E+00 -0.00000000000E+00 -0.36363723822E+03  0.36363723822E+03  0.00000000000E+00 0. -1.
         -6    2    1    2    0  503  0.14476313173E+02 -0.67888338798E+01 -0.30562545891E+03  0.35045682568E+03  0.17075542047E+03 0.  0.
        -24    2    3    3    0    0  0.25681953100E+02 -0.38537731253E+02 -0.30310837360E+03  0.31636893092E+03  0.77909529941E+02 0.  0.
          6    2    1    2  501    0 -0.14476313173E+02  0.67888338798E+01  0.17295686352E+03  0.24414905538E+03  0.17157806590E+03 0.  0.
         24    2    5    5    0    0 -0.60809084038E+02 -0.37808060865E+02  0.10983173099E+03  0.15391335827E+03  0.80617110797E+02 0.  0.
          5    1    5    5  501    0  0.46332770864E+02  0.44596894745E+02  0.63125132529E+02  0.90235697114E+02  0.47000000000E+01 0. -1.
        -11    1    6    6    0    0 -0.19464434669E+02 -0.36904149036E+01  0.96721210954E+02  0.98729306832E+02  0.00000000000E+00 0.  1.
         12    1    6    6    0    0 -0.41344649369E+02 -0.34117645961E+02  0.13110520038E+02  0.55184051437E+02  0.00000000000E+00 0. -1.
         -5    1    3    3    0  503 -0.11205639927E+02  0.31748897374E+02 -0.25170853065E+01  0.34087894758E+02  0.47000000000E+01 0.  1.
         13    1    4    4    0    0 -0.25968354149E+02 -0.24734095200E+02 -0.96273266014E+02  0.10273593642E+03  0.00000000000E+00 0. -1.
        -14    1    4    4    0    0  0.51650307249E+02 -0.13803636054E+02 -0.20683510759E+03  0.21363299450E+03  0.00000000000E+00 0.  1.
</event>
<event>
12    1  0.8747122E-002  0.2526750E+03  0.7818608E-02  0.1111777E+00
         21   -1    0    0  501  502  0.00000000000E+00  0.00000000000E+00  0.87673419288E+03  0.87673419288E+03  0.00000000000E+00 0.  1.
         21   -1    0    0  502  503 -0.00000000000E+00 -0.00000000000E+00 -0.80248313332E+02  0.80248313332E+02  0.00000000000E+00 0.  1.
         -6    2    1    2    0  503 -0.50545998130E+02 -0.17715385143E+03  0.54582730674E+03  0.60106905993E+03  0.17151729072E+03 0.  0.
        -24    2    3    3    0    0  0.30103753228E+02 -0.65846362143E+02  0.30047453375E+03  0.31979728250E+03  0.82118068015E+02 0.  0.
          6    2    1    2  501    0  0.50545998130E+02  0.17715385143E+03  0.25065857281E+03  0.35591344628E+03  0.17293431158E+03 0.  0.
         24    2    5    5    0    0  0.30039033940E+02  0.65388876319E+02  0.20853319622E+03  0.23463450089E+03  0.79932511404E+02 0.  0.
          5    1    5    5  501    0  0.20506964190E+02  0.11176497511E+03  0.42125376591E+02  0.12127894539E+03  0.47000000000E+01 0. -1.
        -13    1    6    6    0    0 -0.11137697123E+02  0.60847657825E+02  0.91170434714E+02  0.11017501498E+03  0.00000000000E+00 0.  1.
         14    1    6    6    0    0  0.41176731062E+02  0.45412184934E+01  0.11736276150E+03  0.12445948591E+03  0.00000000000E+00 0. -1.
         -5    1    3    3    0  503 -0.80649751357E+02 -0.11130748929E+03  0.24535277299E+03  0.28127177743E+03  0.47000000000E+01 0.  1.
         11    1    4    4    0    0  0.18279110215E+02 -0.16256069444E+02  0.12738794230E+02  0.27580111356E+02  0.00000000000E+00 0. -1.
        -12    1    4    4    0    0  0.11824643013E+02 -0.49590292699E+02  0.28773573952E+03  0.29221717114E+03  0.00000000000E+00 0.  1.
</event>
<event>
12    1  0.8747122E-002  0.2030297E+03  0.7818608E-02  0.1147564E+00
         21   -1    0    0  503  502  0.00000000000E+00  0.00000000000E+00  0.57297161127E+03  0.57297161127E+03  0.00000000000E+00 0. -1.
         21   -1    0    0  501  503 -0.00000000000E+00 -0.00000000000E+00 -0.78515293887E+02  0.78515293887E+02  0.00000000000E+00 0. -1.
          6    2    1    2  501    0  0.18567140154E+02 -0.10534204516E+03  0.14777841108E+03  0.24973246572E+03  0.17054665192E+03 0.  0.
         24    2    3    3    0    0 -0.25159505354E+01  0.10604748556E+02  0.47059305139E+02  0.94637062864E+02  0.81380616662E+02 0.  0.
         -6    2    1    2    0  502 -0.18567140154E+02  0.10534204516E+03  0.34667790631E+03  0.40175443944E+03  0.17256701225E+03 0.  0.
        -24    2    5    5    0    0  0.34447524042E+02  0.64926551960E+02  0.30277353189E+03  0.32179413176E+03  0.80483306118E+02 0.  0.
          5    1    3    3  501    0  0.21083090689E+02 -0.11594679372E+03  0.10071910594E+03  0.15509540286E+03  0.47000000000E+01 0. -1.
        -11    1    4    4    0    0  0.14211287960E+02  0.26169105875E+02 -0.11388284989E+02  0.31882218285E+02  0.00000000000E+00 0.  1.
         12    1    4    4    0    0 -0.16727238496E+02 -0.15564357318E+02  0.58447590128E+02  0.62754844579E+02  0.00000000000E+00 0. -1.
         -5    1    5    5    0  502 -0.53014664195E+02  0.40415493201E+02  0.43904374420E+02  0.79960307676E+02  0.47000000000E+01 0.  1.
         11    1    6    6    0    0  0.36313882332E+02  0.76750382124E+02  0.18664643018E+03  0.20505172300E+03  0.00000000000E+00 0. -1.
        -12    1    6    6    0    0 -0.18663582904E+01 -0.11823830164E+02  0.11612710171E+03  0.11674240876E+03  0.00000000000E+00 0.  1.
</event>
<event>
12    1  0.8747122E-002  0.1788853E+03  0.7818608E-02  0.1168988E+00
         21   -1    0    0  503  502  0.00000000000E+00  0.00000000000E+00  0.16658536287E+03  0.16658536287E+03  0.00000000000E+00 0.  1.
         21   -1    0    0  501  503 -0.00000000000E+00 -0.00000000000E+00 -0.45177617626E+03  0.45177617626E+03  0.00000000000E+00 0.  1.
          6    2    1    2  501    0  0.45637012971E+02  0.11327419985E+02 -0.37713510454E+03  0.41723047896E+03  0.17216079140E+03 0.  0.
         24    2    3    3    0    0  0.71377811992E+02  0.10308627853E+02 -0.13264089593E+03  0.17133795219E+03  0.81006337633E+02 0.  0.
         -6    2    1    2    0  502 -0.45637012971E+02 -0.11327419985E+02  0.91944291150E+02  0.20113106018E+03  0.17259462128E+03 0.  0.
        -24    2    5    5    0    0 -0.68631268208E+01 -0.77013884728E+02  0.40355327579E+02  0.10892673783E+03  0.65255197484E+02 0.  0.
          5    1    3    3  501    0 -0.25740799021E+02  0.10187921316E+01 -0.24449420862E+03  0.24589252677E+03  0.47000000000E+01 0. -1.
        -13    1    4    4    0    0  0.85979435817E-02 -0.23278081305E+02 -0.59006661450E+02  0.63432288612E+02  0.00000000000E+00 0.  1.
         14    1    4    4    0    0  0.71369214048E+02  0.33586709157E+02 -0.73634234475E+02  0.10790566358E+03  0.00000000000E+00 0. -1.
         -5    1    5    5    0  502 -0.38773886150E+02  0.65686464744E+02  0.51588963572E+02  0.92204322351E+02  0.47000000000E+01 0.  1.
         11    1    6    6    0    0  0.57154563975E+01 -0.62949444569E+02 -0.12735842963E+01  0.63221207125E+02  0.00000000000E+00 0. -1.
        -12    1    6    6    0    0 -0.12578583218E+02 -0.14064440160E+02  0.41628911875E+02  0.45705530701E+02  0.00000000000E+00 0.  1.
</event>
<event>
12    1  0.8747122E-002  0.1878585E+03  0.7818608E-02  0.1160537E+00
         21   -1    0    0  501  502  0.00000000000E+00  0.00000000000E+00  0.89188660148E+03  0.89188660148E+03  0.00000000000E+00 0. -1.
         21   -1    0    0  502  503 -0.00000000000E+00 -0.00000000000E+00 -0.40573630596E+02  0.40573630596E+02  0.00000000000E+00 0. -1.
         -6    2    1    2    0  503  0.15428109164E+02 -0.73509101783E+02  0.34742321622E+03  0.39469104239E+03  0.17157072356E+03 0.  0.
        -24    2    3    3    0    0 -0.34181655065E+02 -0.46239043118E+02  0.97706503949E+02  0.13859474958E+03  0.79721446586E+02 0.  0.
          6    2    1    2  501    0 -0.15428109164E+02  0.73509101783E+02  0.50388975466E+03  0.53776918968E+03  0.17218943613E+03 0.  0.
         24    2    5    5    0    0 -0.44834524389E+02  0.68586518486E+02  0.48930703314E+03  0.50424733338E+03  0.90165156479E+02 0.  0.
          5    1    5    5  501    0  0.29406415225E+02  0.49225832971E+01  0.14582721520E+02  0.33521856297E+02  0.47000000000E+01 0. -1.
        -11    1    6    6    0    0 -0.21579671784E+02  0.87548438601E+02  0.39990017569E+03  0.40993970515E+03  0.00000000000E+00 0.  1.
         12    1    6    6    0    0 -0.23254852605E+02 -0.18961920115E+02  0.89406857449E+02  0.94307628234E+02  0.00000000000E+00 0. -1.
         -5    1    3    3    0  503  0.49609764229E+02 -0.27270058665E+02  0.24971671227E+03  0.25609629281E+03  0.47000000000E+01 0.  1.
         13    1    4    4    0    0 -0.64975004934E+01 -0.24179387763E+02  0.10003433890E+03  0.10311997510E+03  0.00000000000E+00 0. -1.
        -14    1    4    4    0    0 -0.27684154572E+02 -0.22059655355E+02 -0.23278349539E+01  0.35474774478E+02  0.00000000000E+00 0.  1.
</event>
<event>
12    1  0.8747122E-002  0.1802379E+03  0.7818608E-02  0.1168098E+00
         21   -1    0    0  503  502  0.00000000000E+00  0.00000000000E+00  0.18584644598E+03  0.18584644598E+03  0.00000000000E+00 0.  1.
         21   -1    0    0  501  503 -0.00000000000E+00 -0.00000000000E+00 -0.23684069067E+03  0.23684069067E+03  0.00000000000E+00 0.  1.
          6    2    1    2  501    0 -0.32445308707E+02 -0.42768091039E+02 -0.13535705472E+03  0.22368262447E+03  0.16979569064E+03 0.  0.
         24    2    3    3    0    0 -0.15131442370E+02 -0.53158990799E+02 -0.16260384366E+03  0.18944495117E+03  0.79965872100E+02 0.  0.
         -6    2    1    2    0  502  0.32445308707E+02  0.42768091039E+02  0.84362810032E+02  0.19900451218E+03  0.17205785214E+03 0.  0.
        -24    2    5    5    0    0 -0.45200131672E+02  0.35889951601E+02  0.32944274653E+02  0.10550542665E+03  0.81944672139E+02 0.  0.
          5    1    3    3  501    0 -0.17313866337E+02  0.10390899760E+02  0.27246788940E+02  0.34237673299E+02  0.47000000000E+01 0. -1.
        -13    1    4    4    0    0 -0.29901250645E+02  0.10085021137E+02 -0.42876746845E+02  0.53237278870E+02  0.00000000000E+00 0.  1.
         14    1    4    4    0    0  0.14769808275E+02 -0.63244011936E+02 -0.11972709682E+03  0.13620767230E+03  0.00000000000E+00 0. -1.
         -5    1    5    5    0  502  0.77645440380E+02  0.68781394384E+01  0.51418535378E+02  0.93499085527E+02  0.47000000000E+01 0.  1.
         11    1    6    6    0    0 -0.64636904850E+01 -0.73442440332E+01 -0.22932947476E+02  0.24932655194E+02  0.00000000000E+00 0. -1.
        -12    1    6    6    0    0 -0.38736441187E+02  0.43234195634E+02  0.55877222129E+02  0.80572771460E+02  0.00000000000E+00 0.  1.
</event>
<event>
12    1  0.8747122E-002  0.1815290E+03  0.7818608E-02  0.1166350E+00
         21   -1    0    0  501  502  0.00000000000E+00  0.00000000000E+00  0.24286576574E+04  0.24286576574E+04  0.00000000000E+00 0. -1.
         21   -1    0    0  502  503 -0.00000000000E+00 -0.00000000000E+00 -0.25767721934E+02  0.25767721934E+02  0.00000000000E+00 0. -1.
         -6    2    1    2    0  503 -0.58021241169E+02 -0.11762037575E+02  0.35671022734E+03  0.40020918259E+03  0.17152374061E+03 0.  0.
        -24    2    3    3    0    0 -0.25174583078E+02  0.48265687767E+02  0.12279522223E+03  0.15644587450E+03  0.80207909822E+02 0.  0.
          6    2    1    2  501    0  0.58021241169E+02  0.11762037575E+02  0.20461797081E+04  0.20542161967E+04  0.17160412297E+03 0.  0.
         24    2    5    5    0    0  0.92241451686E+02  0.34234533279E+02  0.11124882032E+04  0.11196157729E+04  0.78923937912E+02 0.  0.
          5    1    5    5  501    0 -0.34220210516E+02 -0.22472495704E+02  0.93369150489E+03  0.93460042381E+03  0.47000000000E+01 0. -1.
        -13    1    6    6    0    0  0.50366606388E+02  0.51499925090E+02  0.46513915632E+03  0.47068404696E+03  0.00000000000E+00 0.  1.
         14    1    6    6    0    0  0.41874845298E+02 -0.17265391811E+02  0.64734904689E+03  0.64893172594E+03  0.00000000000E+00 0. -1.
         -5    1    3    3    0  503 -0.32846658091E+02 -0.60027725342E+02  0.23391500511E+03  0.24376330809E+03  0.47000000000E+01 0.  1.
         13    1    4    4    0    0 -0.10363433397E+02  0.27941185799E+01 -0.10387816913E+02  0.14937020808E+02  0.00000000000E+00 0. -1.
        -14    1    4    4    0    0 -0.14811149681E+02  0.45471569187E+02  0.13318303914E+03  0.14150885369E+03  0.00000000000E+00 0.  1.
</event>
<event>
12    1  0.8747122E-002  0.2323431E+03  0.7818608E-02  0.1125071E+00
         21   -1    0    0  501  502  0.00000000000E+00  0.00000000000E+00  0.68430249787E+02  0.68430249787E+02  0.00000000000E+00 0.  1.
         21   -1    0    0  502  503 -0.00000000000E+00 -0.00000000000E+00 -0.85049218984E+03  0.85049218984E+03  0.00000000000E+00 0.  1.
         -6    2    1    2    0  503  0.57071157662E+02  0.14581269983E+03 -0.51637168525E+03  0.56623583610E+03  0.17165326765E+03 0.  0.
        -24    2    3    3    0    0  0.63920766626E+02  0.78139053730E+02 -0.16924922849E+03  0.21248065309E+03  0.79442749648E+02 0.  0.
          6    2    1    2  501    0 -0.57071157662E+02 -0.14581269983E+03 -0.26569025481E+03  0.35268660352E+03  0.17110835262E+03 0.  0.
         24    2    5    5    0    0  0.68430949378E+01 -0.68845703789E+02 -0.21688148530E+03  0.24127145130E+03  0.79923561400E+02 0.  0.
          5    1    5    5  501    0 -0.63914252600E+02 -0.76966996040E+02 -0.48808769506E+02  0.11141515223E+03  0.47000000000E+01 0. -1.
        -11    1    6    6    0    0 -0.67654192956E+01  0.12913181022E+01  0.47778651494E+01  0.83825053577E+01  0.00000000000E+00 0.  1.
         12    1    6    6    0    0  0.13608514233E+02 -0.70137021891E+02 -0.22165935045E+03  0.23288894594E+03  0.00000000000E+00 0. -1.
         -5    1    3    3    0  503 -0.68496089639E+01  0.67673646099E+02 -0.34712245676E+03  0.35375518301E+03  0.47000000000E+01 0.  1.
         11    1    4    4    0    0  0.70069231759E+02  0.24545156209E+02 -0.10481046501E+03  0.12844218742E+03  0.00000000000E+00 0. -1.
        -12    1    4    4    0    0 -0.61484651330E+01  0.53593897520E+02 -0.64438763475E+02  0.84038465675E+02  0.00000000000E+00 0.  1.
</event>
<event>
12    1  0.8747122E-002  0.1794906E+03  0.7818608E-02  0.1169587E+00
         21   -1    0    0  503  502  0.00000000000E+00  0.00000000000E+00  0.18977637921E+02  0.18977637921E+02  0.00000000000E+00 0. -1.
         21   -1    0    0  501  503 -0.00000000000E+00 -0.00000000000E+00 -0.18651693201E+04  0.18651693201E+04  0.00000000000E+00 0. -1.
          6    2    1    2  501    0 -0.24392472267E+02  0.10512920748E+02 -0.12561960337E+04  0.12689544260E+04  0.17751435385E+03 0.  0.
         24    2    3    3    0    0 -0.39697257004E+02 -0.41437001770E+02 -0.10830824569E+04  0.10875062754E+04  0.79431688366E+02 0.  0.
         -6    2    1    2    0  502  0.24392472267E+02 -0.10512920748E+02 -0.58999564850E+03  0.61519253210E+03  0.17222506234E+03 0.  0.
        -24    2    5    5    0    0  0.59943964798E+02 -0.10367193654E+02 -0.55850813522E+03  0.56746954655E+03  0.79934920620E+02 0.  0.
          5    1    3    3  501    0  0.15304784736E+02  0.51949922518E+02 -0.17311357678E+03  0.18144815059E+03  0.47000000000E+01 0. -1.
        -13    1    4    4    0    0 -0.18000018896E+02  0.68002322588E+01 -0.58991002559E+02  0.62049836599E+02  0.00000000000E+00 0.  1.
         14    1    4    4    0    0 -0.21697238108E+02 -0.48237234029E+02 -0.10240914544E+04  0.10254564388E+04  0.00000000000E+00 0. -1.
         -5    1    5    5    0  502 -0.35551492530E+02 -0.14572709364E+00 -0.31487513281E+02  0.47722985554E+02  0.47000000000E+01 0.  1.
         11    1    6    6    0    0  0.28074972960E+02  0.77568169039E+01 -0.51724901264E+02  0.59361921515E+02  0.00000000000E+00 0. -1.
        -12    1    6    6    0    0  0.31868991837E+02 -0.18124010558E+02 -0.50678323395E+03  0.50810762503E+03  0.00000000000E+00 0.  1.
</event>
<event>
12    1  0.8747122E-002  0.2195260E+03  0.7818608E-02  0.1134375E+00
         21   -1    0    0  501  502  0.00000000000E+00  0.00000000000E+00  0.36272572235E+03  0.36272572235E+03  0.00000000000E+00 0.  1.
         21   -1    0    0  502  503 -0.00000000000E+00 -0.00000000000E+00 -0.26145997241E+03  0.26145997241E+03  0.00000000000E+00 0. -1.
         -6    2    1    2    0  503  0.70785736500E+02  0.11641425616E+03 -0.16866818507E+03  0.27625466628E+03  0.17118640267E+03 0.  0.
        -24    2    3    3    0    0  0.74611883858E+02  0.52641763109E+02 -0.17474617181E+03  0.21190715509E+03  0.77655195454E+02 0.  0.
          6    2    1    2  501    0 -0.70785736500E+02 -0.11641425616E+03  0.26993393501E+03  0.34793102848E+03  0.17213010131E+03 0.  0.
         24    2    5    5    0    0 -0.11386377780E+03 -0.69305922845E+02  0.18043484430E+03  0.23789880616E+03  0.79188623547E+02 0.  0.
          5    1    5    5  501    0  0.43078041298E+02 -0.47108333311E+02  0.89499090716E+02  0.11003222232E+03  0.47000000000E+01 0. -1.
        -13    1    6    6    0    0 -0.11191370722E+03 -0.82514243914E+02  0.17492580165E+03  0.22345539688E+03  0.00000000000E+00 0.  1.
         14    1    6    6    0    0 -0.19500705803E+01  0.13208321069E+02  0.55090426498E+01  0.14443409281E+02  0.00000000000E+00 0. -1.
         -5    1    3    3    0  503 -0.38261473583E+01  0.63772493047E+02  0.60779867398E+01  0.64347511187E+02  0.47000000000E+01 0.  1.
         13    1    4    4    0    0 -0.79155302061E+01 -0.11090087085E+02 -0.98642327198E+01  0.16821080142E+02  0.00000000000E+00 0. -1.
        -14    1    4    4    0    0  0.82527414064E+02  0.63731850194E+02 -0.16488193909E+03  0.19508607495E+03  0.00000000000E+00 0.  1.
</event>
<event>
12    1  0.8747122E-002  0.1829049E+03  0.7818608E-02  0.1165124E+00
         21   -1    0    0  501  502  0.00000000000E+00  0.00000000000E+00  0.15264327465E+04  0.15264327465E+04  0.00000000000E+00 0.  1.
         21   -1    0    0  502  503 -0.00000000000E+00 -0.00000000000E+00 -0.71295410824E+02  0.71295410824E+02  0.00000000000E+00 0. -1.
         -6    2    1    2    0  503 -0.39053818931E+02 -0.45067700727E+02  0.62123153272E+02  0.19275744073E+03  0.17245244667E+03 0.  0.
        -24    2    3    3    0    0  0.20262041365E+02  0.13008726836E+01  0.80036862901E+02  0.11522417770E+03  0.80364601130E+02 0.  0.
          6    2    1    2  501    0  0.39053818931E+02  0.45067700727E+02  0.13930141824E+04  0.14049707166E+04  0.17291010289E+03 0.  0.
         24    2    5    5    0    0  0.18298160428E+02 -0.19469354545E+02  0.11331779758E+04  0.11363952652E+04  0.81166466845E+02 0.  0.
          5    1    5    5  501    0  0.20755658503E+02  0.64537055271E+02  0.25983620655E+03  0.26857545141E+03  0.47000000000E+01 0. -1.
        -11    1    6    6    0    0  0.33600871881E+02 -0.41457407983E+02  0.54468430469E+03  0.54729217704E+03  0.00000000000E+00 0.  1.
         12    1    6    6    0    0 -0.15302711454E+02  0.21988053439E+02  0.58849367114E+03  0.58910308813E+03  0.00000000000E+00 0. -1.
         -5    1    3    3    0  503 -0.59315860295E+02 -0.46368573410E+02 -0.17913709629E+02  0.77533263025E+02  0.47000000000E+01 0.  1.
         13    1    4    4    0    0  0.56285442885E+01  0.39913529748E+02  0.29431721394E+02  0.49909884712E+02  0.00000000000E+00 0. -1.
        -14    1    4    4    0    0  0.14633497076E+02 -0.38612657064E+02  0.50605141507E+02  0.65314292993E+02  0.00000000000E+00 0.  1.
</event>
<event>
12    1  0.8747122E-002  0.2028850E+03  0.7818608E-02  0.1147372E+00
         21   -1    0    0  503  502  0.00000000000E+00  0.00000000000E+00  0.10431620541E+03  0.10431620541E+03  0.00000000000E+00 0.  1.
         21   -1    0    0  501  503 -0.00000000000E+00 -0.00000000000E+00 -0.42454419619E+03  0.42454419619E+03  0.00000000000E+00 0. -1.
          6    2    1    2  501    0 -0.82386237678E+02  0.69799507023E+02 -0.23075708824E+03  0.30712323886E+03  0.17151206003E+03 0.  0.
         24    2    3    3    0    0 -0.41965219373E+02 -0.21351474659E+02 -0.63345657489E+02  0.11221034209E+03  0.79759158982E+02 0.  0.
         -6    2    1    2    0  502  0.82386237678E+02 -0.69799507023E+02 -0.89470902535E+02  0.22173716274E+03  0.17176397643E+03 0.  0.
        -24    2    5    5    0    0  0.33650039514E+02 -0.97546193522E+02 -0.19163890898E+02  0.13168017240E+03  0.79528787609E+02 0.  0.
          5    1    3    3  501    0 -0.40421018306E+02  0.91150981682E+02 -0.16741143075E+03  0.19491289677E+03  0.47000000000E+01 0. -1.
        -11    1    4    4    0    0  0.21902328627E+02 -0.34698172325E+01 -0.31795952073E+02  0.38765115750E+02  0.00000000000E+00 0.  1.
         12    1    4    4    0    0 -0.63867548000E+02 -0.17881657427E+02 -0.31549705416E+02  0.73445226337E+02  0.00000000000E+00 0. -1.
         -5    1    5    5    0  502  0.48736198165E+02  0.27746686499E+02 -0.70307011637E+02  0.90056990337E+02  0.47000000000E+01 0.  1.
         13    1    6    6    0    0  0.28330292190E+02 -0.56552622428E+02 -0.49572337101E+02  0.80363058458E+02  0.00000000000E+00 0. -1.
        -14    1    6    6    0    0  0.53197473232E+01 -0.40993571094E+02  0.30408446203E+02  0.51317113940E+02  0.00000000000E+00 0.  1.
</event>
<event>
12    1  0.8747122E-002  0.2212167E+03  0.7818608E-02  0.1133234E+00
         21   -1    0    0  503  502  0.00000000000E+00  0.00000000000E+00  0.93416727132E+02  0.93416727132E+02  0.00000000000E+00 0.  1.
         21   -1    0    0  501  503 -0.00000000000E+00 -0.00000000000E+00 -0.53311381228E+03  0.53311381228E+03  0.00000000000E+00 0.  1.
          6    2    1    2  501    0  0.56094361649E+02  0.12292802686E+03 -0.26715687106E+03  0.34598296520E+03  0.17341724615E+03 0.  0.
         24    2    3    3    0    0  0.44433438364E+01  0.12954708360E+03 -0.13190247695E+03  0.20097441139E+03  0.78678208134E+02 0.  0.
         -6    2    1    2    0  502 -0.56094361649E+02 -0.12292802686E+03 -0.17254021409E+03  0.28054757421E+03  0.17515404284E+03 0.  0.
        -24    2    5    5    0    0 -0.29247580484E+02 -0.14467809779E+03 -0.17865311579E+03  0.24514598086E+03  0.79952756097E+02 0.  0.
          5    1    3    3  501    0  0.51651017813E+02 -0.66190567410E+01 -0.13525439410E+03  0.14500855381E+03  0.47000000000E+01 0. -1.
        -13    1    4    4    0    0  0.34379665153E+02  0.95925504046E+02 -0.11296971717E+03  0.15213750590E+03  0.00000000000E+00 0.  1.
         14    1    4    4    0    0 -0.29936321317E+02  0.33621579551E+02 -0.18932759782E+02  0.48836905496E+02  0.00000000000E+00 0. -1.
         -5    1    5    5    0  502 -0.26846781165E+02  0.21750070933E+02  0.61129016989E+01  0.35401593349E+02  0.47000000000E+01 0.  1.
         11    1    6    6    0    0 -0.31255919851E+01 -0.48244792887E+02 -0.11981002533E+03  0.12919663903E+03  0.00000000000E+00 0. -1.
        -12    1    6    6    0    0 -0.26121988499E+02 -0.96433304901E+02 -0.58843090459E+02  0.11594934184E+03  0.00000000000E+00 0.  1.
</event>
<event>
12    1  0.8747122E-002  0.1898803E+03  0.7818608E-02  0.1158689E+00
         21   -1    0    0  501  502  0.00000000000E+00  0.00000000000E+00  0.21193959094E+03  0.21193959094E+03  0.00000000000E+00 0.  1.
         21   -1    0    0  502  503 -0.00000000000E+00 -0.00000000000E+00 -0.25369255877E+03  0.25369255877E+03  0.00000000000E+00 0.  1.
         -6    2    1    2    0  503  0.69926069961E+02  0.39631450901E+02 -0.15490427097E+03  0.24505076040E+03  0.17202974990E+03 0.  0.
        -24    2    3    3    0    0  0.91455085953E+02 -0.71391292659E+01 -0.15059821076E+03  0.19316995612E+03  0.78865778070E+02 0.  0.
          6    2    1    2  501    0 -0.69926069961E+02 -0.39631450901E+02  0.11315130314E+03  0.22058138931E+03  0.17144277397E+03 0.  0.
         24    2    5    5    0    0 -0.61833676986E+02  0.17666044693E+02  0.12461049941E+03  0.16140459483E+03  0.79926052849E+02 0.  0.
          5    1    5    5  501    0 -0.80923929750E+01 -0.57297495594E+02 -0.11459196269E+02  0.59176794476E+02  0.47000000000E+01 0. -1.
        -13    1    6    6    0    0 -0.50856287584E+02 -0.26246343541E+02  0.66180046392E+02  0.87493034446E+02  0.00000000000E+00 0.  1.
         14    1    6    6    0    0 -0.10977389402E+02  0.43912388233E+02  0.58430453019E+02  0.73911560384E+02  0.00000000000E+00 0. -1.
         -5    1    3    3    0  503 -0.21529015992E+02  0.46770580167E+02 -0.43060602088E+01  0.51880804285E+02  0.47000000000E+01 0.  1.
         11    1    4    4    0    0  0.47311949422E+02 -0.17509481232E+01 -0.13784602244E+02  0.49310258937E+02  0.00000000000E+00 0. -1.
        -12    1    4    4    0    0  0.44143136530E+02 -0.53881811428E+01 -0.13681360851E+03  0.14385969718E+03  0.00000000000E+00 0.  1.
</event>
<event>
12    1  0.8747122E-002  0.2210753E+03  0.7818608E-02  0.1133411E+00
         21   -1    0    0  501  502  0.00000000000E+00  0.00000000000E+00  0.83821023437E+03  0.83821023437E+03  0.00000000000E+00 0.  1.
         21   -1    0    0  502  503 -0.00000000000E+00 -0.00000000000E+00 -0.15349506467E+03  0.15349506467E+03  0.00000000000E+00 0. -1.
         -6    2    1    2    0  503 -0.13525645617E+03 -0.31367432708E+02 -0.48551107536E+02  0.22634380386E+03  0.17203512063E+03 0.  0.
        -24    2    3    3    0    0 -0.91283931204E+02 -0.15948312276E+02 -0.99250660031E+02  0.15732303271E+03  0.79452742830E+02 0.  0.
          6    2    1    2  501    0  0.13525645617E+03  0.31367432708E+02  0.73326627724E+03  0.76536149519E+03  0.16976619280E+03 0.  0.
         24    2    5    5    0    0  0.14557591330E+03  0.65834288544E+02  0.54496311872E+03  0.57359438421E+03  0.80617719825E+02 0.  0.
          5    1    5    5  501    0 -0.10319457134E+02 -0.34466855835E+02  0.18830315852E+03  0.19176711098E+03  0.47000000000E+01 0. -1.
        -11    1    6    6    0    0  0.47039068455E+02 -0.85768650364E+01  0.23746679782E+03  0.24223277367E+03  0.00000000000E+00 0.  1.
         12    1    6    6    0    0  0.98536844848E+02  0.74411153580E+02  0.30749632090E+03  0.33136161053E+03  0.00000000000E+00 0. -1.
         -5    1    3    3    0  503 -0.43972524965E+02 -0.15419120432E+02  0.50699552494E+02  0.69020771148E+02  0.47000000000E+01 0.  1.
         11    1    4    4    0    0 -0.88032567205E+02 -0.22772684838E+02 -0.43032335759E+02  0.10059875737E+03  0.00000000000E+00 0. -1.
        -12    1    4    4    0    0 -0.32513639994E+01  0.68243725616E+01 -0.56218324272E+02  0.56724275338E+02  0.00000000000E+00 0.  1.
</event>
<event>
12    1  0.8747122E-002  0.2105139E+03  0.7818608E-02  0.1141790E+00
         21   -1    0    0  503  502  0.00000000000E+00  0.00000000000E+00  0.63232718933E+03  0.63232718933E+03  0.00000000000E+00 0.  1.
         21   -1    0    0  501  503 -0.00000000000E+00 -0.00000000000E+00 -0.69998703654E+02  0.69998703654E+02  0.00000000000E+00 0.  1.
          6    2    1    2  501    0 -0.35523521710E+01  0.11561331459E+03  0.32451296701E+03  0.38681358299E+03  0.17588923931E+03 0.  0.
         24    2    3    3    0    0 -0.41458949386E+02  0.13532219248E+03  0.21697927060E+03  0.27100798794E+03  0.79588852199E+02 0.  0.
         -6    2    1    2    0  502  0.35523521710E+01 -0.11561331459E+03  0.23781551866E+03  0.31551230999E+03  0.17208352369E+03 0.  0.
        -24    2    5    5    0    0 -0.10146685659E+02 -0.55476143551E+02  0.35071198759E+02  0.10354181150E+03  0.79437774478E+02 0.  0.
          5    1    3    3  501    0  0.37906597215E+02 -0.19708877887E+02  0.10753369641E+03  0.11580559505E+03  0.47000000000E+01 0. -1.
        -11    1    4    4    0    0  0.10876773833E+02  0.29327569310E+02  0.99692577183E+02  0.10448454659E+03  0.00000000000E+00 0.  1.
         12    1    4    4    0    0 -0.52335723219E+02  0.10599462317E+03  0.11728669342E+03  0.16652344135E+03  0.00000000000E+00 0. -1.
         -5    1    5    5    0  502  0.13699037830E+02 -0.60137171042E+02  0.20274431990E+03  0.21197049849E+03  0.47000000000E+01 0.  1.
         13    1    6    6    0    0 -0.41632567144E+02 -0.16561052127E+02  0.28384439334E+02  0.53039753872E+02  0.00000000000E+00 0. -1.
        -14    1    6    6    0    0  0.31485881485E+02 -0.38915091425E+02  0.66867594248E+01  0.50502057632E+02  0.00000000000E+00 0.  1.
</event>
<event>
12    1  0.8747122E-002  0.1980744E+03  0.7818608E-02  0.1151793E+00
         21   -1    0    0  501  502  0.00000000000E+00  0.00000000000E+00  0.12469253783E+03  0.12469253783E+03  0.00000000000E+00 0.  1.
         21   -1    0    0  502  503 -0.00000000000E+00 -0.00000000000E+00 -0.34124593159E+03  0.34124593159E+03  0.00000000000E+00 0.  1.
         -6    2    1    2    0  503 -0.65129466049E+01 -0.94954329285E+02 -0.17748833282E+03  0.26596163981E+03  0.17370878630E+03 0.  0.
        -24    2    3    3    0    0 -0.34523725993E+02 -0.10630463721E+03 -0.18873525640E+03  0.23337304453E+03  0.79683231360E+02 0.  0.
          6    2    1    2  501    0  0.65129466049E+01  0.94954329285E+02 -0.39065060943E+02  0.19997682961E+03  0.17148151583E+03 0.  0.
         24    2    5    5    0    0 -0.40437981116E+02  0.11186505523E+03 -0.15421979997E+02  0.14455618777E+03  0.80682297037E+02 0.  0.
          5    1    5    5  501    0  0.46950927721E+02 -0.16910725950E+02 -0.23643080946E+02  0.55420641846E+02  0.47000000000E+01 0. -1.
        -11    1    6    6    0    0 -0.11656536389E+02  0.41307210822E+02  0.33113786204E+02  0.54209624083E+02  0.00000000000E+00 0.  1.
         12    1    6    6    0    0 -0.28781444727E+02  0.70557844413E+02 -0.48535766201E+02  0.90346563684E+02  0.00000000000E+00 0. -1.
         -5    1    3    3    0  503  0.28010779388E+02  0.11350307921E+02  0.11246923576E+02  0.32588595271E+02  0.47000000000E+01 0.  1.
         13    1    4    4    0    0 -0.94740678946E+01  0.10823700632E+02 -0.39361576320E+02  0.41907566718E+02  0.00000000000E+00 0. -1.
        -14    1    4    4    0    0 -0.25049658098E+02 -0.11712833784E+03 -0.14937368008E+03  0.19146547782E+03  0.00000000000E+00 0.  1.
</event>
<event>
12    1  0.8747122E-002  0.1817825E+03  0.7818608E-02  0.1166279E+00
         21   -1    0    0  501  502  0.00000000000E+00  0.00000000000E+00  0.24877971684E+03  0.24877971684E+03  0.00000000000E+00 0.  1.
         21   -1    0    0  502  503 -0.00000000000E+00 -0.00000000000E+00 -0.17699384214E+03  0.17699384214E+03  0.00000000000E+00 0.  1.
         -6    2    1    2    0  503 -0.15475604394E+02 -0.55466024083E+02 -0.71205260932E+02  0.19449160988E+03  0.17158328290E+03 0.  0.
        -24    2    3    3    0    0 -0.57810869802E+01  0.17870107637E+02 -0.88298550800E+02  0.11842294062E+03  0.76645920171E+02 0.  0.
          6    2    1    2  501    0  0.15475604394E+02  0.55466024083E+02  0.14299113563E+03  0.23128194910E+03  0.17242070917E+03 0.  0.
         24    2    5    5    0    0  0.34347229410E+02  0.96884909715E+02  0.13040719900E+03  0.18382557146E+03  0.78863079267E+02 0.  0.
          5    1    5    5  501    0 -0.18871625016E+02 -0.41418885632E+02  0.12583936632E+02  0.47456377642E+02  0.47000000000E+01 0. -1.
        -13    1    6    6    0    0 -0.18604705177E+02  0.34671663537E+01  0.36759675694E+02  0.41345254315E+02  0.00000000000E+00 0.  1.
         14    1    6    6    0    0  0.52951934587E+02  0.93417743361E+02  0.93647523305E+02  0.14248031714E+03  0.00000000000E+00 0. -1.
         -5    1    3    3    0  503 -0.96945174139E+01 -0.73336131721E+02  0.17093289867E+02  0.76068669254E+02  0.47000000000E+01 0.  1.
         11    1    4    4    0    0 -0.30101446645E+02  0.15693376260E+02 -0.85315690922E+01  0.35002383058E+02  0.00000000000E+00 0. -1.
        -12    1    4    4    0    0  0.24320359665E+02  0.21767313775E+01 -0.79766981708E+02  0.83420557565E+02  0.00000000000E+00 0.  1.
</event>
<event>
12    1  0.8747122E-002  0.1733319E+03  0.7818608E-02  0.1174518E+00
         21   -1    0    0  503  502  0.00000000000E+00  0.00000000000E+00  0.25749566308E+03  0.25749566308E+03  0.00000000000E+00 0. -1.
         21   -1    0    0  501  503 -0.00000000000E+00 -0.00000000000E+00 -0.15668854351E+03  0.15668854351E+03  0.00000000000E+00 0. -1.
          6    2    1    2  501    0  0.13729795753E+02  0.76009035529E+01 -0.54636231336E+02  0.18136115719E+03  0.17222215460E+03 0.  0.
         24    2    3    3    0    0 -0.53468475460E+02 -0.29468901805E+01 -0.70988932428E+02  0.11124436576E+03  0.66845481203E+02 0.  0.
         -6    2    1    2    0  502 -0.13729795753E+02 -0.76009035529E+01  0.15544335091E+03  0.23282304941E+03  0.17261997557E+03 0.  0.
        -24    2    5    5    0    0 -0.26097179303E+01  0.24337527672E+02  0.17047585907E+02  0.90277627557E+02  0.85207417349E+02 0.  0.
          5    1    3    3  501    0  0.67198271214E+02  0.10547793733E+02  0.16352701091E+02  0.70116791425E+02  0.47000000000E+01 0. -1.
        -13    1    4    4    0    0 -0.23909348723E+02 -0.16361198805E+02  0.42690605987E+01  0.29284307420E+02  0.00000000000E+00 0.  1.
         14    1    4    4    0    0 -0.29559126737E+02  0.13414308624E+02 -0.75257993026E+02  0.81960058344E+02  0.00000000000E+00 0. -1.
         -5    1    5    5    0  502 -0.11120077823E+02 -0.31938431224E+02  0.13839576500E+03  0.14254542185E+03  0.47000000000E+01 0.  1.
         11    1    6    6    0    0  0.98219908113E+01 -0.18096570449E+02 -0.22823361876E+02  0.30738627375E+02  0.00000000000E+00 0. -1.
        -12    1    6    6    0    0 -0.12431708742E+02  0.42434098121E+02  0.39870947784E+02  0.59539000183E+02  0.00000000000E+00 0.  1.
</event>
<event>
12    1  0.8747122E-002  0.1824016E+03  0.7818608E-02  0.1165500E+00
         21   -1    0    0  501  502  0.00000000000E+00  0.00000000000E+00  0.25149764671E+03  0.25149764671E+03  0.00000000000E+00 0.  1.
         21   -1    0    0  502  503 -0.00000000000E+00 -0.00000000000E+00 -0.14241435976E+03  0.14241435976E+03  0.00000000000E+00 0.  1.
         -6    2    1    2    0  503 -0.50577373783E+02 -0.27377327945E+02  0.10707164982E+03  0.21150578690E+03  0.17309757617E+03 0.  0.
        -24    2    3    3    0    0  0.25143327535E+02  0.23921177325E+02  0.33299799198E+02  0.93906734210E+02  0.80654748522E+02 0.  0.
          6    2    1    2  501    0  0.50577373783E+02  0.27377327945E+02  0.20116371295E+01  0.18240621956E+03  0.17309070866E+03 0.  0.
         24    2    5    5    0    0  0.50949343651E+02 -0.12936507820E+02 -0.57606827112E+02  0.11028274908E+03  0.77977877386E+02 0.  0.
          5    1    5    5  501    0 -0.37196986764E+00  0.40313835764E+02  0.59618464241E+02  0.72123470480E+02  0.47000000000E+01 0. -1.
        -11    1    6    6    0    0  0.66867491245E+02 -0.26136448964E+02 -0.35781085257E+02  0.80216341303E+02  0.00000000000E+00 0.  1.
         12    1    6    6    0    0 -0.15918147594E+02  0.13199941145E+02 -0.21825741855E+02  0.30066407777E+02  0.00000000000E+00 0. -1.
         -5    1    3    3    0  503 -0.75720701318E+02 -0.51298505270E+02  0.73771850619E+02  0.11759905270E+03  0.47000000000E+01 0.  1.
         11    1    4    4    0    0  0.39502066237E+02 -0.69633090140E+01 -0.74506163095E+01  0.40797213052E+02  0.00000000000E+00 0. -1.
        -12    1    4    4    0    0 -0.14358738702E+02  0.30884486339E+02  0.40750415508E+02  0.53109521158E+02  0.00000000000E+00 0.  1.
</event>
<event>
12    1  0.8747122E-002  0.1768562E+03  0.7818608E-02  0.1171725E+00
         21   -1    0    0  503  502  0.00000000000E+00  0.00000000000E+00  0.28173066412E+03  0.28173066412E+03  0.00000000000E+00 0.  1.
         21   -1    0    0  501  503 -0.00000000000E+00 -0.00000000000E+00 -0.13357650365E+03  0.13357650365E+03  0.00000000000E+00 0.  1.
          6    2    1    2  501    0 -0.24655959156E+02 -0.35053791491E+02 -0.15730362776E+02  0.17419259151E+03  0.16810392620E+03 0.  0.
         24    2    3    3    0    0  0.38458901085E+02  0.14227764369E+02  0.12070172075E+02  0.89297850390E+02  0.78402172666E+02 0.  0.
         -6    2    1    2    0  502  0.24655959156E+02  0.35053791491E+02  0.16388452324E+03  0.24111457627E+03  0.17158501482E+03 0.  0.
        -24    2    5    5    0    0  0.39506387601E+02 -0.27299558943E+02  0.15355678878E+03  0.17602058550E+03  0.71397048666E+02 0.  0.
          5    1    3    3  501    0 -0.63114860241E+02 -0.49281555860E+02 -0.27800534851E+02  0.84894741116E+02  0.47000000000E+01 0. -1.
        -13    1    4    4    0    0  0.61983858077E+02  0.11169674258E+02  0.68866766423E+00  0.62985986921E+02  0.00000000000E+00 0.  1.
         14    1    4    4    0    0 -0.23524956992E+02  0.30580901105E+01  0.11381504410E+02  0.26311863470E+02  0.00000000000E+00 0. -1.
         -5    1    5    5    0  502 -0.14850428446E+02  0.62353350435E+02  0.10327734461E+02  0.65093990771E+02  0.47000000000E+01 0.  1.
         13    1    6    6    0    0  0.27031596039E+02 -0.24282342177E+02  0.19285340486E+02  0.41137132662E+02  0.00000000000E+00 0. -1.
        -14    1    6    6    0    0  0.12474791563E+02 -0.30172167664E+01  0.13427144829E+03  0.13488345283E+03  0.00000000000E+00 0.  1.
</event>
<event>
12    1  0.8747122E-002  0.2077588E+03  0.7818608E-02  0.1143495E+00
         21   -1    0    0  501  502  0.00000000000E+00  0.00000000000E+00  0.12833787555E+03  0.12833787555E+03  0.00000000000E+00 0.  1.
         21   -1    0    0  502  503 -0.00000000000E+00 -0.00000000000E+00 -0.34852604811E+03  0.34852604811E+03  0.00000000000E+00 0.  1.
         -6    2    1    2    0  503 -0.85758245399E+02  0.78198328864E+02 -0.15691947325E+03  0.26036023274E+03  0.17232026700E+03 0.  0.
        -24    2    3    3    0    0 -0.49259137394E+02  0.35230946034E+02 -0.75514851375E+01  0.10063776487E+03  0.80020326260E+02 0.  0.
          6    2    1    2  501    0  0.85758245399E+02 -0.78198328864E+02 -0.63268699314E+02  0.21650369092E+03  0.17146855274E+03 0.  0.
         24    2    5    5    0    0 -0.19857628021E+02 -0.17311221449E+02 -0.42314488341E+02  0.92717094208E+02  0.78178896488E+02 0.  0.
          5    1    5    5  501    0  0.10561587342E+03 -0.60887107415E+02 -0.20954210973E+02  0.12378659671E+03  0.47000000000E+01 0. -1.
        -13    1    6    6    0    0  0.24193519244E+02  0.91091348987E+00  0.58950890351E+01  0.24918029849E+02  0.00000000000E+00 0.  1.
         14    1    6    6    0    0 -0.44051147265E+02 -0.18222134939E+02 -0.48209577376E+02  0.67799064359E+02  0.00000000000E+00 0. -1.
         -5    1    3    3    0  503 -0.36499108005E+02  0.42967382830E+02 -0.14936798811E+03  0.15972246788E+03  0.47000000000E+01 0.  1.
         11    1    4    4    0    0  0.21731949711E+02  0.27795441694E+01  0.19948089896E+01  0.21999608336E+02  0.00000000000E+00 0. -1.
        -12    1    4    4    0    0 -0.70991087105E+02  0.32451401864E+02 -0.95462941270E+01  0.78638156533E+02  0.00000000000E+00 0.  1.
</event>
<event>
12    1  0.8747122E-002  0.1996571E+03  0.7818608E-02  0.1151641E+00
         21   -1    0    0  503  502  0.00000000000E+00  0.00000000000E+00  0.51067219931E+03  0.51067219931E+03  0.00000000000E+00 0. -1.
         21   -1    0    0  501  503 -0.00000000000E+00 -0.00000000000E+00 -0.84579997757E+02  0.84579997757E+02  0.00000000000E+00 0. -1.
          6    2    1    2  501    0 -0.52817783744E+02 -0.88185327088E+02  0.31593775760E+03  0.37373734815E+03  0.17116240396E+03 0.  0.
         24    2    3    3    0    0 -0.45806898199E+01 -0.52928725610E+01  0.23618804565E+03  0.24891714624E+03  0.78268483860E+02 0.  0.
         -6    2    1    2    0  502  0.52817783744E+02  0.88185327088E+02  0.11015444395E+03  0.22151484892E+03  0.16238367090E+03 0.  0.
        -24    2    5    5    0    0  0.84307987870E+02  0.42635940251E+02  0.11041419014E+03  0.16594024082E+03  0.80119972042E+02 0.  0.
          5    1    3    3  501    0 -0.48237093924E+02 -0.82892454527E+02  0.79749711957E+02  0.12482020191E+03  0.47000000000E+01 0. -1.
        -13    1    4    4    0    0 -0.35849954582E+02  0.64158667682E+01  0.65039934254E+02  0.74542441855E+02  0.00000000000E+00 0.  1.
         14    1    4    4    0    0  0.31269264762E+02 -0.11708739329E+02  0.17114811139E+03  0.17437470438E+03  0.00000000000E+00 0. -1.
         -5    1    5    5    0  502 -0.31490204126E+02  0.45549386837E+02 -0.25974618896E+00  0.55574608098E+02  0.47000000000E+01 0.  1.
         11    1    6    6    0    0  0.55637489097E+02 -0.10289795954E+02  0.26013742602E+02  0.62274592716E+02  0.00000000000E+00 0. -1.
        -12    1    6    6    0    0  0.28670498773E+02  0.52925736204E+02  0.84400447535E+02  0.10366564810E+03  0.00000000000E+00 0.  1.
</event>
<event>
12    1  0.8747122E-002  0.2591714E+03  0.7818608E-02  0.1107780E+00
         21   -1    0    0  503  502  0.00000000000E+00  0.00000000000E+00  0.41854109522E+03  0.41854109522E+03  0.00000000000E+00 0.  1.
         21   -1    0    0  501  503 -0.00000000000E+00 -0.00000000000E+00 -0.22570256399E+03  0.22570256399E+03  0.00000000000E+00 0.  1.
          6    2    1    2  501    0  0.10799216836E+03 -0.16118043817E+03 -0.77602992259E+02  0.26966600833E+03  0.17045846875E+03 0.  0.
         24    2    3    3    0    0  0.10110947278E+03 -0.18812158177E+03 -0.74314083201E+02  0.24127404398E+03  0.84129223954E+02 0.  0.
         -6    2    1    2    0  502 -0.10799216836E+03  0.16118043817E+03  0.27044152348E+03  0.37457765088E+03  0.17183817049E+03 0.  0.
        -24    2    5    5    0    0 -0.10701198095E+03  0.18057469791E+03  0.19767965511E+03  0.29912251476E+03  0.79613109477E+02 0.  0.
          5    1    3    3  501    0  0.68826955789E+01  0.26941143600E+02 -0.32889090578E+01  0.28391964351E+02  0.47000000000E+01 0. -1.
        -11    1    4    4    0    0  0.98982909710E+02 -0.10230913396E+03 -0.58918924471E+02  0.15406561903E+03  0.00000000000E+00 0.  1.
         12    1    4    4    0    0  0.21265630694E+01 -0.85812447817E+02 -0.15395158730E+02  0.87208424955E+02  0.00000000000E+00 0. -1.
         -5    1    5    5    0  502 -0.98018740936E+00 -0.19394259732E+02  0.72761868366E+02  0.75455136114E+02  0.47000000000E+01 0.  1.
         13    1    6    6    0    0 -0.29060921238E+02  0.23830579441E+01  0.17580739753E+02  0.34048473074E+02  0.00000000000E+00 0. -1.
        -14    1    6    6    0    0 -0.77951059711E+02  0.17819163996E+03  0.18009891536E+03  0.26507404169E+03  0.00000000000E+00 0.  1.
</event>
<event>
12    1  0.8747122E-002  0.3300614E+03  0.7818608E-02  0.1071288E+00
         21   -1    0    0  501  502  0.00000000000E+00  0.00000000000E+00  0.78024859694E+03  0.78024859694E+03  0.00000000000E+00 0.  1.
         21   -1    0    0  502  503 -0.00000000000E+00 -0.00000000000E+00 -0.16066948804E+03  0.16066948804E+03  0.00000000000E+00 0. -1.
         -6    2    1    2    0  503 -0.25505552382E+03  0.12166787313E+03  0.13613041314E+03  0.35554371557E+03  0.16740206904E+03 0.  0.
        -24    2    3    3    0    0 -0.16951949897E+03  0.67698050351E+02  0.18940676761E+02  0.20067384236E+03  0.81187161654E+02 0.  0.
          6    2    1    2  501    0  0.25505552382E+03 -0.12166787313E+03  0.48344869576E+03  0.58537436941E+03  0.17054066771E+03 0.  0.
         24    2    5    5    0    0  0.14546809715E+03 -0.12928435930E+03  0.26027746018E+03  0.33658750211E+03  0.87586399933E+02 0.  0.
          5    1    5    5  501    0  0.10958742667E+03  0.76164861733E+01  0.22317123559E+03  0.24878686730E+03  0.47000000000E+01 0. -1.
        -13    1    6    6    0    0  0.15244587007E+02  0.13315335187E+02  0.22366592588E+02  0.30165544056E+02  0.00000000000E+00 0.  1.
         14    1    6    6    0    0  0.13022351014E+03 -0.14259969449E+03  0.23791086759E+03  0.30642195806E+03  0.00000000000E+00 0. -1.
         -5    1    3    3    0  503 -0.85536024850E+02  0.53969822779E+02  0.11718973638E+03  0.15486987321E+03  0.47000000000E+01 0.  1.
         11    1    4    4    0    0 -0.91899246637E+02  0.69156483659E+02  0.37277583627E+02  0.12090371792E+03  0.00000000000E+00 0. -1.
        -12    1    4    4    0    0 -0.77620252332E+02 -0.14584333086E+01 -0.18336906866E+02  0.79770124441E+02  0.00000000000E+00 0.  1.
</event>
<event>
12    1  0.8747122E-002  0.1807358E+03  0.7818608E-02  0.1167266E+00
         21   -1    0    0  501  502  0.00000000000E+00  0.00000000000E+00  0.38147626681E+03  0.38147626681E+03  0.00000000000E+00 0.  1.
         21   -1    0    0  502  503 -0.00000000000E+00 -0.00000000000E+00 -0.14539137811E+03  0.14539137811E+03  0.00000000000E+00 0.  1.
         -6    2    1    2    0  503  0.40493171843E+02  0.38092010443E+02 -0.51193020136E+02  0.18784610639E+03  0.17197306809E+03 0.  0.
        -24    2    3    3    0    0  0.24299609955E+02  0.80352646570E+02 -0.73925886590E+02  0.13698289739E+03  0.79071224939E+02 0.  0.
          6    2    1    2  501    0 -0.40493171843E+02 -0.38092010443E+02  0.28727790884E+03  0.33902153853E+03  0.17122005857E+03 0.  0.
         24    2    5    5    0    0 -0.92216242720E+02 -0.33279039090E+02  0.18239038079E+03  0.22188092093E+03  0.79709235354E+02 0.  0.
          5    1    5    5  501    0  0.51723070877E+02 -0.48129713524E+01  0.10488752804E+03  0.11714061761E+03  0.47000000000E+01 0. -1.
        -11    1    6    6    0    0 -0.60367393653E+02 -0.57521248158E+02  0.14411885322E+03  0.16650273289E+03  0.00000000000E+00 0.  1.
         12    1    6    6    0    0 -0.31848849066E+02  0.24242209068E+02  0.38271527572E+02  0.55378188035E+02  0.00000000000E+00 0. -1.
         -5    1    3    3    0  503  0.16193561888E+02 -0.42260636127E+02  0.22732866455E+02  0.50863209000E+02  0.47000000000E+01 0.  1.
         11    1    4    4    0    0  0.18298214338E+02  0.57562623813E+01  0.12317420052E+02  0.22796447997E+02  0.00000000000E+00 0. -1.
        -12    1    4    4    0    0  0.60013956175E+01  0.74596384189E+02 -0.86243306643E+02  0.11418644939E+03  0.00000000000E+00 0.  1.
</event>
<event>
12    1  0.8747122E-002  0.1895890E+03  0.7818608E-02  0.1159096E+00
         21   -1    0    0  501  502  0.00000000000E+00  0.00000000000E+00  0.13933377899E+03  0.13933377899E+03  0.00000000000E+00 0. -1.
         21   -1    0    0  502  503 -0.00000000000E+00 -0.00000000000E+00 -0.26146959538E+03  0.26146959538E+03  0.00000000000E+00 0. -1.
         -6    2    1    2    0  503  0.75178530847E+02  0.20916541790E+02 -0.89180077009E+02  0.20951627989E+03  0.17278504618E+03 0.  0.
        -24    2    3    3    0    0 -0.27179833359E+01 -0.38446855896E+02 -0.22255255123E+02  0.90802752056E+02  0.79147300893E+02 0.  0.
          6    2    1    2  501    0 -0.75178530847E+02 -0.20916541790E+02 -0.32955739383E+02  0.19128709448E+03  0.17150906254E+03 0.  0.
         24    2    5    5    0    0  0.19933767323E+02 -0.26230424525E+02  0.95401396446E+01  0.86871691653E+02  0.79814073293E+02 0.  0.
          5    1    5    5  501    0 -0.95112298170E+02  0.53138827348E+01 -0.42495879028E+02  0.10441540283E+03  0.47000000000E+01 0. -1.
        -13    1    6    6    0    0 -0.30840846679E+01 -0.37842647340E+02 -0.23736005346E+02  0.44776952617E+02  0.00000000000E+00 0.  1.
         14    1    6    6    0    0  0.23017851991E+02  0.11612222815E+02  0.33276144991E+02  0.42094739035E+02  0.00000000000E+00 0. -1.
         -5    1    3    3    0  503  0.77896514183E+02  0.59363397686E+02 -0.66924821886E+02  0.11871352784E+03  0.47000000000E+01 0.  1.
         11    1    4    4    0    0  0.35341014819E+02 -0.35075249447E+02 -0.13823036877E+02  0.51675301651E+02  0.00000000000E+00 0. -1.
        -12    1    4    4    0    0 -0.38058998155E+02 -0.33716064493E+01 -0.84322182460E+01  0.39127450405E+02  0.00000000000E+00 0.  1.
</event>
<event>
12    1  0.8747122E-002  0.1823273E+03  0.7818608E-02  0.1165951E+00
         21   -1    0    0  501  502  0.00000000000E+00  0.00000000000E+00  0.36179072344E+02  0.36179072344E+02  0.00000000000E+00 0.  1.
         21   -1    0    0  502  503 -0.00000000000E+00 -0.00000000000E+00 -0.91089178303E+03  0.91089178303E+03  0.00000000000E+00 0. -1.
         -6    2    1    2    0  503 -0.58914742968E+02 -0.14862420693E+02 -0.43955067626E+03  0.47525601851E+03  0.17021059790E+03 0.  0.
        -24    2    3    3    0    0 -0.90731339716E+01 -0.63002931046E+02 -0.20755048300E+03  0.23308278630E+03  0.84845101181E+02 0.  0.
          6    2    1    2  501    0  0.58914742968E+02  0.14862420693E+02 -0.43516203443E+03  0.47181483687E+03  0.17190522271E+03 0.  0.
         24    2    5    5    0    0 -0.33934303249E+01  0.32943833197E+02 -0.15761425138E+03  0.18674623494E+03  0.94525618263E+02 0.  0.
          5    1    5    5  501    0  0.62308173293E+02 -0.18081412503E+02 -0.27754778304E+03  0.28506860194E+03  0.47000000000E+01 0. -1.
        -11    1    6    6    0    0 -0.24335918252E+02 -0.22865117198E+02 -0.26197499511E+02  0.42442425499E+02  0.00000000000E+00 0.  1.
         12    1    6    6    0    0  0.20942487927E+02  0.55808950395E+02 -0.13141675187E+03  0.14430380944E+03  0.00000000000E+00 0. -1.
         -5    1    3    3    0  503 -0.49841608996E+02  0.48140510353E+02 -0.23200019326E+03  0.24217323221E+03  0.47000000000E+01 0.  1.
         11    1    4    4    0    0 -0.28630747817E+02 -0.54888333307E+02 -0.20188541548E+03  0.21116384595E+03  0.00000000000E+00 0. -1.
        -12    1    4    4    0    0  0.19557613845E+02 -0.81145977386E+01 -0.56650675163E+01  0.21918940342E+02  0.00000000000E+00 0.  1.
</event>
<event>
12    1  0.8747122E-002  0.2312748E+03  0.7818608E-02  0.1126075E+00
         21   -1    0    0  501  502  0.00000000000E+00  0.00000000000E+00  0.42686144715E+03  0.42686144715E+03  0.00000000000E+00 0. -1.
         21   -1    0    0  502  503 -0.00000000000E+00 -0.00000000000E+00 -0.13717916552E+03  0.13717916552E+03  0.00000000000E+00 0.  1.
         -6    2    1    2    0  503 -0.15162860873E+03  0.19448308129E+02  0.57866378697E+02  0.23658579388E+03  0.17104048762E+03 0.  0.
        -24    2    3    3    0    0 -0.79204597900E+02  0.69440230713E+02  0.67263547618E+02  0.14795833508E+03  0.79195770794E+02 0.  0.
          6    2    1    2  501    0  0.15162860873E+03 -0.19448308129E+02  0.23181590293E+03  0.32745481879E+03  0.17354703634E+03 0.  0.
         24    2    5    5    0    0  0.46388778927E+02 -0.32110318433E+02  0.12895500432E+02  0.84177238830E+02  0.61127099108E+02 0.  0.
          5    1    5    5  501    0  0.10523982981E+03  0.12662010304E+02  0.21892040250E+03  0.24327757996E+03  0.47000000000E+01 0. -1.
        -13    1    6    6    0    0  0.14700266510E+02 -0.43754269803E+02  0.18918120505E+02  0.49884158256E+02  0.00000000000E+00 0.  1.
         14    1    6    6    0    0  0.31688512417E+02  0.11643951370E+02 -0.60226200726E+01  0.34293080574E+02  0.00000000000E+00 0. -1.
         -5    1    3    3    0  503 -0.72424010833E+02 -0.49991922584E+02 -0.93971689205E+01  0.88627458795E+02  0.47000000000E+01 0.  1.
         11    1    4    4    0    0 -0.76024097157E+02  0.19187353123E+02  0.56021880829E+02  0.96365289394E+02  0.00000000000E+00 0. -1.
        -12    1    4    4    0    0 -0.31805007432E+01  0.50252877590E+02  0.11241666789E+02  0.51593045686E+02  0.00000000000E+00 0.  1.
</event>
<event>
12    1  0.8747122E-002  0.1804680E+03  0.7818608E-02  0.1167770E+00
         21   -1    0    0  503  502  0.00000000000E+00  0.00000000000E+00  0.11256583757E+03  0.11256583757E+03  0.00000000000E+00 0.  1.
         21   -1    0    0  501  503 -0.00000000000E+00 -0.00000000000E+00 -0.10542462306E+04  0.10542462306E+04  0.00000000000E+00 0.  1.
          6    2    1    2  501    0 -0.23160673887E+02  0.47447074513E+02 -0.96929697371E+03  0.98595401235E+03  0.17257186769E+03 0.  0.
         24    2    3    3    0    0 -0.56185309763E+02  0.71391311059E+02 -0.48006456683E+03  0.49500147800E+03  0.79441592166E+02 0.  0.
         -6    2    1    2    0  502  0.23160673887E+02 -0.47447074513E+02  0.27616580658E+02  0.18085805585E+03  0.17076100007E+03 0.  0.
        -24    2    5    5    0    0  0.28991497861E+02 -0.63671975363E+02 -0.36666180624E+02  0.11413767430E+03  0.82391580269E+02 0.  0.
          5    1    3    3  501    0  0.33024635877E+02 -0.23944236546E+02 -0.48923240688E+03  0.49095253435E+03  0.47000000000E+01 0. -1.
        -13    1    4    4    0    0 -0.23075580313E+02  0.26316128190E+02 -0.36893646426E+03  0.37059295146E+03  0.00000000000E+00 0.  1.
         14    1    4    4    0    0 -0.33109729450E+02  0.45075182868E+02 -0.11112810257E+03  0.12440852654E+03  0.00000000000E+00 0. -1.
         -5    1    5    5    0  502 -0.58308239739E+01  0.16224900851E+02  0.64282761281E+02  0.66720381547E+02  0.47000000000E+01 0.  1.
         11    1    6    6    0    0  0.23389083948E+02 -0.82448273799E+02 -0.19060174039E+02  0.87795542795E+02  0.00000000000E+00 0. -1.
        -12    1    6    6    0    0  0.56024139123E+01  0.18776298435E+02 -0.17606006585E+02  0.26342131509E+02  0.00000000000E+00 0.  1.
</event>
<event>
12    1  0.8747122E-002  0.2153267E+03  0.7818608E-02  0.1137847E+00
         21   -1    0    0  501  502  0.00000000000E+00  0.00000000000E+00  0.20266655105E+03  0.20266655105E+03  0.00000000000E+00 0. -1.
         21   -1    0    0  502  503 -0.00000000000E+00 -0.00000000000E+00 -0.43000025851E+03  0.43000025851E+03  0.00000000000E+00 0. -1.
         -6    2    1    2    0  503 -0.76198836909E+02  0.99860852311E+02 -0.33101891008E+03  0.39367681423E+03  0.17213210816E+03 0.  0.
        -24    2    3    3    0    0 -0.56842874516E+02  0.63051609998E+02 -0.33260626402E+03  0.35179384284E+03  0.76976380051E+02 0.  0.
          6    2    1    2  501    0  0.76198836909E+02 -0.99860852311E+02  0.10368520262E+03  0.23898999533E+03  0.17489180672E+03 0.  0.
         24    2    5    5    0    0  0.10054182138E+03 -0.12291462359E+03  0.11140206236E+03  0.20426684473E+03  0.64014543807E+02 0.  0.
          5    1    5    5  501    0 -0.24342984473E+02  0.23053771283E+02 -0.77168597386E+01  0.34723150601E+02  0.47000000000E+01 0. -1.
        -11    1    6    6    0    0  0.11266827891E+02 -0.55818437851E+02  0.54942555357E+02  0.79128527119E+02  0.00000000000E+00 0.  1.
         12    1    6    6    0    0  0.89274993491E+02 -0.67096185743E+02  0.56459507002E+02  0.12513831761E+03  0.00000000000E+00 0. -1.
         -5    1    3    3    0  503 -0.19355962392E+02  0.36809242313E+02  0.15873539428E+01  0.41882971388E+02  0.47000000000E+01 0.  1.
         11    1    4    4    0    0 -0.24298832408E+02  0.63478264875E+02 -0.29172656786E+03  0.29954017053E+03  0.00000000000E+00 0. -1.
        -12    1    4    4    0    0 -0.32544042108E+02 -0.42665487679E+00 -0.40879696166E+02  0.52253672308E+02  0.00000000000E+00 0.  1.
</event>
<event>
12    1  0.8747122E-002  0.2122902E+03  0.7818608E-02  0.1140227E+00
         21   -1    0    0  501  502  0.00000000000E+00  0.00000000000E+00  0.55884023550E+03  0.55884023550E+03  0.00000000000E+00 0. -1.
         21   -1    0    0  502  503 -0.00000000000E+00 -0.00000000000E+00 -0.79755758145E+02  0.79755758145E+02  0.00000000000E+00 0. -1.
         -6    2    1    2    0  503 -0.12264954565E+03 -0.11687626281E+02  0.24018680403E+03  0.31900369602E+03  0.16998278028E+03 0.  0.
        -24    2    3    3    0    0  0.42780691205E+01 -0.17834277146E+02  0.35699043192E+02  0.78201422280E+02  0.67116893887E+02 0.  0.
          6    2    1    2  501    0  0.12264954565E+03  0.11687626281E+02  0.23889767333E+03  0.31959229762E+03  0.17288038270E+03 0.  0.
         24    2    5    5    0    0  0.32316986860E+02  0.45495819265E+02  0.54771545061E+02  0.11168008970E+03  0.79738717557E+02 0.  0.
          5    1    5    5  501    0  0.90332558792E+02 -0.33808192984E+02  0.18412612827E+03  0.20791220792E+03  0.47000000000E+01 0. -1.
        -13    1    6    6    0    0  0.34552795573E+02  0.58060484630E+02  0.66169548819E+02  0.94569153260E+02  0.00000000000E+00 0.  1.
         14    1    6    6    0    0 -0.22358087131E+01 -0.12564665365E+02 -0.11398003758E+02  0.17110936444E+02  0.00000000000E+00 0. -1.
         -5    1    3    3    0  503 -0.12692761477E+03  0.61466508647E+01  0.20448776084E+03  0.24080227374E+03  0.47000000000E+01 0.  1.
         11    1    4    4    0    0 -0.27015055998E+02 -0.22424342538E+02  0.76622181899E+01  0.35935692235E+02  0.00000000000E+00 0. -1.
        -12    1    4    4    0    0  0.31293125119E+02  0.45900653918E+01  0.28036825003E+02  0.42265730045E+02  0.00000000000E+00 0.  1.
</event>
<event>
12    1  0.8747122E-002  0.2559967E+03  0.7818608E-02  0.1109847E+00
         21   -1    0    0  503  502  0.00000000000E+00  0.00000000000E+00  0.12968508761E+03  0.12968508761E+03  0.00000000000E+00 0. -1.
         21   -1    0    0  501  503 -0.00000000000E+00 -0.00000000000E+00 -0.11406248112E+04  0.11406248112E+04  0.00000000000E+00 0.  1.
          6    2    1    2  501    0 -0.69381012724E+02  0.17628106590E+03 -0.98001759595E+03  0.10124523595E+04  0.16951859131E+03 0.  0.
         24    2    3    3    0    0 -0.29346796098E+02  0.17432941593E+03 -0.60904760313E+03  0.63929371630E+03  0.80656637166E+02 0.  0.
         -6    2    1    2    0  502  0.69381012724E+02 -0.17628106590E+03 -0.30922127639E+02  0.25785753930E+03  0.17217895770E+03 0.  0.
        -24    2    5    5    0    0  0.10598198930E+03 -0.14450669071E+03 -0.55450504163E+02  0.20333255732E+03  0.78453838271E+02 0.  0.
          5    1    3    3  501    0 -0.40034216626E+02  0.19516499749E+01 -0.37096999282E+03  0.37315864322E+03  0.47000000000E+01 0. -1.
        -11    1    4    4    0    0  0.13790116959E+02  0.85091674524E+02 -0.38113076836E+03  0.39075749895E+03  0.00000000000E+00 0.  1.
         12    1    4    4    0    0 -0.43136913057E+02  0.89237741404E+02 -0.22791683478E+03  0.24853621735E+03  0.00000000000E+00 0. -1.
         -5    1    5    5    0  502 -0.36600976573E+02 -0.31774375198E+02  0.24528376524E+02  0.54524981983E+02  0.47000000000E+01 0.  1.
         13    1    6    6    0    0  0.41281147336E+02 -0.90892367169E+02  0.47891929550E+01  0.99942442957E+02  0.00000000000E+00 0. -1.
        -14    1    6    6    0    0  0.64700841960E+02 -0.53614323536E+02 -0.60239697118E+02  0.10339011436E+03  0.00000000000E+00 0.  1.
</event>
<event>
12    1  0.8747122E-002  0.1913867E+03  0.7818608E-02  0.1157358E+00
         21   -1    0    0  503  502  0.00000000000E+00  0.00000000000E+00  0.75887421387E+02  0.75887421387E+02  0.00000000000E+00 0. -1.
         21   -1    0    0  501  503 -0.00000000000E+00 -0.00000000000E+00 -0.55059270567E+03  0.55059270567E+03  0.00000000000E+00 0. -1.
          6    2    1    2  501    0 -0.72667637851E+00 -0.83318788761E+02 -0.34899902948E+03  0.39803163977E+03  0.17229717080E+03 0.  0.
         24    2    3    3    0    0  0.46052890458E+02 -0.10018521428E+02 -0.11036111941E+03  0.14400132822E+03  0.79596271029E+02 0.  0.
         -6    2    1    2    0  502  0.72667637851E+00  0.83318788761E+02 -0.12570625481E+03  0.22844848729E+03  0.17159283268E+03 0.  0.
        -24    2    5    5    0    0  0.25666291342E+02  0.80063435466E+01 -0.12316528075E+03  0.14893436686E+03  0.79302580029E+02 0.  0.
          5    1    3    3  501    0 -0.46779566836E+02 -0.73300267333E+02 -0.23863791007E+03  0.25403031155E+03  0.47000000000E+01 0. -1.
        -13    1    4    4    0    0  0.14935831107E+02 -0.17614179911E+02  0.55452500904E+01  0.23750540696E+02  0.00000000000E+00 0.  1.
         14    1    4    4    0    0  0.31117059351E+02  0.75956584834E+01 -0.11590636950E+03  0.12025078752E+03  0.00000000000E+00 0. -1.
         -5    1    5    5    0  502 -0.24939614964E+02  0.75312445215E+02 -0.25409740543E+01  0.79514120431E+02  0.47000000000E+01 0.  1.
         11    1    6    6    0    0  0.54471041787E+02  0.43460927171E+01 -0.77816830728E+02  0.95086497779E+02  0.00000000000E+00 0. -1.
        -12    1    6    6    0    0 -0.28804750445E+02  0.36602508296E+01 -0.45348450026E+02  0.53847869077E+02  0.00000000000E+00 0.  1.
</event>
<event>
12    1  0.8747122E-002  0.2340835E+03  0.7818608E-02  0.1124392E+00
         21   -1    0    0  503  502  0.00000000000E+00  0.00000000000E+00  0.63798519707E+03  0.63798519707E+03  0.00000000000E+00 0.  1.
         21   -1    0    0  501  503 -0.00000000000E+00 -0.00000000000E+00 -0.10583602332E+03  0.10583602332E+03  0.00000000000E+00 0.  1.
          6    2    1    2  501    0  0.54742303311E+02 -0.14366107665E+03  0.98054125443E+02  0.25063402493E+03  0.17195225564E+03 0.  0.
         24    2    3    3    0    0  0.65815719048E+02 -0.15305335090E+03  0.12415792427E+03  0.22039607420E+03  0.73499675295E+02 0.  0.
         -6    2    1    2    0  502 -0.54742303311E+02  0.14366107665E+03  0.43409504830E+03  0.49318719545E+03  0.17652159665E+03 0.  0.
        -24    2    5    5    0    0 -0.51013636843E+02  0.84737615097E+02  0.41024901816E+03  0.42933893448E+03  0.79024105225E+02 0.  0.
          5    1    3    3  501    0 -0.11073415738E+02  0.93922742430E+01 -0.26103798824E+02  0.30237950734E+02  0.47000000000E+01 0. -1.
        -13    1    4    4    0    0  0.53248920009E+02 -0.11896073638E+03  0.53391427888E+02  0.14084654364E+03  0.00000000000E+00 0.  1.
         14    1    4    4    0    0  0.12566799039E+02 -0.34092614518E+02  0.70766496380E+02  0.79549530562E+02  0.00000000000E+00 0. -1.
         -5    1    5    5    0  502 -0.37286664680E+01  0.58923461558E+02  0.23846030145E+02  0.63848260972E+02  0.47000000000E+01 0.  1.
         13    1    6    6    0    0 -0.68456484531E+02  0.43344547235E+02  0.24238292921E+03  0.25556706443E+03  0.00000000000E+00 0. -1.
        -14    1    6    6    0    0  0.17442847689E+02  0.41393067862E+02  0.16786608895E+03  0.17377187005E+03  0.00000000000E+00 0.  1.
</event>
<event>
12    1  0.8747122E-002  0.1787183E+03  0.7818608E-02  0.1169182E+00
         21   -1    0    0  501  502  0.00000000000E+00  0.00000000000E+00  0.43681788323E+02  0.43681788323E+02  0.00000000000E+00 0. -1.
         21   -1    0    0  502  503 -0.00000000000E+00 -0.00000000000E+00 -0.93539648713E+03  0.93539648713E+03  0.00000000000E+00 0.  1.
         -6    2    1    2    0  503 -0.22006316557E+02 -0.41560149165E+02 -0.67529231364E+03  0.69840252062E+03  0.17185705681E+03 0.  0.
        -24    2    3    3    0    0  0.50012528565E+02 -0.29932857745E+02 -0.47036491327E+03  0.48082670077E+03  0.80956380562E+02 0.  0.
          6    2    1    2  501    0  0.22006316557E+02  0.41560149165E+02 -0.21642238517E+03  0.28067575484E+03  0.17242014553E+03 0.  0.
         24    2    5    5    0    0 -0.27421305638E+02 -0.33771511053E+02 -0.85921730493E+02  0.12202374654E+03  0.74932022438E+02 0.  0.
          5    1    5    5  501    0  0.49427622195E+02  0.75331660218E+02 -0.13050065468E+03  0.15865200830E+03  0.47000000000E+01 0. -1.
        -13    1    6    6    0    0 -0.49473062754E+02 -0.64104404685E+01 -0.38576461505E+02  0.63062041416E+02  0.00000000000E+00 0.  1.
         14    1    6    6    0    0  0.22051757116E+02 -0.27361070585E+02 -0.47345268988E+02  0.58961705123E+02  0.00000000000E+00 0. -1.
         -5    1    3    3    0  503 -0.72018845122E+02 -0.11627291420E+02 -0.20492740037E+03  0.21757581985E+03  0.47000000000E+01 0.  1.
         11    1    4    4    0    0  0.39094864539E+02  0.15666236837E+02 -0.11670477626E+03  0.12407193160E+03  0.00000000000E+00 0. -1.
        -12    1    4    4    0    0  0.10917664025E+02 -0.45599094583E+02 -0.35366013700E+03  0.35675476916E+03  0.00000000000E+00 0.  1.
</event>
<event>
12    1  0.8747122E-002  0.2469187E+03  0.7818608E-02  0.1115433E+00
         21   -1    0    0  503  502  0.00000000000E+00  0.00000000000E+00  0.99940617555E+03  0.99940617555E+03  0.00000000000E+00 0. -1.
         21   -1    0    0  501  503 -0.00000000000E+00 -0.00000000000E+00 -0.11474403685E+03  0.11474403685E+03  0.00000000000E+00 0.  1.
          6    2    1    2  501    0  0.15834945199E+03 -0.79450504745E+02  0.60686664187E+02  0.25426699899E+03  0.17199390662E+03 0.  0.
         24    2    3    3    0    0  0.18129550651E+03 -0.62231795573E+02  0.78395541507E+02  0.22022732068E+03  0.74922325009E+02 0.  0.
         -6    2    1    2    0  502 -0.15834945199E+03  0.79450504745E+02  0.82397547452E+03  0.85988321341E+03  0.17051869825E+03 0.  0.
        -24    2    5    5    0    0 -0.17414589722E+03  0.85893575844E+02  0.81276963033E+03  0.83893800415E+03  0.74283261425E+02 0.  0.
          5    1    3    3  501    0 -0.22946054517E+02 -0.17218709173E+02 -0.17708877320E+02  0.34039678309E+02  0.47000000000E+01 0. -1.
        -11    1    4    4    0    0  0.82593355686E+02 -0.34141983804E+02 -0.27283912278E+01  0.89413542488E+02  0.00000000000E+00 0.  1.
         12    1    4    4    0    0  0.98702150822E+02 -0.28089811769E+02  0.81123932735E+02  0.13081377819E+03  0.00000000000E+00 0. -1.
         -5    1    5    5    0  502  0.15796445231E+02 -0.64430710994E+01  0.11205844187E+02  0.20945209263E+02  0.47000000000E+01 0.  1.
         13    1    6    6    0    0 -0.13875320145E+03  0.39830212647E+02  0.65742666338E+03  0.67308893504E+03  0.00000000000E+00 0. -1.
        -14    1    6    6    0    0 -0.35392695776E+02  0.46063363198E+02  0.15534296696E+03  0.16584906912E+03  0.00000000000E+00 0.  1.
</event>
<event>
12    1  0.8747122E-002  0.1816285E+03  0.7818608E-02  0.1167177E+00
         21   -1    0    0  501  502  0.00000000000E+00  0.00000000000E+00  0.15693580054E+02  0.15693580054E+02  0.00000000000E+00 0. -1.
         21   -1    0    0  502  503 -0.00000000000E+00 -0.00000000000E+00 -0.21310433404E+04  0.21310433404E+04  0.00000000000E+00 0. -1.
         -6    2    1    2    0  503  0.39016281318E+02 -0.56518556385E+02 -0.86908200472E+03  0.88785835524E+03  0.16814372012E+03 0.  0.
        -24    2    3    3    0    0 -0.27627154772E+02 -0.10911426214E+02 -0.27050318921E+03  0.28383844971E+03  0.80684392906E+02 0.  0.
          6    2    1    2  501    0 -0.39016281318E+02  0.56518556385E+02 -0.12462677556E+04  0.12588785652E+04  0.16393689585E+03 0.  0.
         24    2    5    5    0    0  0.18135186303E+02  0.73048131369E+02 -0.72897176186E+03  0.73815142720E+03  0.88333376521E+02 0.  0.
          5    1    5    5  501    0 -0.57151467621E+02 -0.16529574985E+02 -0.51729599378E+03  0.52072713803E+03  0.47000000000E+01 0. -1.
        -11    1    6    6    0    0 -0.28294763859E+02  0.60187882378E+02 -0.36563470144E+03  0.37163410735E+03  0.00000000000E+00 0.  1.
         12    1    6    6    0    0  0.46429950162E+02  0.12860248991E+02 -0.36333706043E+03  0.36651731986E+03  0.00000000000E+00 0. -1.
         -5    1    3    3    0  503  0.66643436090E+02 -0.45607130170E+02 -0.59857881551E+03  0.60401990553E+03  0.47000000000E+01 0.  1.
         13    1    4    4    0    0  0.22059189422E+02  0.87387462141E+01 -0.15207727772E+03  0.15391709432E+03  0.00000000000E+00 0. -1.
        -14    1    4    4    0    0 -0.49686344194E+02 -0.19650172428E+02 -0.11842591149E+03  0.12992135539E+03  0.00000000000E+00 0.  1.
</event>
<event>
12    1  0.8747122E-002  0.2369548E+03  0.7818608E-02  0.1123191E+00
         21   -1    0    0  503  502  0.00000000000E+00  0.00000000000E+00  0.19598205416E+03  0.19598205416E+03  0.00000000000E+00 0. -1.
         21   -1    0    0  501  503 -0.00000000000E+00 -0.00000000000E+00 -0.27978952131E+03  0.27978952131E+03  0.00000000000E+00 0.  1.
          6    2    1    2  501    0  0.38682826307E+02  0.14632510374E+03 -0.65980089487E+02  0.24596944201E+03  0.18231894350E+03 0.  0.
         24    2    3    3    0    0  0.41567036641E+02  0.84709857091E+02 -0.11543501195E+03  0.16676946319E+03  0.74721037506E+02 0.  0.
         -6    2    1    2    0  502 -0.38682826307E+02 -0.14632510374E+03 -0.17827377671E+02  0.22980213346E+03  0.17199944219E+03 0.  0.
        -24    2    5    5    0    0 -0.16320718973E+02 -0.16178133607E+03 -0.49056656195E+02  0.18813299861E+03  0.80919114436E+02 0.  0.
          5    1    3    3  501    0 -0.28842103338E+01  0.61615246650E+02  0.49454922462E+02  0.79199978817E+02  0.47000000000E+01 0. -1.
        -11    1    4    4    0    0  0.10915251111E+02  0.76797689294E+02 -0.45317668065E+02  0.89837179534E+02  0.00000000000E+00 0.  1.
         12    1    4    4    0    0  0.30651785530E+02  0.79121677971E+01 -0.70117343884E+02  0.76932283657E+02  0.00000000000E+00 0. -1.
         -5    1    5    5    0  502 -0.22362107334E+02  0.15456232327E+02  0.31229278524E+02  0.41669134852E+02  0.47000000000E+01 0.  1.
         11    1    6    6    0    0 -0.41764914389E+02 -0.14536661841E+03 -0.38555706216E+02  0.15608428590E+03  0.00000000000E+00 0. -1.
        -12    1    6    6    0    0  0.25444195415E+02 -0.16414717657E+02 -0.10500949979E+02  0.32048712713E+02  0.00000000000E+00 0.  1.
</event>
<event>
12    1  0.8747122E-002  0.1839724E+03  0.7818608E-02  0.1164122E+00
         21   -1    0    0  503  502  0.00000000000E+00  0.00000000000E+00  0.12709370118E+04  0.12709370118E+04  0.00000000000E+00 0. -1.
         21   -1    0    0  501  503 -0.00000000000E+00 -0.00000000000E+00 -0.41165610950E+02  0.41165610950E+02  0.00000000000E+00 0. -1.
          6    2    1    2  501    0 -0.59743003048E+02 -0.23103909178E+02  0.22366083258E+03  0.28931021547E+03  0.17196864747E+03 0.  0.
         24    2    3    3    0    0 -0.10541857145E+03 -0.17651749435E+02  0.18925879013E+03  0.23167711630E+03  0.80191876837E+02 0.  0.
         -6    2    1    2    0  502  0.59743003048E+02  0.23103909178E+02  0.10061105683E+04  0.10227924073E+04  0.17246105582E+03 0.  0.
        -24    2    5    5    0    0  0.15603097292E+02  0.57521472776E+02  0.86800890861E+03  0.87370498875E+03  0.79804545356E+02 0.  0.
          5    1    3    3  501    0  0.45675568404E+02 -0.54521597435E+01  0.34402042444E+02  0.57633099164E+02  0.47000000000E+01 0. -1.
        -11    1    4    4    0    0 -0.41931786889E+02 -0.37294277762E+02  0.13390184670E+03  0.14518554492E+03  0.00000000000E+00 0.  1.
         12    1    4    4    0    0 -0.63486784562E+02  0.19642528327E+02  0.55356943432E+02  0.86491571377E+02  0.00000000000E+00 0. -1.
         -5    1    5    5    0  502  0.44139905756E+02 -0.34417563598E+02  0.13810165966E+03  0.14908741854E+03  0.47000000000E+01 0.  1.
         13    1    6    6    0    0  0.43752360950E+02  0.18486903942E+02  0.30911593221E+03  0.31274381569E+03  0.00000000000E+00 0. -1.
        -14    1    6    6    0    0 -0.28149263658E+02  0.39034568834E+02  0.55889297640E+03  0.56096117306E+03  0.00000000000E+00 0.  1.
</event>
<event>
12    1  0.8747122E-002  0.2961762E+03  0.7818608E-02  0.1087315E+00
         21   -1    0    0  501  502  0.00000000000E+00  0.00000000000E+00  0.22779699824E+04  0.22779699824E+04  0.00000000000E+00 0. -1.
         21   -1    0    0  502  503 -0.00000000000E+00 -0.00000000000E+00 -0.16284660027E+03  0.16284660027E+03  0.00000000000E+00 0.  1.
         -6    2    1    2    0  503  0.90187967723E+02 -0.22327868242E+03 -0.99671808126E+01  0.29518607969E+03  0.17043543470E+03 0.  0.
        -24    2    3    3    0    0  0.63144259570E+02 -0.17844341312E+03  0.54080696670E+02  0.21232605233E+03  0.79551125328E+02 0.  0.
          6    2    1    2  501    0 -0.90187967723E+02  0.22327868242E+03  0.21250905629E+04  0.21456305030E+04  0.17243292922E+03 0.  0.
         24    2    5    5    0    0 -0.10395647392E+03  0.89936647793E+02  0.12943932331E+04  0.13041735440E+04  0.80741822925E+02 0.  0.
          5    1    5    5  501    0  0.13768506200E+02  0.13334203463E+03  0.83069732985E+03  0.84145695896E+03  0.47000000000E+01 0. -1.
        -13    1    6    6    0    0 -0.77203357358E+02  0.14906777720E+02  0.56541662603E+03  0.57085771554E+03  0.00000000000E+00 0.  1.
         14    1    6    6    0    0 -0.26753116565E+02  0.75029870073E+02  0.72897660704E+03  0.73331582846E+03  0.00000000000E+00 0. -1.
         -5    1    3    3    0  503  0.27043708152E+02 -0.44835269301E+02 -0.64047877483E+02  0.82860027359E+02  0.47000000000E+01 0.  1.
         13    1    4    4    0    0  0.36876807548E+02 -0.17384796120E+03  0.39966305513E+02  0.18215465442E+03  0.00000000000E+00 0. -1.
        -14    1    4    4    0    0  0.26267452023E+02 -0.45954519194E+01  0.14114391157E+02  0.30171397910E+02  0.00000000000E+00 0.  1.
</event>
<event>
12    1  0.8747122E-002  0.1812862E+03  0.7818608E-02  0.1166797E+00
         21   -1    0    0  503  502  0.00000000000E+00  0.00000000000E+00  0.53319746880E+03  0.53319746880E+03  0.00000000000E+00 0. -1.
         21   -1    0    0  501  503 -0.00000000000E+00 -0.00000000000E+00 -0.16414667839E+03  0.16414667839E+03  0.00000000000E+00 0.  1.
          6    2    1    2  501    0 -0.37698476752E+02 -0.34752107129E+02 -0.91270828274E+02  0.20296560713E+03  0.17388441415E+03 0.  0.
         24    2    3    3    0    0  0.23697447986E+02 -0.63187169819E+02 -0.87021061718E+02  0.13500854068E+03  0.78105399322E+02 0.  0.
         -6    2    1    2    0  502  0.37698476752E+02  0.34752107129E+02  0.46032161868E+03  0.49437854006E+03  0.17287354958E+03 0.  0.
        -24    2    5    5    0    0  0.52578703500E+02  0.19847323281E+02  0.46172652050E+03  0.47275361281E+03  0.84534977306E+02 0.  0.
          5    1    3    3  501    0 -0.61395924738E+02  0.28435062691E+02 -0.42497665564E+01  0.67957066450E+02  0.47000000000E+01 0. -1.
        -11    1    4    4    0    0  0.32010558134E+02 -0.57567831411E+02 -0.22340830673E+02  0.69554609916E+02  0.00000000000E+00 0.  1.
         12    1    4    4    0    0 -0.83131101474E+01 -0.56193384084E+01 -0.64680231045E+02  0.65453930764E+02  0.00000000000E+00 0. -1.
         -5    1    5    5    0  502 -0.14880226748E+02  0.14904783848E+02 -0.14049018135E+01  0.21624927254E+02  0.47000000000E+01 0.  1.
         13    1    6    6    0    0 -0.10063468449E+02 -0.72810623190E+01  0.24970170207E+03  0.25001045435E+03  0.00000000000E+00 0. -1.
        -14    1    6    6    0    0  0.62642171949E+02  0.27128385600E+02  0.21202481842E+03  0.22274315846E+03  0.00000000000E+00 0.  1.
</event>
<event>
12    1  0.8747122E-002  0.1828531E+03  0.7818608E-02  0.1167416E+00
         21   -1    0    0  501  502  0.00000000000E+00  0.00000000000E+00  0.17632284506E+03  0.17632284506E+03  0.00000000000E+00 0. -1.
         21   -1    0    0  502  503 -0.00000000000E+00 -0.00000000000E+00 -0.20541931578E+03  0.20541931578E+03  0.00000000000E+00 0. -1.
         -6    2    1    2    0  503 -0.14604914484E+02 -0.74080713476E+01 -0.81609224721E+02  0.19149803219E+03  0.17246230813E+03 0.  0.
        -24    2    3    3    0    0 -0.25717319047E+02 -0.18481465057E+02  0.19637291615E+02  0.88935599234E+02  0.80752538904E+02 0.  0.
          6    2    1    2  501    0  0.14604914484E+02  0.74080713476E+01  0.52512754004E+02  0.19024412865E+03  0.18211824759E+03 0.  0.
         24    2    5    5    0    0 -0.43319452761E+02  0.29792931484E+02 -0.15783100364E+02  0.97817249404E+02  0.80962425050E+02 0.  0.
          5    1    5    5  501    0  0.57924367245E+02 -0.22384860136E+02  0.68295854367E+02  0.92426879250E+02  0.47000000000E+01 0. -1.
        -13    1    6    6    0    0  0.68835438173E+01  0.39506632408E+02  0.88381995324E+01  0.41064229576E+02  0.00000000000E+00 0.  1.
         14    1    6    6    0    0 -0.50202996578E+02 -0.97137009237E+01 -0.24621299896E+02  0.56753019828E+02  0.00000000000E+00 0. -1.
         -5    1    3    3    0  503  0.11112404563E+02  0.11073393710E+02 -0.10124651634E+03  0.10256243295E+03  0.47000000000E+01 0.  1.
         11    1    4    4    0    0 -0.22025365592E+02  0.26792509121E+02 -0.82269646120E+01  0.35646012697E+02  0.00000000000E+00 0. -1.
        -12    1    4    4    0    0 -0.36919534550E+01 -0.45273974178E+02  0.27864256227E+02  0.53289586537E+02  0.00000000000E+00 0.  1.
</event>
<event>
12    1  0.8747122E-002  0.1980673E+03  0.7818608E-02  0.1151828E+00
         21   -1    0    0  501  502  0.00000000000E+00  0.00000000000E+00  0.32065000053E+03  0.32065000053E+03  0.00000000000E+00 0. -1.
         21   -1    0    0  502  503 -0.00000000000E+00 -0.00000000000E+00 -0.13990769307E+03  0.13990769307E+03  0.00000000000E+00 0. -1.
         -6    2    1    2    0  503  0.34723597257E+00 -0.97570970130E+02  0.54428932034E+01  0.19605712999E+03  0.16996634475E+03 0.  0.
        -24    2    3    3    0    0  0.13688841517E+01 -0.13117388503E+03 -0.15150473068E+02  0.15635352324E+03  0.83716339142E+02 0.  0.
          6    2    1    2  501    0 -0.34723597257E+00  0.97570970130E+02  0.17529941425E+03  0.26450056361E+03  0.17236719157E+03 0.  0.
         24    2    5    5    0    0  0.10014406936E+02  0.99431451172E+02  0.48323062717E+02  0.13700190134E+03  0.80296330866E+02 0.  0.
          5    1    5    5  501    0 -0.10361642908E+02 -0.18604810419E+01  0.12697635154E+03  0.12749866228E+03  0.47000000000E+01 0. -1.
        -11    1    6    6    0    0 -0.55173206246E+01  0.19218166262E+02 -0.21621130555E+02  0.29449143074E+02  0.00000000000E+00 0.  1.
         12    1    6    6    0    0  0.15531727561E+02  0.80213284910E+02  0.69944193272E+02  0.10755275826E+03  0.00000000000E+00 0. -1.
         -5    1    3    3    0  503 -0.10216481791E+01  0.33602914895E+02  0.20593366271E+02  0.39703606748E+02  0.47000000000E+01 0.  1.
         11    1    4    4    0    0 -0.28880986012E+02 -0.32459473379E+02  0.19259114234E+02  0.47525174867E+02  0.00000000000E+00 0. -1.
        -12    1    4    4    0    0  0.30249870164E+02 -0.98714411646E+02 -0.34409587302E+02  0.10882834837E+03  0.00000000000E+00 0.  1.
</event>
<event>
12    1  0.8747122E-002  0.2184820E+03  0.7818608E-02  0.1135042E+00
         21   -1    0    0  503  502  0.00000000000E+00  0.00000000000E+00  0.34294495459E+03  0.34294495459E+03  0.00000000000E+00 0. -1.
         21   -1    0    0  501  503 -0.00000000000E+00 -0.00000000000E+00 -0.20159086676E+03  0.20159086676E+03  0.00000000000E+00 0.  1.
          6    2    1    2  501    0 -0.11108657513E+03 -0.75151141969E+02 -0.80882343883E+02  0.23297283497E+03  0.17247164106E+03 0.  0.
         24    2    3    3    0    0 -0.23985083406E+02  0.93898820225E+01 -0.86056123374E+02  0.11138865593E+03  0.65865941047E+02 0.  0.
         -6    2    1    2    0  502  0.11108657513E+03  0.75151141969E+02  0.22223643172E+03  0.31156298638E+03  0.17232104220E+03 0.  0.
        -24    2    5    5    0    0  0.82620737481E+02 -0.19934526503E+02  0.14524690422E+03  0.18586069679E+03  0.78892102391E+02 0.  0.
          5    1    3    3  501    0 -0.87101491721E+02 -0.84541023992E+02  0.51737794908E+01  0.12158417904E+03  0.47000000000E+01 0. -1.
        -11    1    4    4    0    0 -0.41657819539E+02 -0.91887137876E+01 -0.38999695597E+02  0.57799503861E+02  0.00000000000E+00 0.  1.
         12    1    4    4    0    0  0.17672736133E+02  0.18578595810E+02 -0.47056427777E+02  0.53589152072E+02  0.00000000000E+00 0. -1.
         -5    1    5    5    0  502  0.28465837647E+02  0.95085668472E+02  0.76989527504E+02  0.12570228959E+03  0.47000000000E+01 0.  1.
         13    1    6    6    0    0  0.64811436489E+02  0.51501640287E+01  0.14039254147E+03  0.15471623118E+03  0.00000000000E+00 0. -1.
        -14    1    6    6    0    0  0.17809300991E+02 -0.25084690532E+02  0.48543627462E+01  0.31144465616E+02  0.00000000000E+00 0.  1.
</event>
<event>
12    1  0.8747122E-002  0.2820388E+03  0.7818608E-02  0.1094584E+00
         21   -1    0    0  503  502  0.00000000000E+00  0.00000000000E+00  0.93010374860E+03  0.93010374860E+03  0.00000000000E+00 0.  1.
         21   -1    0    0  501  503 -0.00000000000E+00 -0.00000000000E+00 -0.16038724002E+03  0.16038724002E+03  0.00000000000E+00 0.  1.
          6    2    1    2  501    0  0.20040617126E+03  0.99633007817E+02  0.12335187007E+02  0.28230845361E+03  0.17162906635E+03 0.  0.
         24    2    3    3    0    0  0.15534372345E+03  0.13367922350E+03 -0.12002870844E+02  0.22063025596E+03  0.80819760755E+02 0.  0.
         -6    2    1    2    0  502 -0.20040617126E+03 -0.99633007817E+02  0.75738132157E+03  0.80818253500E+03  0.17159013342E+03 0.  0.
        -24    2    5    5    0    0 -0.11639374303E+03 -0.12574007813E+03  0.44605207820E+03  0.48462781784E+03  0.80892488488E+02 0.  0.
          5    1    3    3  501    0  0.45062447814E+02 -0.34046215683E+02  0.24338057851E+02  0.61678197649E+02  0.47000000000E+01 0. -1.
        -13    1    4    4    0    0  0.16205071853E+03  0.13707344761E+03 -0.87204743839E+01  0.21242789857E+03  0.00000000000E+00 0.  1.
         14    1    4    4    0    0 -0.67069950867E+01 -0.33942241053E+01 -0.32823964601E+01  0.82023573984E+01  0.00000000000E+00 0. -1.
         -5    1    5    5    0  502 -0.84012428232E+02  0.26107070311E+02  0.31132924338E+03  0.32355471716E+03  0.47000000000E+01 0.  1.
         13    1    6    6    0    0 -0.24371567278E+02 -0.69618779625E+02  0.25289696772E+03  0.26343428791E+03  0.00000000000E+00 0. -1.
        -14    1    6    6    0    0 -0.92022175751E+02 -0.56121298503E+02  0.19315511048E+03  0.22119352992E+03  0.00000000000E+00 0.  1.
</event>
<event>
12    1  0.8747122E-002  0.1743529E+03  0.7818608E-02  0.1173628E+00
         21   -1    0    0  501  502  0.00000000000E+00  0.00000000000E+00  0.61709403647E+03  0.61709403647E+03  0.00000000000E+00 0.  1.
         21   -1    0    0  502  503 -0.00000000000E+00 -0.00000000000E+00 -0.48999633289E+02  0.48999633289E+02  0.00000000000E+00 0.  1.
         -6    2    1    2    0  503  0.86931242640E+01 -0.20812716406E+02  0.27964291996E+03  0.32954376189E+03  0.17288779235E+03 0.  0.
        -24    2    3    3    0    0  0.25435540097E+00  0.53291690204E+02  0.11872783593E+03  0.15212214492E+03  0.78770419635E+02 0.  0.
          6    2    1    2  501    0 -0.86931242640E+01  0.20812716406E+02  0.28845148322E+03  0.33654990787E+03  0.17190940271E+03 0.  0.
         24    2    5    5    0    0 -0.55454676731E+02  0.48635963407E+02  0.24066980180E+03  0.26398300810E+03  0.79526077227E+02 0.  0.
          5    1    5    5  501    0  0.46761552467E+02 -0.27823247001E+02  0.47781681423E+02  0.72566899771E+02  0.47000000000E+01 0. -1.
        -13    1    6    6    0    0 -0.24053152413E+02  0.67580043996E+02  0.16338483578E+03  0.17843828359E+03  0.00000000000E+00 0.  1.
         14    1    6    6    0    0 -0.31401524318E+02 -0.18944080589E+02  0.77284966020E+02  0.85544724511E+02  0.00000000000E+00 0. -1.
         -5    1    3    3    0  503  0.84387688631E+01 -0.74104406610E+02  0.16091508403E+03  0.17742161697E+03  0.47000000000E+01 0.  1.
         11    1    4    4    0    0 -0.51739119566E+01 -0.25737552629E+00 -0.10733379793E+02  0.11918097536E+02  0.00000000000E+00 0. -1.
        -12    1    4    4    0    0  0.54282673575E+01  0.53549065731E+02  0.12946121572E+03  0.14020404739E+03  0.00000000000E+00 0.  1.
</event>
<event>
12    1  0.8747122E-002  0.2252351E+03  0.7818608E-02  0.1130214E+00
         21   -1    0    0  503  502  0.00000000000E+00  0.00000000000E+00  0.16453810615E+03  0.16453810615E+03  0.00000000000E+00 0. -1.
         21   -1    0    0  501  503 -0.00000000000E+00 -0.00000000000E+00 -0.35717015585E+03  0.35717015585E+03  0.00000000000E+00 0.  1.
          6    2    1    2  501    0 -0.83927168529E+02 -0.11937502348E+03 -0.19390011299E+03  0.29646956221E+03  0.17030203067E+03 0.  0.
         24    2    3    3    0    0 -0.63306790026E+02 -0.25987398499E+02 -0.16611490716E+03  0.19676722436E+03  0.80250131834E+02 0.  0.
         -6    2    1    2    0  502  0.83927168529E+02  0.11937502348E+03  0.12680632935E+01  0.22523869979E+03  0.17157126231E+03 0.  0.
        -24    2    5    5    0    0  0.35893459015E+02  0.14627185337E+03 -0.54225818734E+01  0.16958322890E+03  0.77751344934E+02 0.  0.
          5    1    3    3  501    0 -0.20620378502E+02 -0.93387624979E+02 -0.27785205837E+02  0.99702337847E+02  0.47000000000E+01 0. -1.
        -13    1    4    4    0    0 -0.50671795747E+02 -0.50170227700E+02 -0.83715941958E+02  0.10996836622E+03  0.00000000000E+00 0.  1.
         14    1    4    4    0    0 -0.12634994279E+02  0.24182829201E+02 -0.82398965198E+02  0.86798858139E+02  0.00000000000E+00 0. -1.
         -5    1    5    5    0  502  0.48033709513E+02 -0.26896829895E+02  0.66906451669E+01  0.55655470897E+02  0.47000000000E+01 0.  1.
         11    1    6    6    0    0 -0.43926692303E+01  0.61642663791E+01  0.20193359274E+02  0.21565376921E+02  0.00000000000E+00 0. -1.
        -12    1    6    6    0    0  0.40286128245E+02  0.14010758699E+03 -0.25615941148E+02  0.14801785197E+03  0.00000000000E+00 0.  1.
</event>
<event>
12    1  0.8747122E-002  0.1919042E+03  0.7818608E-02  0.1160272E+00
         21   -1    0    0  503  502  0.00000000000E+00  0.00000000000E+00  0.98010474344E+03  0.98010474344E+03  0.00000000000E+00 0.  1.
         21   -1    0    0  501  503 -0.00000000000E+00 -0.00000000000E+00 -0.44932392250E+02  0.44932392250E+02  0.00000000000E+00 0.  1.
          6    2    1    2  501    0 -0.31974959071E+02 -0.30886870019E+02  0.72714157832E+03  0.75203862557E+03  0.18668375044E+03 0.  0.
         24    2    3    3    0    0  0.35005183748E+02  0.34885596768E+01  0.58157164674E+03  0.58808526428E+03  0.79882193450E+02 0.  0.
         -6    2    1    2    0  502  0.31974959071E+02  0.30886870019E+02  0.20803077287E+03  0.27299851012E+03  0.17109934927E+03 0.  0.
        -24    2    5    5    0    0  0.75369663332E+02  0.42586685996E+02  0.59303753210E+02  0.11755783839E+03  0.52997153195E+02 0.  0.
          5    1    3    3  501    0 -0.66980142819E+02 -0.34375429696E+02  0.14556993158E+03  0.16395336129E+03  0.47000000000E+01 0. -1.
        -11    1    4    4    0    0  0.44150962307E+02  0.73608786928E+01  0.15336120232E+03  0.15975965819E+03  0.00000000000E+00 0.  1.
         12    1    4    4    0    0 -0.91457785595E+01 -0.38723190160E+01  0.42821044442E+03  0.42832560609E+03  0.00000000000E+00 0. -1.
         -5    1    5    5    0  502 -0.43394704260E+02 -0.11699815977E+02  0.14872701966E+03  0.15544067173E+03  0.47000000000E+01 0.  1.
         13    1    6    6    0    0  0.13070324149E+02 -0.12162461042E+02  0.16104151226E+02  0.24043762573E+02  0.00000000000E+00 0. -1.
        -14    1    6    6    0    0  0.62299339182E+02  0.54749147037E+02  0.43199601984E+02  0.93514075814E+02  0.00000000000E+00 0.  1.
</event>
<event>
12    1  0.8747122E-002  0.1872637E+03  0.7818608E-02  0.1161291E+00
         21   -1    0    0  503  502  0.00000000000E+00  0.00000000000E+00  0.33310530599E+02  0.33310530599E+02  0.00000000000E+00 0.  1.
         21   -1    0    0  501  503 -0.00000000000E+00 -0.00000000000E+00 -0.10657570547E+04  0.10657570547E+04  0.00000000000E+00 0. -1.
          6    2    1    2  501    0 -0.70368324831E+02  0.18982162846E+02 -0.59577390538E+03  0.62451121476E+03  0.17249836920E+03 0.  0.
         24    2    3    3    0    0 -0.22794912042E+02  0.72832037830E+02 -0.41916329277E+03  0.43378513598E+03  0.81532597396E+02 0.  0.
         -6    2    1    2    0  502  0.70368324831E+02 -0.18982162846E+02 -0.43667261874E+03  0.47455637057E+03  0.17090567351E+03 0.  0.
        -24    2    5    5    0    0  0.11242512314E+03 -0.30657468902E+02 -0.36135945801E+03  0.38738269774E+03  0.76846651839E+02 0.  0.
          5    1    3    3  501    0 -0.47573412789E+02 -0.53849874984E+02 -0.17661061261E+03  0.19072607878E+03  0.47000000000E+01 0. -1.
        -13    1    4    4    0    0  0.14501372359E+02  0.37434353611E+01 -0.12198144800E+02  0.19315740865E+02  0.00000000000E+00 0.  1.
         14    1    4    4    0    0 -0.37296284401E+02  0.69088602469E+02 -0.40696514797E+03  0.41446939511E+03  0.00000000000E+00 0. -1.
         -5    1    5    5    0  502 -0.42056798306E+02  0.11675306056E+02 -0.75313160730E+02  0.87173672828E+02  0.47000000000E+01 0.  1.
         13    1    6    6    0    0  0.29895910635E+02 -0.46554360786E+02 -0.15406244341E+03  0.16369578629E+03  0.00000000000E+00 0. -1.
        -14    1    6    6    0    0  0.82529212502E+02  0.15896891884E+02 -0.20729701460E+03  0.22368691144E+03  0.00000000000E+00 0.  1.
</event>
<event>
12    1  0.8747122E-002  0.2650029E+03  0.7818608E-02  0.1104389E+00
         21   -1    0    0  501  502  0.00000000000E+00  0.00000000000E+00  0.81235477663E+02  0.81235477663E+02  0.00000000000E+00 0.  1.
         21   -1    0    0  502  503 -0.00000000000E+00 -0.00000000000E+00 -0.89285198199E+03  0.89285198199E+03  0.00000000000E+00 0. -1.
         -6    2    1    2    0  503  0.16326222409E+03 -0.11690948810E+03 -0.50071791255E+03  0.56652002857E+03  0.17292811397E+03 0.  0.
        -24    2    3    3    0    0  0.11012501465E+02 -0.29164706219E+02 -0.14314903012E+03  0.16807715880E+03  0.82379798556E+02 0.  0.
          6    2    1    2  501    0 -0.16326222409E+03  0.11690948810E+03 -0.31089859178E+03  0.40756743108E+03  0.17067774983E+03 0.  0.
         24    2    5    5    0    0 -0.70708872511E+02  0.20236837108E+02 -0.67125645247E+02  0.12943245702E+03  0.82689990031E+02 0.  0.
          5    1    5    5  501    0 -0.92553351579E+02  0.96672650992E+02 -0.24377294653E+03  0.27813497406E+03  0.47000000000E+01 0. -1.
        -13    1    6    6    0    0 -0.25526312843E+02  0.84858546576E+00 -0.75369520788E+02  0.79579378035E+02  0.00000000000E+00 0.  1.
         14    1    6    6    0    0 -0.45182559668E+02  0.19388251643E+02  0.82438755406E+01  0.49853078980E+02  0.00000000000E+00 0. -1.
         -5    1    3    3    0  503  0.15224972262E+03 -0.87744781882E+02 -0.35756888243E+03  0.39844286977E+03  0.47000000000E+01 0.  1.
         11    1    4    4    0    0  0.21373768616E+02 -0.26699641341E+02 -0.15101337407E+03  0.15483781186E+03  0.00000000000E+00 0. -1.
        -12    1    4    4    0    0 -0.10361267151E+02 -0.24650648780E+01  0.78643439501E+01  0.13239346947E+02  0.00000000000E+00 0.  1.
</event>
<event>
12    1  0.8747122E-002  0.2093167E+03  0.7818608E-02  0.1142276E+00
         21   -1    0    0  501  502  0.00000000000E+00  0.00000000000E+00  0.11623476403E+03  0.11623476403E+03  0.00000000000E+00 0. -1.
         21   -1    0    0  502  503 -0.00000000000E+00 -0.00000000000E+00 -0.38928311838E+03  0.38928311838E+03  0.00000000000E+00 0. -1.
         -6    2    1    2    0  503 -0.30371163021E+02 -0.11555717856E+03 -0.18395486284E+03  0.27802911119E+03  0.17083596240E+03 0.  0.
        -24    2    3    3    0    0  0.23116300477E+02 -0.16346967324E+02 -0.12564005610E+03  0.15103981460E+03  0.78905102550E+02 0.  0.
          6    2    1    2  501    0  0.30371163021E+02  0.11555717856E+03 -0.89093491513E+02  0.22748877122E+03  0.17186512660E+03 0.  0.
         24    2    5    5    0    0  0.72760591788E+01  0.54731449684E+02 -0.12078394358E+03  0.15496616876E+03  0.79857872571E+02 0.  0.
          5    1    5    5  501    0  0.23095103843E+02  0.60825728874E+02  0.31690452069E+02  0.72522602456E+02  0.47000000000E+01 0. -1.
        -11    1    6    6    0    0  0.39872639908E+02  0.49587347954E+02 -0.72232211076E+02  0.96261232110E+02  0.00000000000E+00 0.  1.
         12    1    6    6    0    0 -0.32596580729E+02  0.51441017297E+01 -0.48551732506E+02  0.58704936651E+02  0.00000000000E+00 0. -1.
         -5    1    3    3    0  503 -0.53487463498E+02 -0.99210211234E+02 -0.58314806740E+02  0.12698929659E+03  0.47000000000E+01 0.  1.
         11    1    4    4    0    0 -0.15066736936E+02 -0.35579178901E+02 -0.77891617943E+02  0.86948195375E+02  0.00000000000E+00 0. -1.
        -12    1    4    4    0    0  0.38183037413E+02  0.19232211576E+02 -0.47748438159E+02  0.64091619225E+02  0.00000000000E+00 0.  1.
</event>
<event>
12    1  0.8747122E-002  0.2008915E+03  0.7818608E-02  0.1149044E+00
         21   -1    0    0  503  502  0.00000000000E+00  0.00000000000E+00  0.11709728891E+04  0.11709728891E+04  0.00000000000E+00 0.  1.
         21   -1    0    0  501  503 -0.00000000000E+00 -0.00000000000E+00 -0.77871605291E+02  0.77871605291E+02  0.00000000000E+00 0. -1.
          6    2    1    2  501    0 -0.96174945905E+02 -0.39428488483E+02  0.80272538032E+02  0.21633553483E+03  0.17191031773E+03 0.  0.
         24    2    3    3    0    0 -0.63835430150E+01 -0.73739740865E+00  0.80166400383E+02  0.11844989836E+03  0.86962252125E+02 0.  0.
         -6    2    1    2    0  502  0.96174945905E+02  0.39428488483E+02  0.10128287458E+04  0.10325089596E+04  0.17160552843E+03 0.  0.
        -24    2    5    5    0    0  0.11613395731E+03  0.20668682399E+02  0.45942653581E+03  0.47840933995E+03  0.62357551854E+02 0.  0.
          5    1    3    3  501    0 -0.89791402890E+02 -0.38691091075E+02  0.10613764936E+00  0.97885636467E+02  0.47000000000E+01 0. -1.
        -13    1    4    4    0    0 -0.45318719618E+01 -0.92870036595E+01  0.98022721638E+02  0.98565918338E+02  0.00000000000E+00 0.  1.
         14    1    4    4    0    0 -0.18516710533E+01  0.85496062509E+01 -0.17856321255E+02  0.19883980022E+02  0.00000000000E+00 0. -1.
         -5    1    5    5    0  502 -0.19959011405E+02  0.18759806084E+02  0.55340220998E+03  0.55409961962E+03  0.47000000000E+01 0.  1.
         11    1    6    6    0    0  0.93447035395E+02  0.41289710578E+02  0.37148861095E+03  0.38528038711E+03  0.00000000000E+00 0. -1.
        -12    1    6    6    0    0  0.22686921915E+02 -0.20621028179E+02  0.87937924856E+02  0.93128952840E+02  0.00000000000E+00 0.  1.
</event>
<event>
12    1  0.8747122E-002  0.2120308E+03  0.7818608E-02  0.1140132E+00
         21   -1    0    0  501  502  0.00000000000E+00  0.00000000000E+00  0.40582551182E+02  0.40582551182E+02  0.00000000000E+00 0.  1.
         21   -1    0    0  502  503 -0.00000000000E+00 -0.00000000000E+00 -0.11446227291E+04  0.11446227291E+04  0.00000000000E+00 0. -1.
         -6    2    1    2    0  503 -0.12047308394E+03  0.27153184840E+02 -0.43855218570E+03  0.48675604632E+03  0.17132533275E+03 0.  0.
        -24    2    3    3    0    0 -0.99824592028E+02 -0.37585260318E+02 -0.20348631314E+03  0.24202051366E+03  0.76089739334E+02 0.  0.
          6    2    1    2  501    0  0.12047308394E+03 -0.27153184840E+02 -0.66548799217E+03  0.69844923392E+03  0.17235430148E+03 0.  0.
         24    2    5    5    0    0  0.80672544332E+02  0.16457335653E+02 -0.22188107871E+03  0.25090577891E+03  0.83328227483E+02 0.  0.
          5    1    5    5  501    0  0.39800539612E+02 -0.43610520493E+02 -0.44360691346E+03  0.44754345501E+03  0.47000000000E+01 0. -1.
        -13    1    6    6    0    0  0.31785735016E+02 -0.25638270255E+02 -0.37050216495E+02  0.55139571947E+02  0.00000000000E+00 0.  1.
         14    1    6    6    0    0  0.48886809315E+02  0.42095605907E+02 -0.18483086222E+03  0.19576620697E+03  0.00000000000E+00 0. -1.
         -5    1    3    3    0  503 -0.20648491916E+02  0.64738445159E+02 -0.23506587257E+03  0.24473553266E+03  0.47000000000E+01 0.  1.
         11    1    4    4    0    0 -0.67199900244E+01  0.16782422264E+02 -0.10356882127E+02  0.20834417928E+02  0.00000000000E+00 0. -1.
        -12    1    4    4    0    0 -0.93104602003E+02 -0.54367682583E+02 -0.19312943101E+03  0.22118609573E+03  0.00000000000E+00 0.  1.
</event>
<event>
12    1  0.8747122E-002  0.2143381E+03  0.7818608E-02  0.1138518E+00
         21   -1    0    0  503  502  0.00000000000E+00  0.00000000000E+00  0.32100668528E+03  0.32100668528E+03  0.00000000000E+00 0. -1.
         21   -1    0    0  501  503 -0.00000000000E+00 -0.00000000000E+00 -0.17170507237E+03  0.17170507237E+03  0.00000000000E+00 0.  1.
          6    2    1    2  501    0  0.12375450177E+03 -0.21316842707E+02 -0.27667908012E+02  0.21611647653E+03  0.17369868682E+03 0.  0.
         24    2    3    3    0    0  0.12844779471E+03 -0.65388191980E+02 -0.40496972212E+02  0.16973775605E+03  0.79977805998E+02 0.  0.
         -6    2    1    2    0  502 -0.12375450177E+03  0.21316842707E+02  0.17696952093E+03  0.27659528112E+03  0.17151429593E+03 0.  0.
        -24    2    5    5    0    0 -0.77870372807E+02 -0.54652491212E+02  0.11723508305E+03  0.16951126712E+03  0.77066952869E+02 0.  0.
          5    1    3    3  501    0 -0.46932929449E+01  0.44071349273E+02  0.12829064200E+02  0.46378720483E+02  0.47000000000E+01 0. -1.
        -11    1    4    4    0    0  0.90013088572E+02 -0.21205360486E+02 -0.57329745474E+02  0.10880589664E+03  0.00000000000E+00 0.  1.
         12    1    4    4    0    0  0.38434706140E+02 -0.44182831494E+02  0.16832773262E+02  0.60931859405E+02  0.00000000000E+00 0. -1.
         -5    1    5    5    0  502 -0.45884128959E+02  0.75969333919E+02  0.59734437871E+02  0.10708401400E+03  0.47000000000E+01 0.  1.
         13    1    6    6    0    0 -0.39325786467E+02 -0.63515002219E+02  0.45147010745E+02  0.87286456952E+02  0.00000000000E+00 0. -1.
        -14    1    6    6    0    0 -0.38544586341E+02  0.88625110066E+01  0.72088072310E+02  0.82224810166E+02  0.00000000000E+00 0.  1.
</event>
<event>
12    1  0.8747122E-002  0.2628958E+03  0.7818608E-02  0.1105443E+00
         21   -1    0    0  503  502  0.00000000000E+00  0.00000000000E+00  0.89494517633E+02  0.89494517633E+02  0.00000000000E+00 0.  1.
         21   -1    0    0  501  503 -0.00000000000E+00 -0.00000000000E+00 -0.15793947511E+04  0.15793947511E+04  0.00000000000E+00 0. -1.
          6    2    1    2  501    0  0.67133571461E+02  0.18623188344E+03 -0.13415384757E+04  0.13670193924E+04  0.17270583831E+03 0.  0.
         24    2    3    3    0    0 -0.27874705248E+02  0.97985285784E+02 -0.54349770940E+03  0.55849902202E+03  0.78442858518E+02 0.  0.
         -6    2    1    2    0  502 -0.67133571461E+02 -0.18623188344E+03 -0.14836175779E+03  0.30186987636E+03  0.17298838183E+03 0.  0.
        -24    2    5    5    0    0 -0.52348002207E+02 -0.27125859976E+02 -0.84670043319E+02  0.12978831356E+03  0.78739218228E+02 0.  0.
          5    1    3    3  501    0  0.95008276709E+02  0.88246597660E+02 -0.79804076631E+03  0.80852037039E+03  0.47000000000E+01 0. -1.
        -11    1    4    4    0    0  0.15787668434E+02  0.61946113096E+01 -0.18775953572E+03  0.18852391609E+03  0.00000000000E+00 0.  1.
         12    1    4    4    0    0 -0.43662373682E+02  0.91790674475E+02 -0.35573817368E+03  0.36997510594E+03  0.00000000000E+00 0. -1.
         -5    1    5    5    0  502 -0.14785569254E+02 -0.15910602347E+03 -0.63691714475E+02  0.17208156280E+03  0.47000000000E+01 0.  1.
         13    1    6    6    0    0 -0.52581735082E+02 -0.40304021781E+02 -0.93008349245E+02  0.11419197023E+03  0.00000000000E+00 0. -1.
        -14    1    6    6    0    0  0.23373287440E+00  0.13178161805E+02  0.83383059259E+01  0.15596343332E+02  0.00000000000E+00 0.  1.
</event>
<event>
12    1  0.8747122E-002  0.2005835E+03  0.7818608E-02  0.1149412E+00
         21   -1    0    0  501  502  0.00000000000E+00  0.00000000000E+00  0.28497266168E+03  0.28497266168E+03  0.00000000000E+00 0. -1.
         21   -1    0    0  502  503 -0.00000000000E+00 -0.00000000000E+00 -0.14067762803E+03  0.14067762803E+03  0.00000000000E+00 0. -1.
         -6    2    1    2    0  503 -0.10101290992E+03 -0.19244357496E+02  0.75985272928E+02  0.21449356042E+03  0.17222012802E+03 0.  0.
        -24    2    3    3    0    0 -0.12913260115E+03 -0.46916179583E+02  0.71967353372E+02  0.17456011016E+03  0.80097287856E+02 0.  0.
          6    2    1    2  501    0  0.10101290992E+03  0.19244357496E+02  0.68309760730E+02  0.21115672929E+03  0.17130962508E+03 0.  0.
         24    2    5    5    0    0  0.65801887831E+02 -0.20265482602E+02 -0.11365802444E+02  0.11539071805E+03  0.91898085505E+02 0.  0.
          5    1    5    5  501    0  0.35211022086E+02  0.39509840099E+02  0.79675563174E+02  0.95766011236E+02  0.47000000000E+01 0. -1.
        -11    1    6    6    0    0 -0.20333917937E+02  0.55705937604E+01 -0.14199504012E+02  0.25419001706E+02  0.00000000000E+00 0.  1.
         12    1    6    6    0    0  0.86135805768E+02 -0.25836076362E+02  0.28337015681E+01  0.89971716343E+02  0.00000000000E+00 0. -1.
         -5    1    3    3    0  503  0.28119691230E+02  0.27671822087E+02  0.40179195557E+01  0.39933450265E+02  0.47000000000E+01 0.  1.
         13    1    4    4    0    0 -0.38103254638E+02 -0.15629484335E+02  0.66410355208E+02  0.78143931776E+02  0.00000000000E+00 0. -1.
        -14    1    4    4    0    0 -0.91029346509E+02 -0.31286695249E+02  0.55569981638E+01  0.96416178383E+02  0.00000000000E+00 0.  1.
</event>
<event>
12    1  0.8747122E-002  0.1805747E+03  0.7818608E-02  0.1167273E+00
         21   -1    0    0  503  502  0.00000000000E+00  0.00000000000E+00  0.11687301948E+03  0.11687301948E+03  0.00000000000E+00 0.  1.
         21   -1    0    0  501  503 -0.00000000000E+00 -0.00000000000E+00 -0.28592132210E+03  0.28592132210E+03  0.00000000000E+00 0.  1.
          6    2    1    2  501    0  0.54630082911E+02  0.16060762217E+02 -0.11624958654E+03  0.21475846405E+03  0.17136171529E+03 0.  0.
         24    2    3    3    0    0  0.40549951110E+01  0.74709950517E+01 -0.13747134894E+03  0.15904422166E+03  0.79526309550E+02 0.  0.
         -6    2    1    2    0  502 -0.54630082911E+02 -0.16060762217E+02 -0.52798716074E+02  0.18803587753E+03  0.17125242415E+03 0.  0.
        -24    2    5    5    0    0 -0.72637927837E+01  0.23998988951E+02  0.32066990932E+02  0.82809325134E+02  0.72113648261E+02 0.  0.
          5    1    3    3  501    0  0.50575087800E+02  0.85897671648E+01  0.21221762400E+02  0.55714242391E+02  0.47000000000E+01 0. -1.
        -13    1    4    4    0    0  0.13416423266E+02  0.22062567683E+02 -0.13924351600E+03  0.14161749205E+03  0.00000000000E+00 0.  1.
         14    1    4    4    0    0 -0.93614281553E+01 -0.14591572632E+02  0.17721670536E+01  0.17426729614E+02  0.00000000000E+00 0. -1.
         -5    1    5    5    0  502 -0.47366290127E+02 -0.40059751168E+02 -0.84865707005E+02  0.10522655240E+03  0.47000000000E+01 0.  1.
         11    1    6    6    0    0  0.29552466631E+02  0.25991122396E+02  0.18897766348E+02  0.43657900778E+02  0.00000000000E+00 0. -1.
        -12    1    6    6    0    0 -0.36816259415E+02 -0.19921334454E+01  0.13169224583E+02  0.39151424356E+02  0.00000000000E+00 0.  1.
</event>
<event>
12    1  0.8747122E-002  0.1953777E+03  0.7818608E-02  0.1154426E+00
         21   -1    0    0  503  502  0.00000000000E+00  0.00000000000E+00  0.10606591733E+04  0.10606591733E+04  0.00000000000E+00 0. -1.
         21   -1    0    0  501  503 -0.00000000000E+00 -0.00000000000E+00 -0.37171981913E+02  0.37171981913E+02  0.00000000000E+00 0.  1.
          6    2    1    2  501    0  0.11028875203E+02 -0.84961378719E+02  0.39542854452E+03  0.44106256665E+03  0.17559152006E+03 0.  0.
         24    2    3    3    0    0  0.70110835051E+02 -0.99418092686E+02  0.29744697868E+03  0.32564094042E+03  0.52610175849E+02 0.  0.
         -6    2    1    2    0  502 -0.11028875203E+02  0.84961378719E+02  0.62805864687E+03  0.65676858857E+03  0.17189311522E+03 0.  0.
        -24    2    5    5    0    0  0.20192289901E+02  0.11507753575E+03  0.53647573864E+03  0.55532272545E+03  0.83225858002E+02 0.  0.
          5    1    3    3  501    0 -0.59081959849E+02  0.14456713967E+02  0.97981565837E+02  0.11542162623E+03  0.47000000000E+01 0. -1.
        -11    1    4    4    0    0  0.75882261132E+02 -0.90998000513E+02  0.24422822965E+03  0.27145198803E+03  0.00000000000E+00 0.  1.
         12    1    4    4    0    0 -0.57714260810E+01 -0.84200921724E+01  0.53218749035E+02  0.54188952380E+02  0.00000000000E+00 0. -1.
         -5    1    5    5    0  502 -0.31221165104E+02 -0.30116157033E+02  0.91582908231E+02  0.10144586312E+03  0.47000000000E+01 0.  1.
         13    1    6    6    0    0  0.32832004351E+02  0.20583297534E+02  0.25999035901E+03  0.26286232028E+03  0.00000000000E+00 0. -1.
        -14    1    6    6    0    0 -0.12639714449E+02  0.94494238217E+02  0.27648537963E+03  0.29246040516E+03  0.00000000000E+00 0.  1.
</event>
<event>
12    1  0.8747122E-002  0.1818492E+03  0.7818608E-02  0.1166310E+00
         21   -1    0    0  503  502  0.00000000000E+00  0.00000000000E+00  0.28094088208E+03  0.28094088208E+03  0.00000000000E+00 0. -1.
         21   -1    0    0  501  503 -0.00000000000E+00 -0.00000000000E+00 -0.25829932948E+03  0.25829932948E+03  0.00000000000E+00 0. -1.
          6    2    1    2  501    0 -0.42219047831E+02 -0.37298617781E+02 -0.18815420867E+03  0.26084482335E+03  0.17165191737E+03 0.  0.
         24    2    3    3    0    0 -0.10641887940E+01 -0.60528832918E+02 -0.18820871500E+03  0.21335315788E+03  0.80200856988E+02 0.  0.
         -6    2    1    2    0  502  0.42219047831E+02  0.37298617781E+02  0.21079576127E+03  0.27839538821E+03  0.17290316456E+03 0.  0.
        -24    2    5    5    0    0  0.90917063119E+02  0.23673036511E+02  0.17330595381E+03  0.21527067972E+03  0.86488073733E+02 0.  0.
          5    1    3    3  501    0 -0.41154859037E+02  0.23230215137E+02  0.54506334343E-01  0.47491665465E+02  0.47000000000E+01 0. -1.
        -13    1    4    4    0    0  0.16162351303E+02 -0.10640991216E+02 -0.15913688365E+01  0.19416095089E+02  0.00000000000E+00 0.  1.
         14    1    4    4    0    0 -0.17226540097E+02 -0.49887841702E+02 -0.18661734617E+03  0.19393706279E+03  0.00000000000E+00 0. -1.
         -5    1    5    5    0  502 -0.48698015288E+02  0.13625581270E+02  0.37489807464E+02  0.63124708487E+02  0.47000000000E+01 0.  1.
         11    1    6    6    0    0  0.25071499352E+02  0.43485595500E+02  0.11363602668E+03  0.12422851386E+03  0.00000000000E+00 0. -1.
        -12    1    6    6    0    0  0.65845563766E+02 -0.19812558989E+02  0.59669927129E+02  0.91042165862E+02  0.00000000000E+00 0.  1.
</event>
<event>
12    1  0.8747122E-002  0.2343239E+03  0.7818608E-02  0.1123851E+00
         21   -1    0    0  501  502  0.00000000000E+00  0.00000000000E+00  0.12045137114E+04  0.12045137114E+04  0.00000000000E+00 0. -1.
         21   -1    0    0  502  503 -0.00000000000E+00 -0.00000000000E+00 -0.64956144371E+02  0.64956144371E+02  0.00000000000E+00 0.  1.
         -6    2    1    2    0  503  0.82192870724E+02  0.13468520218E+03  0.22203597322E+03  0.32281214513E+03  0.17323953347E+03 0.  0.
        -24    2    3    3    0    0  0.24551740733E+01  0.13191229520E+03  0.14369375194E+03  0.21089528797E+03  0.80137673025E+02 0.  0.
          6    2    1    2  501    0 -0.82192870724E+02 -0.13468520218E+03  0.91752159383E+03  0.94665771066E+03  0.17152018636E+03 0.  0.
         24    2    5    5    0    0 -0.34742610275E+01 -0.69237774304E+02  0.25155526048E+03  0.27285267025E+03  0.79765849257E+02 0.  0.
          5    1    5    5  501    0 -0.78718609697E+02 -0.65447427873E+02  0.66596633335E+03  0.67380504041E+03  0.47000000000E+01 0. -1.
        -13    1    6    6    0    0  0.24046814970E+02 -0.66222855684E+02  0.12676221387E+03  0.14502542808E+03  0.00000000000E+00 0.  1.
         14    1    6    6    0    0 -0.27521075997E+02 -0.30149186200E+01  0.12479304661E+03  0.12782724217E+03  0.00000000000E+00 0. -1.
         -5    1    3    3    0  503  0.79737696651E+02  0.27729069753E+01  0.78342221283E+02  0.11191685716E+03  0.47000000000E+01 0.  1.
         13    1    4    4    0    0 -0.17206116531E+02  0.63407175983E+02  0.11814396656E+03  0.13518327281E+03  0.00000000000E+00 0. -1.
        -14    1    4    4    0    0  0.19661290604E+02  0.68505119218E+02  0.25549785374E+02  0.75712015163E+02  0.00000000000E+00 0.  1.
</event>
<event>
12    1  0.8747122E-002  0.1839611E+03  0.7818608E-02  0.1164862E+00
         21   -1    0    0  503  502  0.00000000000E+00  0.00000000000E+00  0.31572295279E+03  0.31572295279E+03  0.00000000000E+00 0.  1.
         21   -1    0    0  501  503 -0.00000000000E+00 -0.00000000000E+00 -0.11506729492E+03  0.11506729492E+03  0.00000000000E+00 0.  1.
          6    2    1    2  501    0 -0.31527359424E+00 -0.52876212185E+02  0.16269629539E+03  0.24295360887E+03  0.17251196572E+03 0.  0.
         24    2    3    3    0    0 -0.13947363764E+02 -0.49228306506E+01  0.17338659268E+03  0.19175074627E+03  0.80539896662E+02 0.  0.
         -6    2    1    2    0  502  0.31527359424E+00  0.52876212185E+02  0.37959362472E+02  0.18783663884E+03  0.17619789011E+03 0.  0.
        -24    2    5    5    0    0  0.14652337099E+02 -0.23915205717E+02 -0.23265950396E+02  0.88473153649E+02  0.80619888500E+02 0.  0.
          5    1    3    3  501    0  0.13632090170E+02 -0.47953381535E+02 -0.10690297290E+02  0.51202862607E+02  0.47000000000E+01 0. -1.
        -11    1    4    4    0    0 -0.15298411798E+02 -0.41715375030E+02  0.82806062709E+02  0.93973708764E+02  0.00000000000E+00 0.  1.
         12    1    4    4    0    0  0.13510480342E+01  0.36792544379E+02  0.90580529973E+02  0.97777037503E+02  0.00000000000E+00 0. -1.
         -5    1    5    5    0  502 -0.14337063505E+02  0.76791417903E+02  0.61225312868E+02  0.99363485191E+02  0.47000000000E+01 0.  1.
         13    1    6    6    0    0  0.22078724127E+02 -0.23811001516E+02  0.24156990453E+02  0.40472139059E+02  0.00000000000E+00 0. -1.
        -14    1    6    6    0    0 -0.74263870277E+01 -0.10420420118E+00 -0.47422940850E+02  0.48001014590E+02  0.00000000000E+00 0.  1.
</event>
<event>
12    1  0.8747122E-002  0.3243269E+03  0.7818608E-02  0.1074139E+00
         21   -1    0    0  501  502  0.00000000000E+00  0.00000000000E+00  0.15168902175E+04  0.15168902175E+04  0.00000000000E+00 0.  1.
         21   -1    0    0  502  503 -0.00000000000E+00 -0.00000000000E+00 -0.74516325780E+02  0.74516325780E+02  0.00000000000E+00 0.  1.
         -6    2    1    2    0  503  0.50050312002E+02  0.27031305482E+03  0.49884518968E+03  0.59500792535E+03  0.17208639291E+03 0.  0.
        -24    2    3    3    0    0 -0.39706484660E+02  0.13953204615E+03  0.25828932161E+03  0.30682539563E+03  0.79891507156E+02 0.  0.
          6    2    1    2  501    0 -0.50050312002E+02 -0.27031305482E+03  0.94352870200E+03  0.99639861789E+03  0.16428515728E+03 0.  0.
         24    2    5    5    0    0 -0.42255943299E+02 -0.18450738165E+03  0.82161430070E+03  0.84703805758E+03  0.81208824967E+02 0.  0.
          5    1    5    5  501    0 -0.77943687033E+01 -0.85805673169E+02  0.12191440130E+03  0.14936056031E+03  0.47000000000E+01 0. -1.
        -13    1    6    6    0    0 -0.14606441603E+02 -0.11964957670E+03  0.34981926354E+03  0.37000390063E+03  0.00000000000E+00 0.  1.
         14    1    6    6    0    0 -0.27649501696E+02 -0.64857804946E+02  0.47179503716E+03  0.47703415695E+03  0.00000000000E+00 0. -1.
         -5    1    3    3    0  503  0.89756796663E+02  0.13078100867E+03  0.24055586807E+03  0.28818252972E+03  0.47000000000E+01 0.  1.
         11    1    4    4    0    0 -0.23665852084E+02  0.19106621847E+02  0.11505370597E+03  0.11900626375E+03  0.00000000000E+00 0. -1.
        -12    1    4    4    0    0 -0.16040632576E+02  0.12042542430E+03  0.14323561564E+03  0.18781913188E+03  0.00000000000E+00 0.  1.
</event>
<event>
12    1  0.8747122E-002  0.1807665E+03  0.7818608E-02  0.1169152E+00
         21   -1    0    0  503  502  0.00000000000E+00  0.00000000000E+00  0.13221446433E+02  0.13221446433E+02  0.00000000000E+00 0. -1.
         21   -1    0    0  501  503 -0.00000000000E+00 -0.00000000000E+00 -0.23769495737E+04  0.23769495737E+04  0.00000000000E+00 0. -1.
          6    2    1    2  501    0  0.34156332182E+02  0.45263257418E+02 -0.13190262980E+04  0.13313552911E+04  0.17164241507E+03 0.  0.
         24    2    3    3    0    0  0.52306877898E+01  0.53170446990E+02 -0.39814926932E+03  0.40997816493E+03  0.81882834189E+02 0.  0.
         -6    2    1    2    0  502 -0.34156332182E+02 -0.45263257418E+02 -0.10447018292E+04  0.10588157290E+04  0.16270654139E+03 0.  0.
        -24    2    5    5    0    0 -0.78240124446E+02 -0.23891322744E+02 -0.84181627314E+03  0.85004604926E+03  0.85037261086E+02 0.  0.
          5    1    3    3  501    0  0.28925644392E+02 -0.79071895721E+01 -0.92087702873E+03  0.92137712615E+03  0.47000000000E+01 0. -1.
        -11    1    4    4    0    0 -0.24177421973E+02  0.27038575982E+02 -0.64349448900E+02  0.73868016747E+02  0.00000000000E+00 0.  1.
         12    1    4    4    0    0  0.29408109762E+02  0.26131871009E+02 -0.33379982042E+03  0.33611014819E+03  0.00000000000E+00 0. -1.
         -5    1    5    5    0  502  0.44083792265E+02 -0.21371934674E+02 -0.20288555607E+03  0.20876967977E+03  0.47000000000E+01 0.  1.
         11    1    6    6    0    0  0.16573835749E+02  0.67293557098E+01 -0.10301503442E+03  0.10455655683E+03  0.00000000000E+00 0. -1.
        -12    1    6    6    0    0 -0.94813960196E+02 -0.30620678454E+02 -0.73880123872E+03  0.74548949244E+03  0.00000000000E+00 0.  1.
</event>
<event>
12    1  0.8747122E-002  0.1785106E+03  0.7818608E-02  0.1169812E+00
         21   -1    0    0  501  502  0.00000000000E+00  0.00000000000E+00  0.20145626965E+03  0.20145626965E+03  0.00000000000E+00 0.  1.
         21   -1    0    0  502  503 -0.00000000000E+00 -0.00000000000E+00 -0.20046327932E+03  0.20046327932E+03  0.00000000000E+00 0.  1.
         -6    2    1    2    0  503 -0.32505516738E+02 -0.32584645203E+02 -0.93961282667E+02  0.20172943157E+03  0.17247513792E+03 0.  0.
        -24    2    3    3    0    0  0.13748721821E+02  0.14729559523E+02 -0.10529598417E+03  0.13443415676E+03  0.81112951777E+02 0.  0.
          6    2    1    2  501    0  0.32505516738E+02  0.32584645203E+02  0.94954272996E+02  0.20019011740E+03  0.17012172532E+03 0.  0.
         24    2    5    5    0    0  0.57679181219E+02  0.69945940172E+02  0.97540837416E+02  0.15482096422E+03  0.78968306968E+02 0.  0.
          5    1    5    5  501    0 -0.25173664481E+02 -0.37361294969E+02 -0.25865644198E+01  0.45369153184E+02  0.47000000000E+01 0. -1.
        -11    1    6    6    0    0  0.57643365856E+02  0.11809501131E+02  0.31163069531E+02  0.66583472774E+02  0.00000000000E+00 0.  1.
         12    1    6    6    0    0  0.35815363821E-01  0.58136439041E+02  0.66377767885E+02  0.88237491445E+02  0.00000000000E+00 0. -1.
         -5    1    3    3    0  503 -0.46254238559E+02 -0.47314204727E+02  0.11334701502E+02  0.67295274810E+02  0.47000000000E+01 0.  1.
         11    1    4    4    0    0  0.44442188631E+01  0.24715766670E+02  0.29916386013E+01  0.25289723306E+02  0.00000000000E+00 0. -1.
        -12    1    4    4    0    0  0.93045029580E+01 -0.99862071465E+01 -0.10828762277E+03  0.10914443345E+03  0.00000000000E+00 0.  1.
</event>
<event>
12    1  0.8747122E-002  0.2022746E+03  0.7818608E-02  0.1147907E+00
         21   -1    0    0  503  502  0.00000000000E+00  0.00000000000E+00  0.52753262366E+03  0.52753262366E+03  0.00000000000E+00 0.  1.
         21   -1    0    0  501  503 -0.00000000000E+00 -0.00000000000E+00 -0.10370323444E+03  0.10370323444E+03  0.00000000000E+00 0. -1.
          6    2    1    2  501    0 -0.81314452410E+02  0.67201347346E+02  0.52901427687E+02  0.20874021565E+03  0.17217971809E+03 0.  0.
         24    2    3    3    0    0 -0.85254668273E+02  0.10823756645E+03  0.33808373551E+02  0.16306602933E+03  0.80397727238E+02 0.  0.
         -6    2    1    2    0  502  0.81314452410E+02 -0.67201347346E+02  0.37092796153E+03  0.42249564246E+03  0.17258897413E+03 0.  0.
        -24    2    5    5    0    0  0.20255177364E+02  0.25707542030E+02  0.20237681128E+03  0.22052565200E+03  0.81265241759E+02 0.  0.
          5    1    3    3  501    0  0.39402158627E+01 -0.41036219106E+02  0.19093054136E+02  0.45674186318E+02  0.47000000000E+01 0. -1.
        -11    1    4    4    0    0 -0.24348648167E+02  0.73190604412E+02  0.48718816550E+02  0.91231816422E+02  0.00000000000E+00 0.  1.
         12    1    4    4    0    0 -0.60906020106E+02  0.35046962041E+02 -0.14910442999E+02  0.71834212906E+02  0.00000000000E+00 0. -1.
         -5    1    5    5    0  502  0.61059275046E+02 -0.92908889377E+02  0.16855115025E+03  0.20196999046E+03  0.47000000000E+01 0.  1.
         13    1    6    6    0    0 -0.56396504998E+00  0.24364496787E+02  0.89276002417E+01  0.25954745353E+02  0.00000000000E+00 0. -1.
        -14    1    6    6    0    0  0.20819142414E+02  0.13430452435E+01  0.19344921104E+03  0.19457090665E+03  0.00000000000E+00 0.  1.
</event>
<event>
12    1  0.8747122E-002  0.2221455E+03  0.7818608E-02  0.1134325E+00
         21   -1    0    0  503  502  0.00000000000E+00  0.00000000000E+00  0.35210366070E+03  0.35210366070E+03  0.00000000000E+00 0. -1.
         21   -1    0    0  501  503 -0.00000000000E+00 -0.00000000000E+00 -0.16423589677E+03  0.16423589677E+03  0.00000000000E+00 0. -1.
          6    2    1    2  501    0 -0.23540554604E+02  0.13705091502E+03 -0.15914016029E+02  0.22271482460E+03  0.17323835075E+03 0.  0.
         24    2    3    3    0    0  0.46422803690E+02  0.95246960641E+02  0.86551160440E+01  0.13746123607E+03  0.87141380383E+02 0.  0.
         -6    2    1    2    0  502  0.23540554604E+02 -0.13705091502E+03  0.20378177995E+03  0.29362473288E+03  0.15922110067E+03 0.  0.
        -24    2    5    5    0    0 -0.23552257630E+02 -0.95871218808E+02  0.19153211175E+03  0.22970568474E+03  0.79587388032E+02 0.  0.
          5    1    3    3  501    0 -0.69963358294E+02  0.41803954376E+02 -0.24569132073E+02  0.85253588523E+02  0.47000000000E+01 0. -1.
        -11    1    4    4    0    0 -0.10482042273E+02  0.40626130398E+02  0.34645994712E+02  0.54412320580E+02  0.00000000000E+00 0.  1.
         12    1    4    4    0    0  0.56904845963E+02  0.54620830242E+02 -0.25990878668E+02  0.83048915492E+02  0.00000000000E+00 0. -1.
         -5    1    5    5    0  502  0.47092812234E+02 -0.41179696208E+02  0.12249668200E+02  0.63919048138E+02  0.47000000000E+01 0.  1.
         13    1    6    6    0    0  0.18829697962E+02 -0.61382901524E+01  0.86045175217E+01  0.21593375213E+02  0.00000000000E+00 0. -1.
        -14    1    6    6    0    0 -0.42381955592E+02 -0.89732928656E+02  0.18292759423E+03  0.20811230953E+03  0.00000000000E+00 0.  1.
</event>
<event>
12    1  0.8747122E-002  0.2107657E+03  0.7818608E-02  0.1141757E+00
         21   -1    0    0  503  502  0.00000000000E+00  0.00000000000E+00  0.17712792437E+03  0.17712792437E+03  0.00000000000E+00 0.  1.
         21   -1    0    0  501  503 -0.00000000000E+00 -0.00000000000E+00 -0.27751760190E+03  0.27751760190E+03  0.00000000000E+00 0.  1.
          6    2    1    2  501    0 -0.33195833905E+02 -0.11801113342E+03  0.26770555112E+02  0.20849132660E+03  0.16650339229E+03 0.  0.
         24    2    3    3    0    0  0.45797480477E+01 -0.13991262393E+03  0.10838091093E+02  0.16177298665E+03  0.80352464577E+02 0.  0.
         -6    2    1    2    0  502  0.33195833905E+02  0.11801113342E+03 -0.12716023265E+03  0.24615419967E+03  0.17144554310E+03 0.  0.
        -24    2    5    5    0    0  0.79756752139E+02  0.41919604207E+02 -0.84466824659E+02  0.14714583129E+03  0.79992865109E+02 0.  0.
          5    1    3    3  501    0 -0.37775581953E+02  0.21901490502E+02  0.15932464019E+02  0.46718339952E+02  0.47000000000E+01 0. -1.
        -13    1    4    4    0    0 -0.33479245323E+02 -0.30540259158E+02 -0.12897463977E+01  0.45334652780E+02  0.00000000000E+00 0.  1.
         14    1    4    4    0    0  0.38058993371E+02 -0.10937236477E+03  0.12127837491E+02  0.11643833387E+03  0.00000000000E+00 0. -1.
         -5    1    5    5    0  502 -0.46560918233E+02  0.76091529217E+02 -0.42693407986E+02  0.99008368388E+02  0.47000000000E+01 0.  1.
         11    1    6    6    0    0  0.89062577704E+02  0.36869585190E+02 -0.92699695537E+02  0.13373384991E+03  0.00000000000E+00 0. -1.
        -12    1    6    6    0    0 -0.93058255655E+01  0.50500190175E+01  0.82328708776E+01  0.13411981376E+02  0.00000000000E+00 0.  1.
</event>
<event>
12    1  0.8747122E-002  0.2430498E+03  0.7818608E-02  0.1117825E+00
         21   -1    0    0  501  502  0.00000000000E+00  0.00000000000E+00  0.36913638860E+03  0.36913638860E+03  0.00000000000E+00 0. -1.
         21   -1    0    0  502  503 -0.00000000000E+00 -0.00000000000E+00 -0.17759365885E+03  0.17759365885E+03  0.00000000000E+00 0.  1.
         -6    2    1    2    0  503  0.16869231313E+03 -0.24977026312E+02  0.92948416680E+01  0.24294151189E+03  0.17278088947E+03 0.  0.
        -24    2    3    3    0    0  0.12581400443E+03 -0.71887220060E+02  0.41395333935E+02  0.17158573260E+03  0.82043609397E+02 0.  0.
          6    2    1    2  501    0 -0.16869231313E+03  0.24977026312E+02  0.18224788808E+03  0.30378853556E+03  0.17318265870E+03 0.  0.
         24    2    5    5    0    0 -0.12003492335E+03  0.78789420104E+02  0.91130156936E+02  0.18722161815E+03  0.78301170198E+02 0.  0.
          5    1    5    5  501    0 -0.48657389775E+02 -0.53812393791E+02  0.91117731148E+02  0.11656691741E+03  0.47000000000E+01 0. -1.
        -11    1    6    6    0    0 -0.11529246691E+03  0.59058633111E+02  0.10137389488E+03  0.16448994387E+03  0.00000000000E+00 0.  1.
         12    1    6    6    0    0 -0.47424564423E+01  0.19730786993E+02 -0.10243737943E+02  0.22731674279E+02  0.00000000000E+00 0. -1.
         -5    1    3    3    0  503  0.42878308699E+02  0.46910193747E+02 -0.32100492267E+02  0.71355779290E+02  0.47000000000E+01 0.  1.
         11    1    4    4    0    0 -0.14563371157E+01  0.16231121945E+01  0.23414025421E+02  0.23515356630E+02  0.00000000000E+00 0. -1.
        -12    1    4    4    0    0  0.12727034154E+03 -0.73510332254E+02  0.17981308514E+02  0.14807037597E+03  0.00000000000E+00 0.  1.
</event>
<event>
12    1  0.8747122E-002  0.4903343E+03  0.7818608E-02  0.1016352E+00
         21   -1    0    0  503  502  0.00000000000E+00  0.00000000000E+00  0.62284157331E+03  0.62284157331E+03  0.00000000000E+00 0.  1.
         21   -1    0    0  501  503 -0.00000000000E+00 -0.00000000000E+00 -0.63878657465E+03  0.63878657465E+03  0.00000000000E+00 0. -1.
          6    2    1    2  501    0 -0.39461554680E+03 -0.23433696230E+03 -0.40495944445E+03  0.63572080184E+03  0.17179506562E+03 0.  0.
         24    2    3    3    0    0 -0.21671172333E+03 -0.60759611436E+02 -0.22232145613E+03  0.32724455978E+03  0.83704663200E+02 0.  0.
         -6    2    1    2    0  502  0.39461554680E+03  0.23433696230E+03  0.38901444310E+03  0.62590734612E+03  0.17260511959E+03 0.  0.
        -24    2    5    5    0    0  0.10138278769E+03  0.45723203292E+02  0.14939672941E+03  0.20282421030E+03  0.80306889900E+02 0.  0.
          5    1    3    3  501    0 -0.17790382347E+03 -0.17357735086E+03 -0.18263798832E+03  0.30847624206E+03  0.47000000000E+01 0. -1.
        -11    1    4    4    0    0 -0.13730656869E+02 -0.71152828096E+01 -0.59725542999E+02  0.61695207869E+02  0.00000000000E+00 0.  1.
         12    1    4    4    0    0 -0.20298106646E+03 -0.53644328626E+02 -0.16259591313E+03  0.26554935191E+03  0.00000000000E+00 0. -1.
         -5    1    5    5    0  502  0.29323275911E+03  0.18861375901E+03  0.23961771369E+03  0.42308313582E+03  0.47000000000E+01 0.  1.
         11    1    6    6    0    0  0.10879147530E+03  0.20262288128E+02  0.12073561584E+03  0.16377800326E+03  0.00000000000E+00 0. -1.
        -12    1    6    6    0    0 -0.74086876131E+01  0.25460915164E+02  0.28661113575E+02  0.39046207043E+02  0.00000000000E+00 0.  1.
</event>
<event>
12    1  0.8747122E-002  0.1927800E+03  0.7818608E-02  0.1156089E+00
         21   -1    0    0  501  502  0.00000000000E+00  0.00000000000E+00  0.64606662280E+02  0.64606662280E+02  0.00000000000E+00 0. -1.
         21   -1    0    0  502  503 -0.00000000000E+00 -0.00000000000E+00 -0.99239179719E+03  0.99239179719E+03  0.00000000000E+00 0. -1.
         -6    2    1    2    0  503 -0.10543873830E+01  0.85725806084E+02 -0.80680867754E+03  0.82940358676E+03  0.17210474141E+03 0.  0.
        -24    2    3    3    0    0  0.19882797651E+02  0.89602291341E+02 -0.79019000613E+03  0.80198711189E+03  0.10178008443E+03 0.  0.
          6    2    1    2  501    0  0.10543873830E+01 -0.85725806084E+02 -0.12097645737E+03  0.22759487271E+03  0.17266759188E+03 0.  0.
         24    2    5    5    0    0  0.15133874010E+02 -0.18738286805E+02 -0.13412730394E+03  0.15773362130E+03  0.79433016381E+02 0.  0.
          5    1    5    5  501    0 -0.14079486627E+02 -0.66987519279E+02  0.13150846570E+02  0.69861251409E+02  0.47000000000E+01 0. -1.
        -13    1    6    6    0    0 -0.26076824406E+02  0.10663015875E+02 -0.25975007671E+02  0.38319729933E+02  0.00000000000E+00 0.  1.
         14    1    6    6    0    0  0.41210698416E+02 -0.29401302680E+02 -0.10815229627E+03  0.11941389137E+03  0.00000000000E+00 0. -1.
         -5    1    3    3    0  503 -0.20937185034E+02 -0.38764852561E+01 -0.16618671407E+02  0.27416474872E+02  0.47000000000E+01 0.  1.
         11    1    4    4    0    0 -0.39619294993E+02  0.48645215648E+02 -0.43752414206E+03  0.44199934437E+03  0.00000000000E+00 0. -1.
        -12    1    4    4    0    0  0.59502092644E+02  0.40957075692E+02 -0.35266586407E+03  0.35998776751E+03  0.00000000000E+00 0.  1.
</event>
<event>
12    1  0.8747122E-002  0.1845955E+03  0.7818608E-02  0.1163931E+00
         21   -1    0    0  501  502  0.00000000000E+00  0.00000000000E+00  0.30259540222E+03  0.30259540222E+03  0.00000000000E+00 0.  1.
         21   -1    0    0  502  503 -0.00000000000E+00 -0.00000000000E+00 -0.11138191442E+03  0.11138191442E+03  0.00000000000E+00 0.  1.
         -6    2    1    2    0  503 -0.10688010226E+02 -0.61616454881E+02  0.91014473352E+02  0.20581334137E+03  0.17367980900E+03 0.  0.
        -24    2    3    3    0    0 -0.15609740044E+02  0.32973842216E+02  0.59989752522E+02  0.10603272686E+03  0.79455839961E+02 0.  0.
          6    2    1    2  501    0  0.10688010226E+02  0.61616454881E+02  0.10019901444E+03  0.20816397527E+03  0.17141055110E+03 0.  0.
         24    2    5    5    0    0  0.65466108190E+01  0.10879951928E+03  0.76407816496E+02  0.15495209826E+03  0.79320897768E+02 0.  0.
          5    1    5    5  501    0  0.41413994069E+01 -0.47183064401E+02  0.23791197948E+02  0.53211877012E+02  0.47000000000E+01 0. -1.
        -13    1    6    6    0    0 -0.26695227439E+02  0.29543922289E+02 -0.20325373813E+00  0.39818586418E+02  0.00000000000E+00 0.  1.
         14    1    6    6    0    0  0.33241838258E+02  0.79255596993E+02  0.76611070234E+02  0.11513351184E+03  0.00000000000E+00 0. -1.
         -5    1    3    3    0  503  0.49217298183E+01 -0.94590297097E+02  0.31024720830E+02  0.99780614510E+02  0.47000000000E+01 0.  1.
         11    1    4    4    0    0 -0.38514822062E+02  0.85593806411E+01  0.25342305094E+01  0.39535766588E+02  0.00000000000E+00 0. -1.
        -12    1    4    4    0    0  0.22905082018E+02  0.24414461575E+02  0.57455522013E+02  0.66496960277E+02  0.00000000000E+00 0.  1.
</event>
<event>
12    1  0.8747122E-002  0.3096975E+03  0.7818608E-02  0.1080615E+00
         21   -1    0    0  503  502  0.00000000000E+00  0.00000000000E+00  0.22384864021E+04  0.22384864021E+04  0.00000000000E+00 0. -1.
         21   -1    0    0  501  503 -0.00000000000E+00 -0.00000000000E+00 -0.11265114953E+03  0.11265114953E+03  0.00000000000E+00 0.  1.
          6    2    1    2  501    0 -0.25404083484E+03  0.38177398023E+02  0.13726333736E+03  0.33875320980E+03  0.17296893906E+03 0.  0.
         24    2    3    3    0    0 -0.17714638780E+03 -0.30456631708E+02  0.12930842171E+03  0.23527008699E+03  0.79516644702E+02 0.  0.
         -6    2    1    2    0  502  0.25404083484E+03 -0.38177398023E+02  0.19885719152E+04  0.20123843419E+04  0.17110878934E+03 0.  0.
        -24    2    5    5    0    0  0.27187585318E+03 -0.30606980111E+02  0.19176086213E+04  0.19386735679E+04  0.79869341591E+02 0.  0.
          5    1    3    3  501    0 -0.76894447045E+02  0.68634029731E+02  0.79549156552E+01  0.10348312281E+03  0.47000000000E+01 0. -1.
        -11    1    4    4    0    0 -0.14619169822E+03 -0.24244829527E+02  0.61445397795E+02  0.16042244636E+03  0.00000000000E+00 0.  1.
         12    1    4    4    0    0 -0.30954689576E+02 -0.62118021808E+01  0.67863023912E+02  0.74847640627E+02  0.00000000000E+00 0. -1.
         -5    1    5    5    0  502 -0.17835018342E+02 -0.75704179117E+01  0.70963293963E+02  0.73710773952E+02  0.47000000000E+01 0.  1.
         11    1    6    6    0    0  0.22712929996E+03 -0.82119927875E+01  0.17141782800E+04  0.17291796701E+04  0.00000000000E+00 0. -1.
        -12    1    6    6    0    0  0.44746553222E+02 -0.22394987324E+02  0.20343034127E+03  0.20949389784E+03  0.00000000000E+00 0.  1.
</event>
<event>
12    1  0.8747122E-002  0.1959478E+03  0.7818608E-02  0.1153746E+00
         21   -1    0    0  503  502  0.00000000000E+00  0.00000000000E+00  0.31280862848E+03  0.31280862848E+03  0.00000000000E+00 0. -1.
         21   -1    0    0  501  503 -0.00000000000E+00 -0.00000000000E+00 -0.13068427975E+03  0.13068427975E+03  0.00000000000E+00 0.  1.
          6    2    1    2  501    0  0.89939228139E+02 -0.25488951296E+02  0.30762900844E+02  0.19589276174E+03  0.16937788119E+03 0.  0.
         24    2    3    3    0    0  0.89677256747E+02  0.41245921594E+02  0.22410747266E+02  0.12847273239E+03  0.79118676356E+02 0.  0.
         -6    2    1    2    0  502 -0.89939228139E+02  0.25488951296E+02  0.15136144788E+03  0.24760014649E+03  0.17221147825E+03 0.  0.
        -24    2    5    5    0    0 -0.11500874680E+03 -0.88457096272E+01  0.15686817334E+03  0.20447516844E+03  0.62427656394E+02 0.  0.
          5    1    3    3  501    0  0.26197139238E+00 -0.66734872890E+02  0.83521535776E+01  0.67420029353E+02  0.47000000000E+01 0. -1.
        -11    1    4    4    0    0  0.13396472933E+02  0.46833286825E+02 -0.21190449378E+00  0.48712084182E+02  0.00000000000E+00 0.  1.
         12    1    4    4    0    0  0.76280783814E+02 -0.55873652308E+01  0.22622651760E+02  0.79760648205E+02  0.00000000000E+00 0. -1.
         -5    1    5    5    0  502  0.25069518659E+02  0.34334660923E+02 -0.55067254556E+01  0.43124978049E+02  0.47000000000E+01 0.  1.
         11    1    6    6    0    0 -0.64856893788E+02 -0.11106160805E+02  0.39316379277E+02  0.76652078635E+02  0.00000000000E+00 0. -1.
        -12    1    6    6    0    0 -0.50151853010E+02  0.22604511774E+01  0.11755179406E+03  0.12782308980E+03  0.00000000000E+00 0.  1.
</event>
<event>
12    1  0.8747122E-002  0.1790036E+03  0.7818608E-02  0.1168909E+00
         21   -1    0    0  501  502  0.00000000000E+00  0.00000000000E+00  0.25132734708E+03  0.25132734708E+03  0.00000000000E+00 0.  1.
         21   -1    0    0  502  503 -0.00000000000E+00 -0.00000000000E+00 -0.14507215465E+03  0.14507215465E+03  0.00000000000E+00 0. -1.
         -6    2    1    2    0  503 -0.32167801789E+02  0.34144807941E+02 -0.16727485598E+02  0.17921980953E+03  0.17216066907E+03 0.  0.
        -24    2    3    3    0    0  0.23558787317E+02  0.29759662475E+02 -0.61505833666E+02  0.10744326260E+03  0.79501151768E+02 0.  0.
          6    2    1    2  501    0  0.32167801789E+02 -0.34144807941E+02  0.12298267803E+03  0.21717969220E+03  0.17274734217E+03 0.  0.
         24    2    5    5    0    0  0.70572943540E+02  0.11426932454E+02  0.37352620943E+02  0.11274629184E+03  0.78774316158E+02 0.  0.
          5    1    5    5  501    0 -0.38405141751E+02 -0.45571740394E+02  0.85630057083E+02  0.10443340036E+03  0.47000000000E+01 0. -1.
        -11    1    6    6    0    0 -0.25683489085E+01  0.17825903899E+02  0.34913624208E+02  0.39285117045E+02  0.00000000000E+00 0.  1.
         12    1    6    6    0    0  0.73141292448E+02 -0.63989714447E+01  0.24389967355E+01  0.73461174791E+02  0.00000000000E+00 0. -1.
         -5    1    3    3    0  503 -0.55726589106E+02  0.43851454655E+01  0.44778348069E+02  0.71776546935E+02  0.47000000000E+01 0.  1.
         11    1    4    4    0    0 -0.28920808166E+02  0.26937454981E+01 -0.20696849428E+02  0.35665515362E+02  0.00000000000E+00 0. -1.
        -12    1    4    4    0    0  0.52479595483E+02  0.27065916977E+02 -0.40808984238E+02  0.71777747237E+02  0.00000000000E+00 0.  1.
</event>
<event>
12    1  0.8747122E-002  0.1788900E+03  0.7818608E-02  0.1169686E+00
         21   -1    0    0  503  502  0.00000000000E+00  0.00000000000E+00  0.99000079390E+02  0.99000079390E+02  0.00000000000E+00 0. -1.
         21   -1    0    0  501  503 -0.00000000000E+00 -0.00000000000E+00 -0.79965365351E+03  0.79965365351E+03  0.00000000000E+00 0. -1.
          6    2    1    2  501    0 -0.33136507735E+01  0.37547300253E+02 -0.70054984001E+03  0.72302954857E+03  0.17487386808E+03 0.  0.
         24    2    3    3    0    0  0.14083362156E+02  0.92444034780E+02 -0.36728171295E+03  0.38478992636E+03  0.66507068097E+02 0.  0.
         -6    2    1    2    0  502  0.33136507735E+01 -0.37547300253E+02 -0.10373410806E+00  0.17562418432E+03  0.17153152282E+03 0.  0.
        -24    2    5    5    0    0 -0.56128217221E+02  0.43009370034E+01 -0.21211548632E+02  0.99780658125E+02  0.79607632253E+02 0.  0.
          5    1    3    3  501    0 -0.17397012930E+02 -0.54896734526E+02 -0.33326812706E+03  0.33823962221E+03  0.47000000000E+01 0. -1.
        -13    1    4    4    0    0 -0.22311943537E+02  0.15770113295E+02 -0.58669690577E+02  0.64719795195E+02  0.00000000000E+00 0.  1.
         14    1    4    4    0    0  0.36395305693E+02  0.76673921485E+02 -0.30861202237E+03  0.32007013117E+03  0.00000000000E+00 0. -1.
         -5    1    5    5    0  502  0.59441867995E+02 -0.41848237257E+02  0.21107814524E+02  0.75843526198E+02  0.47000000000E+01 0.  1.
         11    1    6    6    0    0 -0.14401685576E+02  0.24781814026E+02  0.22141915419E+02  0.36218935272E+02  0.00000000000E+00 0. -1.
        -12    1    6    6    0    0 -0.41726531646E+02 -0.20480877022E+02 -0.43353464051E+02  0.63561722853E+02  0.00000000000E+00 0.  1.
</event>
<event>
12    1  0.8747122E-002  0.2539064E+03  0.7818608E-02  0.1110870E+00
         21   -1    0    0  503  502  0.00000000000E+00  0.00000000000E+00  0.81309796842E+02  0.81309796842E+02  0.00000000000E+00 0.  1.
         21   -1    0    0  501  503 -0.00000000000E+00 -0.00000000000E+00 -0.19318551699E+04  0.19318551699E+04  0.00000000000E+00 0. -1.
          6    2    1    2  501    0 -0.14636584959E+03  0.11422461776E+03 -0.16981859897E+04  0.17170537388E+04  0.17311170154E+03 0.  0.
         24    2    3    3    0    0 -0.14620249338E+03  0.30229029247E+02 -0.11728511439E+04  0.11850254729E+04  0.80103697332E+02 0.  0.
         -6    2    1    2    0  502  0.14636584959E+03 -0.11422461776E+03 -0.15235938337E+03  0.29611122791E+03  0.17320003570E+03 0.  0.
        -24    2    5    5    0    0  0.10013888623E+03 -0.13638890731E+03 -0.15803538271E+03  0.24431842107E+03  0.78016524615E+02 0.  0.
          5    1    3    3  501    0 -0.16335621791E+00  0.83995588518E+02 -0.52533484575E+03  0.53202826592E+03  0.47000000000E+01 0. -1.
        -13    1    4    4    0    0  0.57782817459E+01  0.61530766278E+01 -0.19129843593E+03  0.19148456982E+03  0.00000000000E+00 0.  1.
         14    1    4    4    0    0 -0.15198077512E+03  0.24075952619E+02 -0.98155270801E+03  0.99354090308E+03  0.00000000000E+00 0. -1.
         -5    1    5    5    0  502  0.46226963362E+02  0.22164289542E+02  0.56759993394E+01  0.51792806846E+02  0.47000000000E+01 0.  1.
         13    1    6    6    0    0  0.40346800985E+02 -0.44680136626E+02 -0.11316531160E+02  0.61255553513E+02  0.00000000000E+00 0. -1.
        -14    1    6    6    0    0  0.59792085247E+02 -0.91708770680E+02 -0.14671885154E+03  0.18306286755E+03  0.00000000000E+00 0.  1.
</event>
<event>
12    1  0.8747122E-002  0.2009923E+03  0.7818608E-02  0.1150130E+00
         21   -1    0    0  501  502  0.00000000000E+00  0.00000000000E+00  0.52542109264E+03  0.52542109264E+03  0.00000000000E+00 0. -1.
         21   -1    0    0  502  503 -0.00000000000E+00 -0.00000000000E+00 -0.83899053622E+02  0.83899053622E+02  0.00000000000E+00 0.  1.
         -6    2    1    2    0  503 -0.29926509969E+02 -0.99297034399E+02  0.32448801267E+03  0.38169407981E+03  0.17216969292E+03 0.  0.
        -24    2    3    3    0    0  0.49752143191E+02 -0.62786006389E+02  0.19293946175E+03  0.22355219990E+03  0.79577583692E+02 0.  0.
          6    2    1    2  501    0  0.29926509969E+02  0.99297034399E+02  0.11703402635E+03  0.22762606645E+03  0.16541210888E+03 0.  0.
         24    2    5    5    0    0  0.70400460777E+02  0.51463485465E+02  0.33005504823E+02  0.12270194373E+03  0.79760193291E+02 0.  0.
          5    1    5    5  501    0 -0.40473950808E+02  0.47833548934E+02  0.84028521531E+02  0.10492412272E+03  0.47000000000E+01 0. -1.
        -11    1    6    6    0    0  0.14039228487E+02  0.53180345170E+02 -0.41740766546E+01  0.55160420275E+02  0.00000000000E+00 0.  1.
         12    1    6    6    0    0  0.56361232289E+02 -0.17168597052E+01  0.37179581478E+02  0.67541523460E+02  0.00000000000E+00 0. -1.
         -5    1    3    3    0  503 -0.79678653160E+02 -0.36511028010E+02  0.13154855092E+03  0.15814187992E+03  0.47000000000E+01 0.  1.
         11    1    4    4    0    0  0.14159469606E+02 -0.56625591134E+02  0.17236947434E+03  0.18198402083E+03  0.00000000000E+00 0. -1.
        -12    1    4    4    0    0  0.35592673585E+02 -0.61604152551E+01  0.20569987409E+02  0.41568179068E+02  0.00000000000E+00 0.  1.
</event>
<event>
12    1  0.8747122E-002  0.1965091E+03  0.7818608E-02  0.1152892E+00
         21   -1    0    0  503  502  0.00000000000E+00  0.00000000000E+00  0.54362564840E+03  0.54362564840E+03  0.00000000000E+00 0.  1.
         21   -1    0    0  501  503 -0.00000000000E+00 -0.00000000000E+00 -0.88958103498E+02  0.88958103498E+02  0.00000000000E+00 0. -1.
          6    2    1    2  501    0  0.88329125934E+02 -0.36161827068E+02  0.83838029060E+02  0.21290486429E+03  0.17085067719E+03 0.  0.
         24    2    3    3    0    0  0.30499103100E+02 -0.81496858201E+02  0.73641929349E+02  0.13857030276E+03  0.78782370241E+02 0.  0.
         -6    2    1    2    0  502 -0.88329125934E+02  0.36161827068E+02  0.37082951584E+03  0.41967888761E+03  0.17177347485E+03 0.  0.
        -24    2    5    5    0    0 -0.50398184538E-01 -0.19129556032E+02  0.91658661377E+02  0.12167095684E+03  0.77695360735E+02 0.  0.
          5    1    3    3  501    0  0.57830022834E+02  0.45335031133E+02  0.10196099710E+02  0.74334561532E+02  0.47000000000E+01 0. -1.
        -13    1    4    4    0    0 -0.15132448124E+02 -0.48445687555E+02  0.68926698018E+01  0.51219962182E+02  0.00000000000E+00 0.  1.
         14    1    4    4    0    0  0.45631551224E+02 -0.33051170646E+02  0.66749259548E+02  0.87350340574E+02  0.00000000000E+00 0. -1.
         -5    1    5    5    0  502 -0.88278727750E+02  0.55291383100E+02  0.27917085446E+03  0.29800793077E+03  0.47000000000E+01 0.  1.
         11    1    6    6    0    0 -0.19879985064E+02 -0.41899991883E+02  0.37407176397E+02  0.59582883213E+02  0.00000000000E+00 0. -1.
        -12    1    6    6    0    0  0.19829586879E+02  0.22770435851E+02  0.54251484980E+02  0.62088073631E+02  0.00000000000E+00 0.  1.
</event>
<event>
12    1  0.8747122E-002  0.1966259E+03  0.7818608E-02  0.1152953E+00
         21   -1    0    0  501  502  0.00000000000E+00  0.00000000000E+00  0.49872600648E+03  0.49872600648E+03  0.00000000000E+00 0. -1.
         21   -1    0    0  502  503 -0.00000000000E+00 -0.00000000000E+00 -0.10328231566E+03  0.10328231566E+03  0.00000000000E+00 0. -1.
         -6    2    1    2    0  503 -0.45919171016E+02  0.81148800048E+02  0.46208427321E+02  0.20198256372E+03  0.17311279351E+03 0.  0.
        -24    2    3    3    0    0 -0.63246813464E+01  0.94182506196E+02 -0.17259424336E+02  0.12590458201E+03  0.81509079091E+02 0.  0.
          6    2    1    2  501    0  0.45919171016E+02 -0.81148800048E+02  0.34923526349E+03  0.40002575842E+03  0.17135238578E+03 0.  0.
         24    2    5    5    0    0  0.44630432937E+02  0.45841975874E+01  0.94029318350E+02  0.13076014203E+03  0.79017793082E+02 0.  0.
          5    1    5    5  501    0  0.12887380791E+01 -0.85732997636E+02  0.25520594514E+03  0.26926561638E+03  0.47000000000E+01 0. -1.
        -13    1    6    6    0    0  0.28416125550E+02  0.39326093043E+02  0.71133529181E+02  0.86104568746E+02  0.00000000000E+00 0.  1.
         14    1    6    6    0    0  0.16214307387E+02 -0.34741895456E+02  0.22895789169E+02  0.44655573287E+02  0.00000000000E+00 0. -1.
         -5    1    3    3    0  503 -0.39594489670E+02 -0.13033706148E+02  0.63467851657E+02  0.76077981717E+02  0.47000000000E+01 0.  1.
         13    1    4    4    0    0 -0.23377148300E+02  0.30260213258E+02  0.26554184283E+02  0.46554229367E+02  0.00000000000E+00 0. -1.
        -14    1    4    4    0    0  0.17052466954E+02  0.63922292938E+02 -0.43813608619E+02  0.79350352639E+02  0.00000000000E+00 0.  1.
</event>
<event>
12    1  0.8747122E-002  0.1761938E+03  0.7818608E-02  0.1172060E+00
         21   -1    0    0  501  502  0.00000000000E+00  0.00000000000E+00  0.13631716980E+03  0.13631716980E+03  0.00000000000E+00 0. -1.
         21   -1    0    0  502  503 -0.00000000000E+00 -0.00000000000E+00 -0.61517105520E+03  0.61517105520E+03  0.00000000000E+00 0. -1.
         -6    2    1    2    0  503 -0.21982736292E+02  0.25240956199E+02 -0.53812629140E+03  0.56559186143E+03  0.17086223003E+03 0.  0.
        -24    2    3    3    0    0 -0.53804999799E+02 -0.79300413578E+01 -0.18243529647E+03  0.20691213603E+03  0.81068681256E+02 0.  0.
          6    2    1    2  501    0  0.21982736292E+02 -0.25240956199E+02  0.59272406005E+02  0.18589636357E+03  0.17298524015E+03 0.  0.
         24    2    5    5    0    0  0.20786231099E+02 -0.58038533417E+02 -0.19443093894E+02  0.10048364426E+03  0.76931073690E+02 0.  0.
          5    1    5    5  501    0  0.11965051925E+01  0.32797577219E+02  0.78715499899E+02  0.85412719313E+02  0.47000000000E+01 0. -1.
        -13    1    6    6    0    0 -0.12963247286E+02 -0.62506436727E+02 -0.69243836656E+01  0.64210960915E+02  0.00000000000E+00 0.  1.
         14    1    6    6    0    0  0.33749478385E+02  0.44679033093E+01 -0.12518710229E+02  0.36272683345E+02  0.00000000000E+00 0. -1.
         -5    1    3    3    0  503  0.31822263507E+02  0.33170997557E+02 -0.35569099493E+03  0.35867972540E+03  0.47000000000E+01 0.  1.
         11    1    4    4    0    0 -0.12176006605E+02 -0.42047393302E+02 -0.84081232469E+02  0.94793945344E+02  0.00000000000E+00 0. -1.
        -12    1    4    4    0    0 -0.41628993194E+02  0.34117351944E+02 -0.98354064000E+02  0.11211819069E+03  0.00000000000E+00 0.  1.
</event>
<event>
12    1  0.8747122E-002  0.1947341E+03  0.7818608E-02  0.1154297E+00
         21   -1    0    0  503  502  0.00000000000E+00  0.00000000000E+00  0.33696461192E+02  0.33696461192E+02  0.00000000000E+00 0.  1.
         21   -1    0    0  501  503 -0.00000000000E+00 -0.00000000000E+00 -0.13811407617E+04  0.13811407617E+04  0.00000000000E+00 0. -1.
          6    2    1    2  501    0  0.66726921183E+02  0.63646712565E+02 -0.36848130020E+03  0.41669399053E+03  0.17132433312E+03 0.  0.
         24    2    3    3    0    0 -0.62595094933E+01  0.63042687261E+01 -0.26808378394E+03  0.27988417291E+03  0.79920646693E+02 0.  0.
         -6    2    1    2    0  502 -0.66726921183E+02 -0.63646712565E+02 -0.97896300036E+03  0.99814323241E+03  0.17151667645E+03 0.  0.
        -24    2    5    5    0    0 -0.18448198088E+02 -0.37392313666E+02 -0.88362881971E+03  0.88800320987E+03  0.77532500145E+02 0.  0.
          5    1    3    3  501    0  0.72986430677E+02  0.57342443839E+02 -0.10039751625E+03  0.13680981762E+03  0.47000000000E+01 0. -1.
        -11    1    4    4    0    0 -0.13187425383E+02 -0.27700055315E+02 -0.47222114600E+02  0.56312781497E+02  0.00000000000E+00 0.  1.
         12    1    4    4    0    0  0.69279158899E+01  0.34004324041E+02 -0.22086166934E+03  0.22357139141E+03  0.00000000000E+00 0. -1.
         -5    1    5    5    0  502 -0.48278723095E+02 -0.26254398899E+02 -0.95334180647E+02  0.11014002254E+03  0.47000000000E+01 0.  1.
         13    1    6    6    0    0  0.14161341332E+02 -0.33450194646E+02 -0.18110310086E+03  0.18471002207E+03  0.00000000000E+00 0. -1.
        -14    1    6    6    0    0 -0.32609539421E+02 -0.39421190208E+01 -0.70252571885E+03  0.70329318780E+03  0.00000000000E+00 0.  1.
</event>
<event>
12    1  0.8747122E-002  0.1921526E+03  0.7818608E-02  0.1156831E+00
         21   -1    0    0  501  502  0.00000000000E+00  0.00000000000E+00  0.10032914004E+03  0.10032914004E+03  0.00000000000E+00 0. -1.
         21   -1    0    0  502  503 -0.00000000000E+00 -0.00000000000E+00 -0.77329106440E+03  0.77329106440E+03  0.00000000000E+00 0. -1.
         -6    2    1    2    0  503  0.86383107431E+01 -0.83997582355E+02 -0.65425003859E+03  0.68188395248E+03  0.17260474330E+03 0.  0.
        -24    2    3    3    0    0  0.31025843659E+02 -0.10380216372E+03 -0.62644328113E+03  0.64078980651E+03  0.80267673959E+02 0.  0.
          6    2    1    2  501    0 -0.86383107431E+01  0.83997582355E+02 -0.18711885772E+02  0.19173625196E+03  0.17112113076E+03 0.  0.
         24    2    5    5    0    0 -0.15037012008E+02 -0.20542815290E+02  0.66059023032E+01  0.83881170902E+02  0.79651075928E+02 0.  0.
          5    1    5    5  501    0  0.63987012648E+01  0.10454039764E+03 -0.25317788075E+02  0.10785508106E+03  0.47000000000E+01 0. -1.
        -13    1    6    6    0    0  0.94915830414E+01  0.14072006413E+02  0.30708964031E+02  0.35087775435E+02  0.00000000000E+00 0.  1.
         14    1    6    6    0    0 -0.24528595049E+02 -0.34614821703E+02 -0.24103061727E+02  0.48793395468E+02  0.00000000000E+00 0. -1.
         -5    1    3    3    0  503 -0.22387532916E+02  0.19804581368E+02 -0.27806757456E+02  0.41094145976E+02  0.47000000000E+01 0.  1.
         13    1    4    4    0    0 -0.31306144540E+01 -0.22796547841E+02 -0.29525995781E+02  0.37433511286E+02  0.00000000000E+00 0. -1.
        -14    1    4    4    0    0  0.34156458113E+02 -0.81005615882E+02 -0.59691728535E+03  0.60335629522E+03  0.00000000000E+00 0.  1.
</event>
<event>
12    1  0.8747122E-002  0.1749128E+03  0.7818608E-02  0.1172918E+00
         21   -1    0    0  501  502  0.00000000000E+00  0.00000000000E+00  0.57045738692E+02  0.57045738692E+02  0.00000000000E+00 0.  1.
         21   -1    0    0  502  503 -0.00000000000E+00 -0.00000000000E+00 -0.96683116508E+03  0.96683116508E+03  0.00000000000E+00 0.  1.
         -6    2    1    2    0  503  0.25076833642E+02 -0.19803495970E+02 -0.79727114541E+03  0.81623266704E+03  0.17196936182E+03 0.  0.
        -24    2    3    3    0    0  0.12957648607E+02 -0.10482697500E+02 -0.79608087606E+03  0.80019338180E+03  0.79289970598E+02 0.  0.
          6    2    1    2  501    0 -0.25076833642E+02  0.19803495970E+02 -0.11251428098E+03  0.20764423673E+03  0.17156817766E+03 0.  0.
         24    2    5    5    0    0  0.40668047765E+02 -0.81161108632E+01 -0.25097455058E+02  0.94658904359E+02  0.81305993380E+02 0.  0.
          5    1    5    5  501    0 -0.65744881407E+02  0.27919606833E+02 -0.87416825920E+02  0.11298533237E+03  0.47000000000E+01 0. -1.
        -13    1    6    6    0    0  0.43298697478E+02 -0.39133737235E+02 -0.25096305599E+02  0.63529923248E+02  0.00000000000E+00 0.  1.
         14    1    6    6    0    0 -0.26306497123E+01  0.31017626372E+02 -0.11494588897E-02  0.31128981110E+02  0.00000000000E+00 0. -1.
         -5    1    3    3    0  503  0.12119185036E+02 -0.93207984701E+01 -0.11902693494E+01  0.16039285245E+02  0.47000000000E+01 0.  1.
         13    1    4    4    0    0  0.11282190045E+02  0.32264956272E+01 -0.15258619302E+02  0.19248988265E+02  0.00000000000E+00 0. -1.
        -14    1    4    4    0    0  0.16754585612E+01 -0.13709193127E+02 -0.78082225676E+03  0.78094439353E+03  0.00000000000E+00 0.  1.
</event>
<event>
12    1  0.8747122E-002  0.2559807E+03  0.7818608E-02  0.1109717E+00
         21   -1    0    0  501  502  0.00000000000E+00  0.00000000000E+00  0.90772273573E+03  0.90772273573E+03  0.00000000000E+00 0. -1.
         21   -1    0    0  502  503 -0.00000000000E+00 -0.00000000000E+00 -0.79924261566E+02  0.79924261566E+02  0.00000000000E+00 0.  1.
         -6    2    1    2    0  503  0.18192862004E+03 -0.52484587598E+02  0.56933138844E+03  0.62387321898E+03  0.17095879264E+03 0.  0.
        -24    2    3    3    0    0  0.18391993691E+03 -0.78453930337E+01  0.51846264001E+03  0.55600317698E+03  0.80299005904E+02 0.  0.
          6    2    1    2  501    0 -0.18192862004E+03  0.52484587598E+02  0.25846708573E+03  0.36377377831E+03  0.17225989858E+03 0.  0.
         24    2    5    5    0    0 -0.12393539843E+03  0.51235649748E+02  0.77505898723E+02  0.17368481282E+03  0.78575919210E+02 0.  0.
          5    1    5    5  501    0 -0.57993221608E+02  0.12489378507E+01  0.18096118700E+03  0.19008896549E+03  0.47000000000E+01 0. -1.
        -13    1    6    6    0    0 -0.94696606998E+02  0.20922236128E+01  0.30043517716E+02  0.99370205461E+02  0.00000000000E+00 0.  1.
         14    1    6    6    0    0 -0.29238791432E+02  0.49143426135E+02  0.47462381007E+02  0.74314607363E+02  0.00000000000E+00 0. -1.
         -5    1    3    3    0  503 -0.19913168720E+01 -0.44639194565E+02  0.50868748431E+02  0.67870042001E+02  0.47000000000E+01 0.  1.
         13    1    4    4    0    0  0.75120573002E+01 -0.20921928868E+02  0.38168992189E+02  0.44170466119E+02  0.00000000000E+00 0. -1.
        -14    1    4    4    0    0  0.17640787961E+03  0.13076535834E+02  0.48029364782E+03  0.51183271086E+03  0.00000000000E+00 0.  1.
</event>
<event>
12    1  0.8747122E-002  0.1819931E+03  0.7818608E-02  0.1166085E+00
         21   -1    0    0  501  502  0.00000000000E+00  0.00000000000E+00  0.27502030701E+02  0.27502030701E+02  0.00000000000E+00 0.  1.
         21   -1    0    0  502  503 -0.00000000000E+00 -0.00000000000E+00 -0.13450304276E+04  0.13450304276E+04  0.00000000000E+00 0.  1.
         -6    2    1    2    0  503  0.54664439033E+01 -0.56575145424E+02 -0.88630523427E+03  0.90479747242E+03  0.17288975885E+03 0.  0.
        -24    2    3    3    0    0  0.32430504664E+01  0.19523000726E+02 -0.24415776553E+03  0.25813578890E+03  0.81421164991E+02 0.  0.
          6    2    1    2  501    0 -0.54664439033E+01  0.56575145424E+02 -0.43122316263E+03  0.46773498588E+03  0.17202317268E+03 0.  0.
         24    2    5    5    0    0 -0.44401927232E+02  0.89517667833E+02 -0.30339537490E+03  0.33002799637E+03  0.82974579720E+02 0.  0.
          5    1    5    5  501    0  0.38935483329E+02 -0.32942522409E+02 -0.12782778773E+03  0.13770698951E+03  0.47000000000E+01 0. -1.
        -11    1    6    6    0    0 -0.14106773054E+02  0.27215211269E+02 -0.21762810572E+03  0.21977638902E+03  0.00000000000E+00 0.  1.
         12    1    6    6    0    0 -0.30295154178E+02  0.62302456564E+02 -0.85767269176E+02  0.11025160735E+03  0.00000000000E+00 0. -1.
         -5    1    3    3    0  503  0.22233934370E+01 -0.76098146150E+02 -0.64214746874E+03  0.64666168353E+03  0.47000000000E+01 0.  1.
         11    1    4    4    0    0 -0.37380033527E+02  0.44837262104E+00 -0.13581626387E+03  0.14086704894E+03  0.00000000000E+00 0. -1.
        -12    1    4    4    0    0  0.40623083994E+02  0.19074628105E+02 -0.10834150166E+03  0.11726873996E+03  0.00000000000E+00 0.  1.
</event>
<event>
12    1  0.8747122E-002  0.2664649E+03  0.7818608E-02  0.1103373E+00
         21   -1    0    0  503  502  0.00000000000E+00  0.00000000000E+00  0.50725399790E+03  0.50725399790E+03  0.00000000000E+00 0. -1.
         21   -1    0    0  501  503 -0.00000000000E+00 -0.00000000000E+00 -0.19423590768E+03  0.19423590768E+03  0.00000000000E+00 0.  1.
          6    2    1    2  501    0  0.38706097167E+02 -0.19980340958E+03 -0.29119129594E+02  0.26805127155E+03  0.17199998846E+03 0.  0.
         24    2    3    3    0    0 -0.26555387644E+02 -0.17007532362E+03 -0.44496536370E+02  0.19455722326E+03  0.79004854637E+02 0.  0.
         -6    2    1    2    0  502 -0.38706097167E+02  0.19980340958E+03  0.34213721982E+03  0.43343863403E+03  0.17143980822E+03 0.  0.
        -24    2    5    5    0    0 -0.84003537181E+02  0.10232025659E+03  0.23784033193E+03  0.28358952988E+03  0.79554816319E+02 0.  0.
          5    1    3    3  501    0  0.65261484811E+02 -0.29728085967E+02  0.15377406776E+02  0.73494048290E+02  0.47000000000E+01 0. -1.
        -11    1    4    4    0    0  0.93194919390E+01 -0.47566713814E+01 -0.21400585991E+02  0.23821501494E+02  0.00000000000E+00 0.  1.
         12    1    4    4    0    0 -0.35874879583E+02 -0.16531865224E+03 -0.23095950379E+02  0.17073572176E+03  0.00000000000E+00 0. -1.
         -5    1    5    5    0  502  0.45297440014E+02  0.97483152998E+02  0.10429688789E+03  0.14984910415E+03  0.47000000000E+01 0.  1.
         13    1    6    6    0    0 -0.31108507638E+02 -0.79224543082E+01  0.53073888760E+02  0.62026947352E+02  0.00000000000E+00 0. -1.
        -14    1    6    6    0    0 -0.52895029543E+02  0.11024271090E+03  0.18476644317E+03  0.22156258253E+03  0.00000000000E+00 0.  1.
</event>
<event>
12    1  0.8747122E-002  0.1924945E+03  0.7818608E-02  0.1156250E+00
         21   -1    0    0  503  502  0.00000000000E+00  0.00000000000E+00  0.24072843027E+03  0.24072843027E+03  0.00000000000E+00 0.  1.
         21   -1    0    0  501  503 -0.00000000000E+00 -0.00000000000E+00 -0.15386867224E+03  0.15386867224E+03  0.00000000000E+00 0.  1.
          6    2    1    2  501    0  0.46829348310E+02  0.71516529252E+02  0.45225692968E+02  0.19765162553E+03  0.17237517208E+03 0.  0.
         24    2    3    3    0    0  0.79802626197E+02  0.99160538761E+02  0.37540617242E+02  0.15369052107E+03  0.77525523082E+02 0.  0.
         -6    2    1    2    0  502 -0.46829348310E+02 -0.71516529252E+02  0.41634065066E+02  0.19694547698E+03  0.17247180555E+03 0.  0.
        -24    2    5    5    0    0 -0.14987537174E+02 -0.91568845686E+02 -0.21219678615E+02  0.12353785186E+03  0.78751801961E+02 0.  0.
          5    1    3    3  501    0 -0.32973277887E+02 -0.27644009509E+02  0.76850757259E+01  0.43961104459E+02  0.47000000000E+01 0. -1.
        -11    1    4    4    0    0  0.11931275117E+02  0.89375388068E+01  0.37966534637E+02  0.40788389012E+02  0.00000000000E+00 0.  1.
         12    1    4    4    0    0  0.67871351080E+02  0.90222999954E+02 -0.42591739483E+00  0.11290213206E+03  0.00000000000E+00 0. -1.
         -5    1    5    5    0  502 -0.31841811136E+02  0.20052316434E+02  0.62853743682E+02  0.73407625119E+02  0.47000000000E+01 0.  1.
         13    1    6    6    0    0 -0.35775843867E+02 -0.24558174129E+02 -0.30108258486E+02  0.52815927048E+02  0.00000000000E+00 0. -1.
        -14    1    6    6    0    0  0.20788306693E+02 -0.67010671556E+02  0.88885798700E+01  0.70721924816E+02  0.00000000000E+00 0.  1.
</event>
<event>
12    1  0.8747122E-002  0.2526484E+03  0.7818608E-02  0.1112461E+00
         21   -1    0    0  503  502  0.00000000000E+00  0.00000000000E+00  0.25823523339E+03  0.25823523339E+03  0.00000000000E+00 0. -1.
         21   -1    0    0  501  503 -0.00000000000E+00 -0.00000000000E+00 -0.25215550553E+03  0.25215550553E+03  0.00000000000E+00 0.  1.
          6    2    1    2  501    0  0.17776001244E+03  0.79231980568E+01  0.53956400655E+02  0.25834568133E+03  0.17935941236E+03 0.  0.
         24    2    3    3    0    0  0.10101541279E+03  0.77956342290E+02  0.48420344222E+02  0.15419620804E+03  0.71767930967E+02 0.  0.
         -6    2    1    2    0  502 -0.17776001244E+03 -0.79231980568E+01 -0.47876672797E+02  0.25204505759E+03  0.17196841620E+03 0.  0.
        -24    2    5    5    0    0 -0.94982798962E+02 -0.67584171937E+02 -0.10836593681E+02  0.14339168058E+03  0.82791242905E+02 0.  0.
          5    1    3    3  501    0  0.76744599650E+02 -0.70033144233E+02  0.55360564331E+01  0.10414947329E+03  0.47000000000E+01 0. -1.
        -13    1    4    4    0    0  0.31208564794E+02  0.44517414768E+02 -0.12392650714E+02  0.55761568538E+02  0.00000000000E+00 0.  1.
         14    1    4    4    0    0  0.69806847996E+02  0.33438927522E+02  0.60812994936E+02  0.98434639503E+02  0.00000000000E+00 0. -1.
         -5    1    5    5    0  502 -0.82777213478E+02  0.59660973880E+02 -0.37040079117E+02  0.10865337701E+03  0.47000000000E+01 0.  1.
         13    1    6    6    0    0 -0.33769819739E+02 -0.28117405607E+01  0.30094610785E+02  0.45320990816E+02  0.00000000000E+00 0. -1.
        -14    1    6    6    0    0 -0.61212979223E+02 -0.64772431376E+02 -0.40931204466E+02  0.98070689764E+02  0.00000000000E+00 0.  1.
</event>
<event>
12    1  0.8747122E-002  0.2109985E+03  0.7818608E-02  0.1141086E+00
         21   -1    0    0  501  502  0.00000000000E+00  0.00000000000E+00  0.33371364525E+03  0.33371364525E+03  0.00000000000E+00 0.  1.
         21   -1    0    0  502  503 -0.00000000000E+00 -0.00000000000E+00 -0.13288309679E+03  0.13288309679E+03  0.00000000000E+00 0.  1.
         -6    2    1    2    0  503  0.10813813282E+03  0.58144027635E+02  0.86326014524E+02  0.22653082657E+03  0.16967454401E+03 0.  0.
        -24    2    3    3    0    0  0.14364162930E+03  0.42449126858E+02  0.64003039573E+02  0.18150601804E+03  0.80082454199E+02 0.  0.
          6    2    1    2  501    0 -0.10813813282E+03 -0.58144027635E+02  0.11450453393E+03  0.24006591547E+03  0.17159770325E+03 0.  0.
         24    2    5    5    0    0 -0.99815812347E+02 -0.39878041687E+02  0.98305567200E+01  0.13338115196E+03  0.78360942111E+02 0.  0.
          5    1    5    5  501    0 -0.83223204723E+01 -0.18265985948E+02  0.10467397721E+03  0.10668476351E+03  0.47000000000E+01 0. -1.
        -11    1    6    6    0    0 -0.17259230315E+02 -0.42728444723E+02  0.19838425808E+02  0.50171347979E+02  0.00000000000E+00 0.  1.
         12    1    6    6    0    0 -0.82556582032E+02  0.28504030356E+01 -0.10007869088E+02  0.83209803977E+02  0.00000000000E+00 0. -1.
         -5    1    3    3    0  503 -0.35503496482E+02  0.15694900777E+02  0.22322974951E+02  0.45024808534E+02  0.47000000000E+01 0.  1.
         11    1    4    4    0    0  0.50921536983E+02 -0.22250978577E+00 -0.14266232856E+02  0.52882679955E+02  0.00000000000E+00 0. -1.
        -12    1    4    4    0    0  0.92720092318E+02  0.42671636644E+02  0.78269272429E+02  0.12862333808E+03  0.00000000000E+00 0.  1.
</event>
<event>
12    1  0.8747122E-002  0.2584041E+03  0.7818608E-02  0.1108175E+00
         21   -1    0    0  501  502  0.00000000000E+00  0.00000000000E+00  0.18785108880E+03  0.18785108880E+03  0.00000000000E+00 0. -1.
         21   -1    0    0  502  503 -0.00000000000E+00 -0.00000000000E+00 -0.35697115743E+03  0.35697115743E+03  0.00000000000E+00 0.  1.
         -6    2    1    2    0  503 -0.42030761391E+02 -0.18799064247E+03 -0.10575448358E+03  0.27920722130E+03  0.17223703165E+03 0.  0.
        -24    2    3    3    0    0 -0.10513528097E+02 -0.59614472997E+02  0.13476496214E+02  0.10112888622E+03  0.79881261974E+02 0.  0.
          6    2    1    2  501    0  0.42030761391E+02  0.18799064247E+03 -0.63365585043E+02  0.26561502492E+03  0.17154905286E+03 0.  0.
         24    2    5    5    0    0 -0.25639649778E+02  0.16479231220E+03 -0.32323198479E+02  0.18749225719E+03  0.79338890493E+02 0.  0.
          5    1    5    5  501    0  0.67670411169E+02  0.23198330268E+02 -0.31042386564E+02  0.78122767735E+02  0.47000000000E+01 0. -1.
        -11    1    6    6    0    0 -0.67699187837E+01  0.11221770620E+03  0.16097677968E+02  0.11356839622E+03  0.00000000000E+00 0.  1.
         12    1    6    6    0    0 -0.18869730994E+02  0.52574606000E+02 -0.48420876447E+02  0.73923860964E+02  0.00000000000E+00 0. -1.
         -5    1    3    3    0  503 -0.31517233294E+02 -0.12837616947E+03 -0.11923097980E+03  0.17807833508E+03  0.47000000000E+01 0.  1.
         13    1    4    4    0    0 -0.41697371061E+02 -0.27308957454E+02 -0.94209943115E+01  0.50726768520E+02  0.00000000000E+00 0. -1.
        -14    1    4    4    0    0  0.31183842964E+02 -0.32305515543E+02  0.22897490526E+02  0.50402117703E+02  0.00000000000E+00 0.  1.
</event>
<event>
12    1  0.8747122E-002  0.1882846E+03  0.7818608E-02  0.1160779E+00
         21   -1    0    0  501  502  0.00000000000E+00  0.00000000000E+00  0.28851773978E+04  0.28851773978E+04  0.00000000000E+00 0. -1.
         21   -1    0    0  502  503 -0.00000000000E+00 -0.00000000000E+00 -0.12400606026E+02  0.12400606026E+02  0.00000000000E+00 0. -1.
         -6    2    1    2    0  503 -0.69576899027E+02  0.35856955453E+02  0.16596131455E+04  0.16698902955E+04  0.16760411692E+03 0.  0.
        -24    2    3    3    0    0 -0.44990662035E+02  0.86535932816E+02  0.12863268920E+04  0.12923488290E+04  0.77562849062E+02 0.  0.
          6    2    1    2  501    0  0.69576899027E+02 -0.35856955453E+02  0.12131636463E+04  0.12276877084E+04  0.17124371670E+03 0.  0.
         24    2    5    5    0    0  0.19368853829E+02 -0.84743881006E+02  0.78746520405E+03  0.79623431227E+03  0.79567295940E+02 0.  0.
          5    1    5    5  501    0  0.50208045198E+02  0.48886925553E+02  0.42569844221E+03  0.43145339609E+03  0.47000000000E+01 0. -1.
        -11    1    6    6    0    0  0.62908059355E+01  0.45358246727E+01  0.66310614504E+01  0.10203867930E+02  0.00000000000E+00 0.  1.
         12    1    6    6    0    0  0.13078047894E+02 -0.89279705679E+02  0.78083414260E+03  0.78603044434E+03  0.00000000000E+00 0. -1.
         -5    1    3    3    0  503 -0.24586236992E+02 -0.50678977363E+02  0.37328625354E+03  0.37754146643E+03  0.47000000000E+01 0.  1.
         13    1    4    4    0    0 -0.38687834507E+02  0.57495456967E+02  0.11775036287E+04  0.11795411276E+04  0.00000000000E+00 0. -1.
        -14    1    4    4    0    0 -0.63028275283E+01  0.29040475848E+02  0.10882326328E+03  0.11280770144E+03  0.00000000000E+00 0.  1.
</event>
<event>
12    1  0.8747122E-002  0.2649546E+03  0.7818608E-02  0.1104395E+00
         21   -1    0    0  501  502  0.00000000000E+00  0.00000000000E+00  0.12032894510E+03  0.12032894510E+03  0.00000000000E+00 0. -1.
         21   -1    0    0  502  503 -0.00000000000E+00 -0.00000000000E+00 -0.59665283699E+03  0.59665283699E+03  0.00000000000E+00 0.  1.
         -6    2    1    2    0  503 -0.14130812736E+03  0.14116336126E+03 -0.29768533341E+03  0.39851910553E+03  0.17408572120E+03 0.  0.
        -24    2    3    3    0    0 -0.23052915277E+02  0.68906915424E+01 -0.59473975290E+02  0.10055906433E+03  0.77434185917E+02 0.  0.
          6    2    1    2  501    0  0.14130812736E+03 -0.14116336126E+03 -0.17863855848E+03  0.31846267656E+03  0.17208038924E+03 0.  0.
         24    2    5    5    0    0  0.11655914723E+03 -0.45081202719E+02 -0.15942820606E+03  0.21729241982E+03  0.78614840731E+02 0.  0.
          5    1    5    5  501    0  0.24748980124E+02 -0.96082158545E+02 -0.19210352429E+02  0.10117025674E+03  0.47000000000E+01 0. -1.
        -11    1    6    6    0    0  0.74193491529E+02 -0.21617704745E+01 -0.42000635859E+02  0.85284235644E+02  0.00000000000E+00 0.  1.
         12    1    6    6    0    0  0.42365655705E+02 -0.42919432244E+02 -0.11742757020E+03  0.13200818418E+03  0.00000000000E+00 0. -1.
         -5    1    3    3    0  503 -0.11825521208E+03  0.13427266972E+03 -0.23821135812E+03  0.29796004121E+03  0.47000000000E+01 0.  1.
         13    1    4    4    0    0 -0.25028187923E+02  0.36106825323E+02 -0.13335256969E+02  0.45912330632E+02  0.00000000000E+00 0. -1.
        -14    1    4    4    0    0  0.19752726466E+01 -0.29216133781E+02 -0.46138718321E+02  0.54646733694E+02  0.00000000000E+00 0.  1.
</event>
<event>
12    1  0.8747122E-002  0.1889152E+03  0.7818608E-02  0.1159879E+00
         21   -1    0    0  501  502  0.00000000000E+00  0.00000000000E+00  0.44487275869E+03  0.44487275869E+03  0.00000000000E+00 0. -1.
         21   -1    0    0  502  503 -0.00000000000E+00 -0.00000000000E+00 -0.11534045270E+03  0.11534045270E+03  0.00000000000E+00 0. -1.
         -6    2    1    2    0  503  0.20542252539E+02  0.71900060266E+02  0.90158235641E+01  0.18913023976E+03  0.17348590638E+03 0.  0.
        -24    2    3    3    0    0  0.38118282843E+02  0.10635962708E+03 -0.20868299084E+02  0.14002291472E+03  0.80034723601E+02 0.  0.
          6    2    1    2  501    0 -0.20542252539E+02 -0.71900060266E+02  0.32051648242E+03  0.37108297163E+03  0.17140639873E+03 0.  0.
         24    2    5    5    0    0 -0.53236868684E+02 -0.36617969527E+02  0.30298709626E+03  0.31967156015E+03  0.78826936923E+02 0.  0.
          5    1    5    5  501    0  0.32694616145E+02 -0.35282090739E+02  0.17529386159E+02  0.51411411485E+02  0.47000000000E+01 0. -1.
        -13    1    6    6    0    0 -0.49554530186E+02 -0.25161746513E+02  0.86278747604E+02  0.10262936830E+03  0.00000000000E+00 0.  1.
         14    1    6    6    0    0 -0.36823384975E+01 -0.11456223014E+02  0.21670834866E+03  0.21704219185E+03  0.00000000000E+00 0. -1.
         -5    1    3    3    0  503 -0.17576030304E+02 -0.34459566810E+02  0.29884122648E+02  0.49107325039E+02  0.47000000000E+01 0.  1.
         11    1    4    4    0    0  0.39808298216E+02  0.16566422804E+02 -0.25501018275E+02  0.50094399931E+02  0.00000000000E+00 0. -1.
        -12    1    4    4    0    0 -0.16900153725E+01  0.89793204272E+02  0.46327191912E+01  0.89928514791E+02  0.00000000000E+00 0.  1.
</event>
<event>
12    1  0.8747122E-002  0.1930431E+03  0.7818608E-02  0.1156357E+00
         21   -1    0    0  501  502  0.00000000000E+00  0.00000000000E+00  0.16979546826E+04  0.16979546826E+04  0.00000000000E+00 0.  1.
         21   -1    0    0  502  503 -0.00000000000E+00 -0.00000000000E+00 -0.62128229223E+02  0.62128229223E+02  0.00000000000E+00 0.  1.
         -6    2    1    2    0  503 -0.75654414296E+02  0.22902340804E+02  0.10540996158E+03  0.21753947065E+03  0.17310128155E+03 0.  0.
        -24    2    3    3    0    0  0.39994250056E+01 -0.24431066013E+02  0.90854021483E+02  0.12362913625E+03  0.80105166641E+02 0.  0.
          6    2    1    2  501    0  0.75654414296E+02 -0.22902340804E+02  0.15304164918E+04  0.15425434412E+04  0.17611792046E+03 0.  0.
         24    2    5    5    0    0  0.30416242294E+02  0.55315280560E+02  0.69202318787E+03  0.69928196892E+03  0.78193679124E+02 0.  0.
          5    1    5    5  501    0  0.45238172002E+02 -0.78217621364E+02  0.83839330396E+03  0.84326147227E+03  0.47000000000E+01 0. -1.
        -11    1    6    6    0    0  0.33652140472E+02  0.84105333878E+01  0.51353848491E+03  0.51470863517E+03  0.00000000000E+00 0.  1.
         12    1    6    6    0    0 -0.32358981776E+01  0.46904747172E+02  0.17848470295E+03  0.18457333375E+03  0.00000000000E+00 0. -1.
         -5    1    3    3    0  503 -0.79653839302E+02  0.47333406816E+02  0.14555940093E+02  0.93910334407E+02  0.47000000000E+01 0.  1.
         13    1    4    4    0    0 -0.11955783240E+02 -0.76545415124E+01  0.98291759672E+02  0.99311644726E+02  0.00000000000E+00 0. -1.
        -14    1    4    4    0    0  0.15955208246E+02 -0.16776524500E+02 -0.74377381898E+01  0.24317491520E+02  0.00000000000E+00 0.  1.
</event>
<event>
12    1  0.8747122E-002  0.2527424E+03  0.7818608E-02  0.1113854E+00
         21   -1    0    0  503  502  0.00000000000E+00  0.00000000000E+00  0.31152676452E+03  0.31152676452E+03  0.00000000000E+00 0. -1.
         21   -1    0    0  501  503 -0.00000000000E+00 -0.00000000000E+00 -0.43740011991E+03  0.43740011991E+03  0.00000000000E+00 0.  1.
          6    2    1    2  501    0 -0.12282694904E+03  0.11001653791E+03 -0.34156796301E+03  0.41665762695E+03  0.17246682787E+03 0.  0.
         24    2    3    3    0    0 -0.90699684280E+02  0.29924389065E+00 -0.20681203701E+03  0.23987726792E+03  0.80891054731E+02 0.  0.
         -6    2    1    2    0  502  0.12282694904E+03 -0.11001653791E+03  0.21569460761E+03  0.33226925748E+03  0.19154267851E+03 0.  0.
        -24    2    5    5    0    0  0.76538987043E+02 -0.14694724975E+03  0.12412357062E+03  0.22311891292E+03  0.83208640000E+02 0.  0.
          5    1    3    3  501    0 -0.32127264762E+02  0.10971729402E+03 -0.13475592599E+03  0.17678035903E+03  0.47000000000E+01 0. -1.
        -13    1    4    4    0    0 -0.73755079648E+02  0.28649324082E+02 -0.18235116425E+03  0.19877762109E+03  0.00000000000E+00 0.  1.
         14    1    4    4    0    0 -0.16944604632E+02 -0.28350080191E+02 -0.24460872767E+02  0.41099646830E+02  0.00000000000E+00 0. -1.
         -5    1    5    5    0  502  0.46287961999E+02  0.36930711846E+02  0.91571036988E+02  0.10915034456E+03  0.47000000000E+01 0.  1.
         13    1    6    6    0    0  0.16373898185E+02 -0.70152080674E+02  0.98899094035E+02  0.12235378934E+03  0.00000000000E+00 0. -1.
        -14    1    6    6    0    0  0.60165088858E+02 -0.76795169079E+02  0.25224476589E+02  0.10076512358E+03  0.00000000000E+00 0.  1.
</event>
<event>
12    1  0.8747122E-002  0.1831656E+03  0.7818608E-02  0.1167322E+00
         21   -1    0    0  503  502  0.00000000000E+00  0.00000000000E+00  0.10156320544E+03  0.10156320544E+03  0.00000000000E+00 0.  1.
         21   -1    0    0  501  503 -0.00000000000E+00 -0.00000000000E+00 -0.42004352433E+03  0.42004352433E+03  0.00000000000E+00 0. -1.
          6    2    1    2  501    0 -0.77963902779E+01 -0.62313296816E+02 -0.28814092036E+03  0.33594538686E+03  0.16090488590E+03 0.  0.
         24    2    3    3    0    0 -0.52911932953E+02 -0.64231366855E+02 -0.15541821314E+03  0.19567244509E+03  0.84897253507E+02 0.  0.
         -6    2    1    2    0  502  0.77963902779E+01  0.62313296816E+02 -0.30339398524E+02  0.18566134291E+03  0.17206372217E+03 0.  0.
        -24    2    5    5    0    0 -0.74295255984E+01 -0.71071067527E+01  0.36217776901E+02  0.88178172329E+02  0.79736778807E+02 0.  0.
          5    1    3    3  501    0  0.45115542675E+02  0.19180700392E+01 -0.13272270721E+03  0.14027294177E+03  0.47000000000E+01 0. -1.
        -11    1    4    4    0    0 -0.46826968452E+02 -0.16223482251E+02 -0.22895915882E+02  0.54591110218E+02  0.00000000000E+00 0.  1.
         12    1    4    4    0    0 -0.60849645008E+01 -0.48007884604E+02 -0.13252229726E+03  0.14108133487E+03  0.00000000000E+00 0. -1.
         -5    1    5    5    0  502  0.15225915876E+02  0.69420403569E+02 -0.66557175425E+02  0.97483170580E+02  0.47000000000E+01 0.  1.
         11    1    6    6    0    0  0.32081585893E+02  0.98286118006E+01  0.26889888518E+01  0.33660962915E+02  0.00000000000E+00 0. -1.
        -12    1    6    6    0    0 -0.39511111491E+02 -0.16935718553E+02  0.33528788049E+02  0.54517209414E+02  0.00000000000E+00 0.  1.
</event>
<event>
12    1  0.8747122E-002  0.1758098E+03  0.7818608E-02  0.1171979E+00
         21   -1    0    0  503  502  0.00000000000E+00  0.00000000000E+00  0.31246441426E+03  0.31246441426E+03  0.00000000000E+00 0.  1.
         21   -1    0    0  501  503 -0.00000000000E+00 -0.00000000000E+00 -0.12586432971E+03  0.12586432971E+03  0.00000000000E+00 0.  1.
          6    2    1    2  501    0 -0.13511582827E+02 -0.36746449894E+02 -0.82987872886E+01  0.17600557846E+03  0.17139495129E+03 0.  0.
         24    2    3    3    0    0 -0.28478961039E+02  0.28758034227E+01  0.53724570378E+02  0.10075312159E+03  0.80284124085E+02 0.  0.
         -6    2    1    2    0  502  0.13511582827E+02  0.36746449894E+02  0.19489887184E+03  0.26232316551E+03  0.17115784666E+03 0.  0.
        -24    2    5    5    0    0  0.23199032753E+02  0.54205614555E+02  0.41055935254E+02  0.10711875755E+03  0.79450579787E+02 0.  0.
          5    1    3    3  501    0  0.14967378211E+02 -0.39622253316E+02 -0.62023357667E+02  0.75252456868E+02  0.47000000000E+01 0. -1.
        -13    1    4    4    0    0 -0.15175330765E+01  0.95981422272E+01 -0.19852933968E+02  0.22103534287E+02  0.00000000000E+00 0.  1.
         14    1    4    4    0    0 -0.26961427962E+02 -0.67223388045E+01  0.73577504346E+02  0.78649587300E+02  0.00000000000E+00 0. -1.
         -5    1    5    5    0  502 -0.96874499259E+01 -0.17459164662E+02  0.15384293658E+03  0.15520440797E+03  0.47000000000E+01 0.  1.
         13    1    6    6    0    0  0.52615875643E+02  0.30348759152E+02  0.29462044333E+02  0.67509181657E+02  0.00000000000E+00 0. -1.
        -14    1    6    6    0    0 -0.29416842890E+02  0.23856855404E+02  0.11593890921E+02  0.39609575888E+02  0.00000000000E+00 0.  1.
</event>
<event>
12    1  0.8747122E-002  0.2073881E+03  0.7818608E-02  0.1144287E+00
         21   -1    0    0  503  502  0.00000000000E+00  0.00000000000E+00  0.16646771066E+04  0.16646771066E+04  0.00000000000E+00 0. -1.
         21   -1    0    0  501  503 -0.00000000000E+00 -0.00000000000E+00 -0.94287452721E+02  0.94287452721E+02  0.00000000000E+00 0.  1.
          6    2    1    2  501    0  0.85780482860E+02  0.78694117079E+02  0.32105115658E+02  0.20676316685E+03  0.16783686548E+03 0.  0.
         24    2    3    3    0    0  0.49837969009E+02  0.11180327894E+03  0.50644919890E+02  0.15428559791E+03  0.79090716740E+02 0.  0.
         -6    2    1    2    0  502 -0.85780482860E+02 -0.78694117079E+02  0.15382845382E+04  0.15522013924E+04  0.17163562259E+03 0.  0.
        -24    2    5    5    0    0 -0.67786159397E+02 -0.43580386315E+02  0.14592112177E+04  0.14637059136E+04  0.81507116881E+02 0.  0.
          5    1    3    3  501    0  0.35942513851E+02 -0.33109161864E+02 -0.18539804232E+02  0.52477568944E+02  0.47000000000E+01 0. -1.
        -13    1    4    4    0    0  0.49874930782E+02  0.73294306902E+02  0.68309394444E+02  0.11191844135E+03  0.00000000000E+00 0.  1.
         14    1    4    4    0    0 -0.36961772536E-01  0.38508972040E+02 -0.17664474554E+02  0.42367156561E+02  0.00000000000E+00 0. -1.
         -5    1    5    5    0  502 -0.17994323463E+02 -0.35113730764E+02  0.79073320491E+02  0.88495478859E+02  0.47000000000E+01 0.  1.
         11    1    6    6    0    0 -0.39198754100E+02 -0.55968444644E+02  0.59118896316E+03  0.59512469221E+03  0.00000000000E+00 0. -1.
        -12    1    6    6    0    0 -0.28587405297E+02  0.12388058329E+02  0.86802225454E+03  0.86858122136E+03  0.00000000000E+00 0.  1.
</event>
<event>
12    1  0.8747122E-002  0.1801164E+03  0.7818608E-02  0.1167810E+00
         21   -1    0    0  503  502  0.00000000000E+00  0.00000000000E+00  0.35065654704E+02  0.35065654704E+02  0.00000000000E+00 0.  1.
         21   -1    0    0  501  503 -0.00000000000E+00 -0.00000000000E+00 -0.97433317394E+03  0.97433317394E+03  0.00000000000E+00 0. -1.
          6    2    1    2  501    0  0.31885132855E+02 -0.39993333693E+02 -0.58526948956E+03  0.61221306882E+03  0.17218692685E+03 0.  0.
         24    2    3    3    0    0  0.33076941938E+02  0.66708138053E+01 -0.54078364230E+03  0.54755981153E+03  0.78969713061E+02 0.  0.
         -6    2    1    2    0  502 -0.31885132855E+02  0.39993333693E+02 -0.35399802967E+03  0.39718575983E+03  0.17270146022E+03 0.  0.
        -24    2    5    5    0    0  0.38497616221E+02  0.13630124080E+02 -0.27007477395E+03  0.28442959352E+03  0.79321897425E+02 0.  0.
          5    1    3    3  501    0 -0.11918090827E+01 -0.46664147498E+02 -0.44485847263E+02  0.64653257283E+02  0.47000000000E+01 0. -1.
        -13    1    4    4    0    0 -0.11728649296E+02 -0.72476452605E+01 -0.17992493679E+02  0.22667584894E+02  0.00000000000E+00 0.  1.
         14    1    4    4    0    0  0.44805591234E+02  0.13918459066E+02 -0.52279114862E+03  0.52489222664E+03  0.00000000000E+00 0. -1.
         -5    1    5    5    0  502 -0.70382749077E+02  0.26363209612E+02 -0.83923255727E+02  0.11275616631E+03  0.47000000000E+01 0.  1.
         13    1    6    6    0    0  0.21737427073E+01 -0.15391084978E+02 -0.19832313306E+03  0.19893133429E+03  0.00000000000E+00 0. -1.
        -14    1    6    6    0    0  0.36323873514E+02  0.29021209058E+02 -0.71751640887E+02  0.85498259235E+02  0.00000000000E+00 0.  1.
</event>
<event>
12    1  0.8747122E-002  0.2609570E+03  0.7818608E-02  0.1107183E+00
         21   -1    0    0  501  502  0.00000000000E+00  0.00000000000E+00  0.75270802194E+03  0.75270802194E+03  0.00000000000E+00 0. -1.
         21   -1    0    0  502  503 -0.00000000000E+00 -0.00000000000E+00 -0.95070491085E+02  0.95070491085E+02  0.00000000000E+00 0.  1.
         -6    2    1    2    0  503  0.13235127870E+03 -0.14351522608E+03  0.43292328869E+03  0.50340218935E+03  0.16696619196E+03 0.  0.
        -24    2    3    3    0    0  0.14006541120E+03 -0.11368082062E+03  0.42840201084E+03  0.47190406968E+03  0.81385009023E+02 0.  0.
          6    2    1    2  501    0 -0.13235127870E+03  0.14351522608E+03  0.22471424216E+03  0.34437632368E+03  0.17316200676E+03 0.  0.
         24    2    5    5    0    0 -0.67208754679E+02  0.16304864885E+03  0.16841060984E+03  0.25596087223E+03  0.77794318638E+02 0.  0.
          5    1    5    5  501    0 -0.65142524022E+02 -0.19533422764E+02  0.56303632325E+02  0.88415451443E+02  0.47000000000E+01 0. -1.
        -11    1    6    6    0    0 -0.62631385397E+02  0.10905420518E+03  0.15598434449E+03  0.20036622927E+03  0.00000000000E+00 0.  1.
         12    1    6    6    0    0 -0.45773692820E+01  0.53994443665E+02  0.12426265350E+02  0.55594642969E+02  0.00000000000E+00 0. -1.
         -5    1    3    3    0  503 -0.77141324959E+01 -0.29834405463E+02  0.45212778503E+01  0.31498119672E+02  0.47000000000E+01 0.  1.
         13    1    4    4    0    0  0.70492539715E+02 -0.38306555875E+02  0.10204442595E+03  0.12980622191E+03  0.00000000000E+00 0. -1.
        -14    1    4    4    0    0  0.69572871482E+02 -0.75374264743E+02  0.32635758489E+03  0.34209784777E+03  0.00000000000E+00 0.  1.
</event>
<event>
12    1  0.8747122E-002  0.1985696E+03  0.7818608E-02  0.1151039E+00
         21   -1    0    0  501  502  0.00000000000E+00  0.00000000000E+00  0.33093017843E+03  0.33093017843E+03  0.00000000000E+00 0. -1.
         21   -1    0    0  502  503 -0.00000000000E+00 -0.00000000000E+00 -0.13135944265E+03  0.13135944265E+03  0.00000000000E+00 0. -1.
         -6    2    1    2    0  503 -0.90332310276E+02  0.38767965145E+02  0.28507639055E+02  0.20019711172E+03  0.17205614390E+03 0.  0.
        -24    2    3    3    0    0 -0.74231683260E+02 -0.24373694232E+02 -0.23404322550E+02  0.11675227307E+03  0.83539877803E+02 0.  0.
          6    2    1    2  501    0  0.90332310276E+02 -0.38767965145E+02  0.17106309673E+03  0.26209250936E+03  0.17253121167E+03 0.  0.
         24    2    5    5    0    0  0.13008351637E+03 -0.18752621084E+02  0.13872774106E+03  0.20687985130E+03  0.79249635381E+02 0.  0.
          5    1    5    5  501    0 -0.39751206091E+02 -0.20015344062E+02  0.32335355669E+02  0.55212658058E+02  0.47000000000E+01 0. -1.
        -13    1    6    6    0    0  0.36312618554E+02 -0.32591847668E+02  0.15059745882E+02  0.51064965942E+02  0.00000000000E+00 0.  1.
         14    1    6    6    0    0  0.93770897813E+02  0.13839226584E+02  0.12366799518E+03  0.15581488536E+03  0.00000000000E+00 0. -1.
         -5    1    3    3    0  503 -0.16100627016E+02  0.63141659378E+02  0.51911961605E+02  0.83444838648E+02  0.47000000000E+01 0.  1.
         13    1    4    4    0    0 -0.67862488449E+02  0.18207855843E+02 -0.22177253042E+02  0.73679535187E+02  0.00000000000E+00 0. -1.
        -14    1    4    4    0    0 -0.63691948111E+01 -0.42581550075E+02 -0.12270695080E+01  0.43072737885E+02  0.00000000000E+00 0.  1.
</event>
<event>
12    1  0.8747122E-002  0.1791554E+03  0.7818608E-02  0.1168636E+00
         21   -1    0    0  503  502  0.00000000000E+00  0.00000000000E+00  0.64285072889E+02  0.64285072889E+02  0.00000000000E+00 0.  1.
         21   -1    0    0  501  503 -0.00000000000E+00 -0.00000000000E+00 -0.71951244386E+03  0.71951244386E+03  0.00000000000E+00 0.  1.
          6    2    1    2  501    0 -0.42974583318E+02 -0.16505379096E+02 -0.54453522255E+03  0.57324972608E+03  0.17313982065E+03 0.  0.
         24    2    3    3    0    0 -0.91951288953E+02 -0.42735590944E+01 -0.44713350671E+03  0.46344298965E+03  0.79860684860E+02 0.  0.
         -6    2    1    2    0  502  0.42974583318E+02  0.16505379096E+02 -0.11069214842E+03  0.21054779067E+03  0.17308488694E+03 0.  0.
        -24    2    5    5    0    0 -0.19722726156E+02 -0.42373922108E+02 -0.62578968326E+02  0.11188324373E+03  0.80107413816E+02 0.  0.
          5    1    3    3  501    0  0.48976705635E+02 -0.12231820001E+02 -0.97401715844E+02  0.10980673643E+03  0.47000000000E+01 0. -1.
        -11    1    4    4    0    0 -0.34015098089E+02 -0.16732604076E+02 -0.33001771815E+03  0.33218774997E+03  0.00000000000E+00 0.  1.
         12    1    4    4    0    0 -0.57936190865E+02  0.12459044981E+02 -0.11711578856E+03  0.13125523968E+03  0.00000000000E+00 0. -1.
         -5    1    5    5    0  502  0.62697309474E+02  0.58879301203E+02 -0.48113180094E+02  0.98664546947E+02  0.47000000000E+01 0.  1.
         11    1    6    6    0    0 -0.45463681384E+02 -0.21342518160E+02 -0.60426121208E+02  0.78573313094E+02  0.00000000000E+00 0. -1.
        -12    1    6    6    0    0  0.25740955228E+02 -0.21031403947E+02 -0.21528471184E+01  0.33309930633E+02  0.00000000000E+00 0.  1.
</event>
<event>
12    1  0.8747122E-002  0.3464239E+03  0.7818608E-02  0.1064241E+00
         21   -1    0    0  501  502  0.00000000000E+00  0.00000000000E+00  0.39251285652E+03  0.39251285652E+03  0.00000000000E+00 0.  1.
         21   -1    0    0  502  503 -0.00000000000E+00 -0.00000000000E+00 -0.40825958545E+03  0.40825958545E+03  0.00000000000E+00 0.  1.
         -6    2    1    2    0  503  0.29812765967E+03 -0.37955111337E+02 -0.20973966271E+03  0.40496941124E+03  0.17230439920E+03 0.  0.
        -24    2    3    3    0    0  0.55520927925E+02 -0.27662047524E+02 -0.83940067776E+02  0.13145231573E+03  0.79912539819E+02 0.  0.
          6    2    1    2  501    0 -0.29812765967E+03  0.37955111337E+02  0.19399293377E+03  0.39580303073E+03  0.16942871317E+03 0.  0.
         24    2    5    5    0    0 -0.19345197483E+03  0.89330928891E+02  0.11251202817E+03  0.25347347792E+03  0.78652184351E+02 0.  0.
          5    1    5    5  501    0 -0.10467568484E+03 -0.51375817554E+02  0.81480905610E+02  0.14232955282E+03  0.47000000000E+01 0. -1.
        -11    1    6    6    0    0 -0.10414674798E+03  0.24114072192E+02  0.91924980764E+02  0.14099019711E+03  0.00000000000E+00 0.  1.
         12    1    6    6    0    0 -0.89305226853E+02  0.65216856699E+02  0.20587047401E+02  0.11248328081E+03  0.00000000000E+00 0. -1.
         -5    1    3    3    0  503  0.24260673174E+03 -0.10293063812E+02 -0.12579959494E+03  0.27351709551E+03  0.47000000000E+01 0.  1.
         11    1    4    4    0    0  0.54043788577E+02 -0.47464483743E+02 -0.85264097101E+02  0.11155077120E+03  0.00000000000E+00 0. -1.
        -12    1    4    4    0    0  0.14771393483E+01  0.19802436219E+02  0.13240293248E+01  0.19901544526E+02  0.00000000000E+00 0.  1.
</event>
<event>
12    1  0.8747122E-002  0.1757605E+03  0.7818608E-02  0.1173097E+00
         21   -1    0    0  503  502  0.00000000000E+00  0.00000000000E+00  0.45862006222E+02  0.45862006222E+02  0.00000000000E+00 0. -1.
         21   -1    0    0  501  503 -0.00000000000E+00 -0.00000000000E+00 -0.69019002786E+03  0.69019002786E+03  0.00000000000E+00 0. -1.
          6    2    1    2  501    0 -0.33691870255E+02  0.16246337390E+02 -0.39937886776E+03  0.43456931516E+03  0.16717632628E+03 0.  0.
         24    2    3    3    0    0 -0.74248448715E+02 -0.65908261101E+01 -0.19868897653E+03  0.22849919473E+03  0.84724857471E+02 0.  0.
         -6    2    1    2    0  502  0.33691870255E+02 -0.16246337390E+02 -0.24494915388E+03  0.30148271891E+03  0.17173426047E+03 0.  0.
        -24    2    5    5    0    0 -0.11775504190E+02  0.46845955000E+02 -0.16957970666E+03  0.19308270475E+03  0.78679399864E+02 0.  0.
          5    1    3    3  501    0  0.40556578461E+02  0.22837163500E+02 -0.20068989123E+03  0.20607012043E+03  0.47000000000E+01 0. -1.
        -13    1    4    4    0    0 -0.71355054661E+02 -0.30293086140E+02 -0.18589278258E+03  0.20140839483E+03  0.00000000000E+00 0.  1.
         14    1    4    4    0    0 -0.28933940545E+01  0.23702260030E+02 -0.12796193951E+02  0.27090799901E+02  0.00000000000E+00 0. -1.
         -5    1    5    5    0  502  0.45467374445E+02 -0.63092292390E+02 -0.75369447214E+02  0.10840001417E+03  0.47000000000E+01 0.  1.
         11    1    6    6    0    0 -0.25902948325E+02 -0.12172314283E+02 -0.79260734783E+02  0.84269757596E+02  0.00000000000E+00 0. -1.
        -12    1    6    6    0    0  0.14127444135E+02  0.59018269283E+02 -0.90318971879E+02  0.10881294715E+03  0.00000000000E+00 0.  1.
</event>
<event>
12    1  0.8747122E-002  0.2039245E+03  0.7818608E-02  0.1146955E+00
         21   -1    0    0  501  502  0.00000000000E+00  0.00000000000E+00  0.58758848113E+03  0.58758848113E+03  0.00000000000E+00 0.  1.
         21   -1    0    0  502  503 -0.00000000000E+00 -0.00000000000E+00 -0.12130378058E+03  0.12130378058E+03  0.00000000000E+00 0.  1.
         -6    2    1    2    0  503  0.10394916979E+03  0.12240150364E+02  0.33258898431E+01  0.20395165198E+03  0.17501418120E+03 0.  0.
        -24    2    3    3    0    0 -0.13556989687E+02  0.31119476238E+02 -0.26226538462E+01  0.84697295112E+02  0.77553463594E+02 0.  0.
          6    2    1    2  501    0 -0.10394916979E+03 -0.12240150364E+02  0.46295881071E+03  0.50494060973E+03  0.17227567375E+03 0.  0.
         24    2    5    5    0    0 -0.70247242474E+02 -0.39936710033E+02  0.13694283471E+03  0.17598555820E+03  0.75418570882E+02 0.  0.
          5    1    5    5  501    0 -0.33701927315E+02  0.27696559668E+02  0.32601597600E+03  0.32895505153E+03  0.47000000000E+01 0. -1.
        -13    1    6    6    0    0 -0.33616205711E+02 -0.44217322705E+02  0.12570699781E+03  0.13743169290E+03  0.00000000000E+00 0.  1.
         14    1    6    6    0    0 -0.36631036763E+02  0.42806126724E+01  0.11235836899E+02  0.38553865306E+02  0.00000000000E+00 0. -1.
         -5    1    3    3    0  503  0.11750615948E+03 -0.18879325874E+02  0.59485436893E+01  0.11925435687E+03  0.47000000000E+01 0.  1.
         11    1    4    4    0    0 -0.41259628045E+02  0.26611823034E+02 -0.18480545505E+02  0.52460238217E+02  0.00000000000E+00 0. -1.
        -12    1    4    4    0    0  0.27702638358E+02  0.45076532045E+01  0.15857891659E+02  0.32237056896E+02  0.00000000000E+00 0.  1.
</event>
<event>
12    1  0.8747122E-002  0.3139205E+03  0.7818608E-02  0.1078570E+00
         21   -1    0    0  503  502  0.00000000000E+00  0.00000000000E+00  0.10821219597E+04  0.10821219597E+04  0.00000000000E+00 0. -1.
         21   -1    0    0  501  503 -0.00000000000E+00 -0.00000000000E+00 -0.10756085228E+03  0.10756085228E+03  0.00000000000E+00 0.  1.
          6    2    1    2  501    0 -0.24833715267E+03  0.84012844778E+02  0.25330852135E+03  0.40337483606E+03  0.17267469961E+03 0.  0.
         24    2    3    3    0    0 -0.12124552532E+03  0.10379194542E+03  0.18738485397E+03  0.25876669491E+03  0.79836542709E+02 0.  0.
         -6    2    1    2    0  502  0.24833715267E+03 -0.84012844778E+02  0.72125258602E+03  0.78630797588E+03  0.17130510968E+03 0.  0.
        -24    2    5    5    0    0  0.23374328527E+03 -0.21813087050E+02  0.54289621790E+03  0.59679577343E+03  0.79480548569E+02 0.  0.
          5    1    3    3  501    0 -0.12709162735E+03 -0.19779100641E+02  0.65923667385E+02  0.14460814115E+03  0.47000000000E+01 0. -1.
        -11    1    4    4    0    0 -0.12010730106E+03  0.11240002831E+03  0.15785325167E+03  0.22798504160E+03  0.00000000000E+00 0.  1.
         12    1    4    4    0    0 -0.11382242610E+01 -0.86080828944E+01  0.29531602302E+02  0.30781653304E+02  0.00000000000E+00 0. -1.
         -5    1    5    5    0  502  0.14593867408E+02 -0.62199757729E+02  0.17835636812E+03  0.18951220245E+03  0.47000000000E+01 0.  1.
         13    1    6    6    0    0  0.21287552319E+03 -0.37533535424E+02  0.51526208782E+03  0.55876629623E+03  0.00000000000E+00 0. -1.
        -14    1    6    6    0    0  0.20867762072E+02  0.15720448374E+02  0.27634130082E+02  0.38029477204E+02  0.00000000000E+00 0.  1.
</event>
<event>
12    1  0.8747122E-002  0.2934321E+03  0.7818608E-02  0.1088746E+00
         21   -1    0    0  503  502  0.00000000000E+00  0.00000000000E+00  0.99063303378E+02  0.99063303378E+02  0.00000000000E+00 0. -1.
         21   -1    0    0  501  503 -0.00000000000E+00 -0.00000000000E+00 -0.13445825192E+04  0.13445825192E+04  0.00000000000E+00 0.  1.
          6    2    1    2  501    0  0.20758037332E+03  0.11360683528E+03 -0.10528574051E+04  0.10926174174E+04  0.17119573813E+03 0.  0.
         24    2    3    3    0    0  0.46713557966E+02  0.51954626590E+02 -0.56720180447E+03  0.57728977442E+03  0.81634287719E+02 0.  0.
         -6    2    1    2    0  502 -0.20758037332E+03 -0.11360683528E+03 -0.19266181074E+03  0.35102840527E+03  0.17351150849E+03 0.  0.
        -24    2    5    5    0    0 -0.21978686875E+03 -0.65087072077E+02 -0.18004736321E+03  0.29921740028E+03  0.67612166081E+02 0.  0.
          5    1    3    3  501    0  0.16086681536E+03  0.61652208694E+02 -0.48565560066E+03  0.51532764293E+03  0.47000000000E+01 0. -1.
        -11    1    4    4    0    0  0.45126824219E+02  0.81060362424E+01 -0.44672539563E+03  0.44907206236E+03  0.00000000000E+00 0.  1.
         12    1    4    4    0    0  0.15867337467E+01  0.43848590348E+02 -0.12047640884E+03  0.12821771206E+03  0.00000000000E+00 0. -1.
         -5    1    5    5    0  502  0.12206495429E+02 -0.48519763207E+02 -0.12614447531E+02  0.51811004997E+02  0.47000000000E+01 0.  1.
         11    1    6    6    0    0 -0.67769088419E+02 -0.38411655705E+02 -0.28597888781E+02  0.82981587607E+02  0.00000000000E+00 0. -1.
        -12    1    6    6    0    0 -0.15201778033E+03 -0.26675416372E+02 -0.15144947443E+03  0.21623581267E+03  0.00000000000E+00 0.  1.
</event>
<event>
12    1  0.8747122E-002  0.1785656E+03  0.7818608E-02  0.1169533E+00
         21   -1    0    0  503  502  0.00000000000E+00  0.00000000000E+00  0.20820653651E+02  0.20820653651E+02  0.00000000000E+00 0. -1.
         21   -1    0    0  501  503 -0.00000000000E+00 -0.00000000000E+00 -0.23412986307E+04  0.23412986307E+04  0.00000000000E+00 0. -1.
          6    2    1    2  501    0 -0.41416098543E+02 -0.60771517089E+01 -0.18569531938E+04  0.18653890943E+04  0.17218909444E+03 0.  0.
         24    2    3    3    0    0 -0.29982129449E+00  0.40364898607E+02 -0.57393374354E+03  0.58086256207E+03  0.79824552071E+02 0.  0.
         -6    2    1    2    0  502  0.41416098543E+02  0.60771517089E+01 -0.46352478324E+03  0.49673019002E+03  0.17358983845E+03 0.  0.
        -24    2    5    5    0    0  0.16898983384E+02 -0.53277509972E+01 -0.46245345871E+03  0.46926387469E+03  0.77662230501E+02 0.  0.
          5    1    3    3  501    0 -0.41116277249E+02 -0.46442050316E+02 -0.12830194503E+04  0.12845265323E+04  0.47000000000E+01 0. -1.
        -11    1    4    4    0    0  0.27808297901E+02  0.17275142344E+02 -0.93722726538E+02  0.99275784786E+02  0.00000000000E+00 0.  1.
         12    1    4    4    0    0 -0.28108119195E+02  0.23089756264E+02 -0.48021101700E+03  0.48158677728E+03  0.00000000000E+00 0. -1.
         -5    1    5    5    0  502  0.24517115159E+02  0.11404902706E+02 -0.10713245230E+01  0.27466315328E+02  0.47000000000E+01 0.  1.
         11    1    6    6    0    0  0.30974440385E+02 -0.18799593640E+02 -0.10129553921E+03  0.10758079263E+03  0.00000000000E+00 0. -1.
        -12    1    6    6    0    0 -0.14075457001E+02  0.13471842643E+02 -0.36115791950E+03  0.36168308206E+03  0.00000000000E+00 0.  1.
</event>
<event>
12    1  0.8747122E-002  0.2455894E+03  0.7818608E-02  0.1116982E+00
         21   -1    0    0  503  502  0.00000000000E+00  0.00000000000E+00  0.32917009746E+02  0.32917009746E+02  0.00000000000E+00 0.  1.
         21   -1    0    0  501  503 -0.00000000000E+00 -0.00000000000E+00 -0.18033695580E+04  0.18033695580E+04  0.00000000000E+00 0.  1.
          6    2    1    2  501    0  0.62057980527E+01  0.17500158233E+03 -0.80745695173E+03  0.84246834931E+03  0.16462723025E+03 0.  0.
         24    2    3    3    0    0 -0.20332588214E+02  0.18042752068E+03 -0.59414413955E+03  0.62739121758E+03  0.87435558966E+02 0.  0.
         -6    2    1    2    0  502 -0.62057980527E+01 -0.17500158233E+03 -0.96299559654E+03  0.99381821845E+03  0.17219194705E+03 0.  0.
        -24    2    5    5    0    0 -0.33394041933E+02 -0.65045819017E+02 -0.68471919259E+03  0.69333640954E+03  0.80801506732E+02 0.  0.
          5    1    3    3  501    0  0.26538386267E+02 -0.54259383501E+01 -0.21331281218E+03  0.21507713173E+03  0.47000000000E+01 0. -1.
        -13    1    4    4    0    0  0.16216016456E+02  0.85104290964E+02 -0.38543032499E+03  0.39504713004E+03  0.00000000000E+00 0.  1.
         14    1    4    4    0    0 -0.36548604670E+02  0.95323229715E+02 -0.20871381456E+03  0.23234408754E+03  0.00000000000E+00 0. -1.
         -5    1    5    5    0  502  0.27188243881E+02 -0.10995576331E+03 -0.27827640395E+03  0.30048180891E+03  0.47000000000E+01 0.  1.
         11    1    6    6    0    0 -0.22459745298E+02 -0.70754115024E+02 -0.67014174965E+03  0.67424072079E+03  0.00000000000E+00 0. -1.
        -12    1    6    6    0    0 -0.10934296635E+02  0.57082960071E+01 -0.14577442940E+02  0.19095688751E+02  0.00000000000E+00 0.  1.
</event>
<event>
12    1  0.8747122E-002  0.2534942E+03  0.7818608E-02  0.1111198E+00
         21   -1    0    0  503  502  0.00000000000E+00  0.00000000000E+00  0.10714722358E+03  0.10714722358E+03  0.00000000000E+00 0.  1.
         21   -1    0    0  501  503 -0.00000000000E+00 -0.00000000000E+00 -0.66109483458E+03  0.66109483458E+03  0.00000000000E+00 0. -1.
          6    2    1    2  501    0 -0.41026274167E+02 -0.18047988841E+03 -0.39544396410E+03  0.46971827901E+03  0.17321428233E+03 0.  0.
         24    2    3    3    0    0 -0.41309563200E+02 -0.19513702300E+02 -0.16165443227E+03  0.18583480201E+03  0.79467940544E+02 0.  0.
         -6    2    1    2    0  502  0.41026274167E+02  0.18047988841E+03 -0.15850364690E+03  0.29852377915E+03  0.17244389043E+03 0.  0.
        -24    2    5    5    0    0  0.70232065261E+02  0.81355638455E+02 -0.14314306680E+03  0.19394542296E+03  0.74656591231E+02 0.  0.
          5    1    3    3  501    0  0.28328903348E+00 -0.16096618611E+03 -0.23378953183E+03  0.28388347701E+03  0.47000000000E+01 0. -1.
        -11    1    4    4    0    0  0.14835120658E+02 -0.29132446061E+02 -0.41235379468E+02  0.52622587719E+02  0.00000000000E+00 0.  1.
         12    1    4    4    0    0 -0.56144683858E+02  0.96187437602E+01 -0.12041905280E+03  0.13321221429E+03  0.00000000000E+00 0. -1.
         -5    1    5    5    0  502 -0.29205791094E+02  0.99124249959E+02 -0.15360580099E+02  0.10457835619E+03  0.47000000000E+01 0.  1.
         13    1    6    6    0    0  0.41491002447E+02  0.82061506577E+02 -0.13625725909E+03  0.16438258667E+03  0.00000000000E+00 0. -1.
        -14    1    6    6    0    0  0.28741062814E+02 -0.70586812165E+00 -0.68858077078E+01  0.29562836286E+02  0.00000000000E+00 0.  1.
</event>
<event>
12    1  0.8747122E-002  0.1824985E+03  0.7818608E-02  0.1165427E+00
         21   -1    0    0  503  502  0.00000000000E+00  0.00000000000E+00  0.74991711650E+02  0.74991711650E+02  0.00000000000E+00 0.  1.
         21   -1    0    0  501  503 -0.00000000000E+00 -0.00000000000E+00 -0.71495164632E+03  0.71495164632E+03  0.00000000000E+00 0.  1.
          6    2    1    2  501    0  0.40288148515E+02 -0.47314088394E+02 -0.56312104955E+03  0.59192839967E+03  0.17149972598E+03 0.  0.
         24    2    3    3    0    0  0.74646455985E+01  0.32225913088E+02 -0.37670921346E+03  0.38656175969E+03  0.80161912045E+02 0.  0.
         -6    2    1    2    0  502 -0.40288148515E+02  0.47314088394E+02 -0.76838885122E+02  0.19801495831E+03  0.17159239952E+03 0.  0.
        -24    2    5    5    0    0 -0.52663255599E+02  0.87794305146E+02 -0.27073366013E+02  0.13251314065E+03  0.79658689369E+02 0.  0.
          5    1    3    3  501    0  0.32823502917E+02 -0.79540001481E+02 -0.18641183610E+03  0.20536663998E+03  0.47000000000E+01 0. -1.
        -13    1    4    4    0    0  0.36530405142E+02 -0.31686844918E+01 -0.22893819142E+03  0.23185600391E+03  0.00000000000E+00 0.  1.
         14    1    4    4    0    0 -0.29065759544E+02  0.35394597579E+02 -0.14777102204E+03  0.15470575578E+03  0.00000000000E+00 0. -1.
         -5    1    5    5    0  502  0.12375107084E+02 -0.40480216753E+02 -0.49765519109E+02  0.65501817653E+02  0.47000000000E+01 0.  1.
         11    1    6    6    0    0  0.19123773534E+02  0.83480516286E+01 -0.12828879317E+02  0.24494669311E+02  0.00000000000E+00 0. -1.
        -12    1    6    6    0    0 -0.71787029132E+02  0.79446253518E+02 -0.14244486697E+02  0.10801847134E+03  0.00000000000E+00 0.  1.
</event>
<event>
12    1  0.8747122E-002  0.3644320E+03  0.7818608E-02  0.1056854E+00
         21   -1    0    0  503  502  0.00000000000E+00  0.00000000000E+00  0.61168714025E+03  0.61168714025E+03  0.00000000000E+00 0. -1.
         21   -1    0    0  501  503 -0.00000000000E+00 -0.00000000000E+00 -0.21738815398E+03  0.21738815398E+03  0.00000000000E+00 0.  1.
          6    2    1    2  501    0  0.11722924440E+03 -0.29918649716E+03  0.18095425198E+03  0.40688468471E+03  0.17191698437E+03 0.  0.
         24    2    3    3    0    0  0.24403527319E+02 -0.43993051678E+02  0.43480070096E+02  0.10248108904E+03  0.77980358903E+02 0.  0.
         -6    2    1    2    0  502 -0.11722924440E+03  0.29918649716E+03  0.21334473429E+03  0.42219060952E+03  0.17167900074E+03 0.  0.
        -24    2    5    5    0    0 -0.43941997072E+02  0.22579809508E+03  0.87625914219E+02  0.25914402139E+03  0.81003976018E+02 0.  0.
          5    1    3    3  501    0  0.92825717083E+02 -0.25519344548E+03  0.13747418189E+03  0.30440359566E+03  0.47000000000E+01 0. -1.
        -11    1    4    4    0    0  0.29117050180E+02 -0.19504637827E+02 -0.15594045586E+02  0.38358933323E+02  0.00000000000E+00 0.  1.
         12    1    4    4    0    0 -0.47135228609E+01 -0.24488413851E+02  0.59074115682E+02  0.64122155721E+02  0.00000000000E+00 0. -1.
         -5    1    5    5    0  502 -0.73287247330E+02  0.73388402075E+02  0.12571882008E+03  0.16304658813E+03  0.47000000000E+01 0.  1.
         13    1    6    6    0    0 -0.82533220843E+01  0.77179661661E+01 -0.12228231565E+02  0.16649743973E+02  0.00000000000E+00 0. -1.
        -14    1    6    6    0    0 -0.35688674988E+02  0.21808012892E+03  0.99854145784E+02  0.24249427742E+03  0.00000000000E+00 0.  1.
</event>
<event>
12    1  0.8747122E-002  0.2401531E+03  0.7818608E-02  0.1120112E+00
         21   -1    0    0  501  502  0.00000000000E+00  0.00000000000E+00  0.14522399748E+04  0.14522399748E+04  0.00000000000E+00 0. -1.
         21   -1    0    0  502  503 -0.00000000000E+00 -0.00000000000E+00 -0.42386488228E+02  0.42386488228E+02  0.00000000000E+00 0.  1.
         -6    2    1    2    0  503  0.16511874689E+03 -0.21207961691E+02  0.49975931837E+03  0.55338000666E+03  0.16957616951E+03 0.  0.
        -24    2    3    3    0    0  0.13550683224E+03  0.19384929286E+02  0.23263805470E+03  0.28153352831E+03  0.80017410633E+02 0.  0.
          6    2    1    2  501    0 -0.16511874689E+03  0.21207961691E+02  0.91009416819E+03  0.94124645635E+03  0.17308818100E+03 0.  0.
         24    2    5    5    0    0 -0.92139937261E+02  0.33294546104E+02  0.28404431151E+03  0.31082397482E+03  0.79574352514E+02 0.  0.
          5    1    5    5  501    0 -0.72978809633E+02 -0.12086584414E+02  0.62604985667E+03  0.63042248153E+03  0.47000000000E+01 0. -1.
        -13    1    6    6    0    0 -0.30631671894E+02  0.55691501412E+01  0.17172194567E+02  0.35555576533E+02  0.00000000000E+00 0.  1.
         14    1    6    6    0    0 -0.61508265368E+02  0.27725395963E+02  0.26687211695E+03  0.27526839828E+03  0.00000000000E+00 0. -1.
         -5    1    3    3    0  503  0.29611914658E+02 -0.40592890977E+02  0.26712126367E+03  0.27184647835E+03  0.47000000000E+01 0.  1.
         11    1    4    4    0    0  0.39154967586E+02  0.15240860955E+02  0.14588393968E+03  0.15181409416E+03  0.00000000000E+00 0. -1.
        -12    1    4    4    0    0  0.96351864650E+02  0.41440683314E+01  0.86754115015E+02  0.12971943415E+03  0.00000000000E+00 0.  1.
</event>
<event>
12    1  0.8747122E-002  0.1748020E+03  0.7818608E-02  0.1173022E+00
         21   -1    0    0  503  502  0.00000000000E+00  0.00000000000E+00  0.82695816190E+02  0.82695816190E+02  0.00000000000E+00 0. -1.
         21   -1    0    0  501  503 -0.00000000000E+00 -0.00000000000E+00 -0.64360992006E+03  0.64360992006E+03  0.00000000000E+00 0. -1.
          6    2    1    2  501    0  0.24257752419E+02 -0.21108817340E+02 -0.51795184634E+03  0.54665330913E+03  0.17181881311E+03 0.  0.
         24    2    3    3    0    0 -0.51546960257E+02  0.27706781310E+01 -0.28270461403E+03  0.29829885462E+03  0.79972133297E+02 0.  0.
         -6    2    1    2    0  502 -0.24257752419E+02  0.21108817340E+02 -0.42962257538E+02  0.17965242712E+03  0.17145033764E+03 0.  0.
        -24    2    5    5    0    0  0.25835195536E+02  0.51409884754E+02 -0.78001516409E+00  0.10734136509E+03  0.90615267236E+02 0.  0.
          5    1    3    3  501    0  0.75804712676E+02 -0.23879495472E+02 -0.23524723230E+03  0.24835445451E+03  0.47000000000E+01 0. -1.
        -11    1    4    4    0    0 -0.44944791731E+02  0.10494093669E+02 -0.61656943762E+02  0.77017783789E+02  0.00000000000E+00 0.  1.
         12    1    4    4    0    0 -0.66021685261E+01 -0.77234155378E+01 -0.22104767027E+03  0.22128107083E+03  0.00000000000E+00 0. -1.
         -5    1    5    5    0  502 -0.50092947956E+02 -0.30301067413E+02 -0.42182242374E+02  0.72311062037E+02  0.47000000000E+01 0.  1.
         11    1    6    6    0    0 -0.32459481792E+02  0.12293810034E+02 -0.10973777297E+02  0.36403015143E+02  0.00000000000E+00 0. -1.
        -12    1    6    6    0    0  0.58294677329E+02  0.39116074720E+02  0.10193762133E+02  0.70938349944E+02  0.00000000000E+00 0.  1.
</event>
<event>
12    1  0.8747122E-002  0.2091696E+03  0.7818608E-02  0.1143207E+00
         21   -1    0    0  503  502  0.00000000000E+00  0.00000000000E+00  0.20133369150E+03  0.20133369150E+03  0.00000000000E+00 0. -1.
         21   -1    0    0  501  503 -0.00000000000E+00 -0.00000000000E+00 -0.16185717279E+04  0.16185717279E+04  0.00000000000E+00 0.  1.
          6    2    1    2  501    0  0.10526631089E+03 -0.31868601591E+02 -0.15578918287E+04  0.15718711319E+04  0.17791936789E+03 0.  0.
         24    2    3    3    0    0  0.11608764353E+03  0.28154476255E+01 -0.14693132701E+04  0.14760153259E+04  0.79091648007E+02 0.  0.
         -6    2    1    2    0  502 -0.10526631089E+03  0.31868601591E+02  0.14065379231E+03  0.24803428746E+03  0.17216536959E+03 0.  0.
        -24    2    5    5    0    0 -0.91588024645E+02  0.33590349170E+02  0.21628870147E+02  0.12812147736E+03  0.80191191048E+02 0.  0.
          5    1    3    3  501    0 -0.10821332639E+02 -0.34684049217E+02 -0.88578558560E+02  0.95855806015E+02  0.47000000000E+01 0. -1.
        -13    1    4    4    0    0  0.44040055631E+02 -0.17711398443E+02 -0.96514970479E+03  0.96631629025E+03  0.00000000000E+00 0.  1.
         14    1    4    4    0    0  0.72047587900E+02  0.20526846068E+02 -0.50416356532E+03  0.50969903564E+03  0.00000000000E+00 0. -1.
         -5    1    5    5    0  502 -0.13678286246E+02 -0.17217475789E+01  0.11902492216E+03  0.11991281010E+03  0.47000000000E+01 0.  1.
         11    1    6    6    0    0  0.50499259815E+01  0.25440466284E+02  0.17036875088E+02  0.31031825436E+02  0.00000000000E+00 0. -1.
        -12    1    6    6    0    0 -0.96637950627E+02  0.81498828864E+01  0.45919950595E+01  0.97089651926E+02  0.00000000000E+00 0.  1.
</event>
<event>
12    1  0.8747122E-002  0.3283118E+03  0.7818608E-02  0.1071898E+00
         21   -1    0    0  503  502  0.00000000000E+00  0.00000000000E+00  0.53353772661E+03  0.53353772661E+03  0.00000000000E+00 0. -1.
         21   -1    0    0  501  503 -0.00000000000E+00 -0.00000000000E+00 -0.20872284677E+03  0.20872284677E+03  0.00000000000E+00 0.  1.
          6    2    1    2  501    0  0.17018800356E+03 -0.22331259302E+03  0.22921805461E+03  0.40041170874E+03  0.17016506452E+03 0.  0.
         24    2    3    3    0    0  0.13062360975E+03 -0.72897505412E+02  0.14638548364E+03  0.22413532164E+03  0.80195753404E+02 0.  0.
         -6    2    1    2    0  502 -0.17018800356E+03  0.22331259302E+03  0.95596825238E+02  0.34184886463E+03  0.16996888685E+03 0.  0.
        -24    2    5    5    0    0 -0.29975095290E+02  0.78885598537E+02  0.76229709588E+02  0.13957184777E+03  0.80919021701E+02 0.  0.
          5    1    3    3  501    0  0.39564393803E+02 -0.15041508761E+03  0.82832570968E+02  0.17627638711E+03  0.47000000000E+01 0. -1.
        -13    1    4    4    0    0 -0.13915085607E+01  0.11157007498E+02  0.24494637211E+01  0.11507171021E+02  0.00000000000E+00 0.  1.
         14    1    4    4    0    0  0.13201511831E+03 -0.84054512910E+02  0.14393601992E+03  0.21262815062E+03  0.00000000000E+00 0. -1.
         -5    1    5    5    0  502 -0.14021290827E+03  0.14442699449E+03  0.19367115649E+02  0.20227701686E+03  0.47000000000E+01 0.  1.
         13    1    6    6    0    0 -0.27615409718E+01 -0.43091735747E+01 -0.13367423871E+02  0.14313738379E+02  0.00000000000E+00 0. -1.
        -14    1    6    6    0    0 -0.27213554319E+02  0.83194772112E+02  0.89597133459E+02  0.12525810940E+03  0.00000000000E+00 0.  1.
</event>
<event>
12    1  0.8747122E-002  0.2138129E+03  0.7818608E-02  0.1138597E+00
         21   -1    0    0  501  502  0.00000000000E+00  0.00000000000E+00  0.14074945847E+03  0.14074945847E+03  0.00000000000E+00 0. -1.
         21   -1    0    0  502  503 -0.00000000000E+00 -0.00000000000E+00 -0.63844927778E+03  0.63844927778E+03  0.00000000000E+00 0. -1.
         -6    2    1    2    0  503 -0.11425796551E+03  0.57499613205E+02 -0.52194890989E+03  0.56401518134E+03  0.17123484471E+03 0.  0.
        -24    2    3    3    0    0 -0.11885863278E+03 -0.62419701442E+01 -0.32739351955E+03  0.35917855009E+03  0.87500728164E+02 0.  0.
          6    2    1    2  501    0  0.11425796551E+03 -0.57499613205E+02  0.24249090590E+02  0.21518355491E+03  0.17133258799E+03 0.  0.
         24    2    5    5    0    0  0.13381487496E+03 -0.50618379285E+02  0.58959287278E+02  0.17448082967E+03  0.80614646836E+02 0.  0.
          5    1    5    5  501    0 -0.19556909452E+02 -0.68812339200E+01 -0.34710196688E+02  0.40702725236E+02  0.47000000000E+01 0. -1.
        -11    1    6    6    0    0  0.28022785911E+02 -0.39912624038E+02 -0.71259519001E+01  0.49285629531E+02  0.00000000000E+00 0.  1.
         12    1    6    6    0    0  0.10579208905E+03 -0.10705755247E+02  0.66085239178E+02  0.12519520014E+03  0.00000000000E+00 0. -1.
         -5    1    3    3    0  503  0.46006672675E+01  0.63741583349E+02 -0.19455539035E+03  0.20483663125E+03  0.47000000000E+01 0.  1.
         13    1    4    4    0    0 -0.65615146294E+02 -0.44974730325E+02 -0.21031041019E+03  0.22485226800E+03  0.00000000000E+00 0. -1.
        -14    1    4    4    0    0 -0.53243486487E+02  0.38732760181E+02 -0.11708310936E+03  0.13432628210E+03  0.00000000000E+00 0.  1.
</event>
<event>
12    1  0.8747122E-002  0.2659956E+03  0.7818608E-02  0.1103792E+00
         21   -1    0    0  503  502  0.00000000000E+00  0.00000000000E+00  0.59150029327E+03  0.59150029327E+03  0.00000000000E+00 0. -1.
         21   -1    0    0  501  503 -0.00000000000E+00 -0.00000000000E+00 -0.22042332105E+03  0.22042332105E+03  0.00000000000E+00 0.  1.
          6    2    1    2  501    0  0.79630639988E+02  0.18647561885E+03 -0.89570896650E+02  0.28067167945E+03  0.17216111893E+03 0.  0.
         24    2    3    3    0    0  0.16896380589E+02  0.97987873378E+02 -0.10189894460E+03  0.17140256594E+03  0.95437590572E+02 0.  0.
         -6    2    1    2    0  502 -0.79630639988E+02 -0.18647561885E+03  0.46064786887E+03  0.53125193487E+03  0.17005282697E+03 0.  0.
        -24    2    5    5    0    0 -0.20377347620E+02 -0.18333808270E+03  0.39135493594E+03  0.43990426198E+03  0.79554917854E+02 0.  0.
          5    1    3    3  501    0  0.62734259399E+02  0.88487745468E+02  0.12328047954E+02  0.10926911351E+03  0.47000000000E+01 0. -1.
        -11    1    4    4    0    0  0.40838952311E+02  0.96655297794E+02 -0.54396586563E+02  0.11819075788E+03  0.00000000000E+00 0.  1.
         12    1    4    4    0    0 -0.23942571721E+02  0.13325755835E+01 -0.47502358041E+02  0.53211808067E+02  0.00000000000E+00 0. -1.
         -5    1    5    5    0  502 -0.59253292368E+02 -0.31375361445E+01  0.69292932927E+02  0.91347672894E+02  0.47000000000E+01 0.  1.
         11    1    6    6    0    0  0.24466049049E+02 -0.10590677262E+03  0.17826603241E+03  0.20879082919E+03  0.00000000000E+00 0. -1.
        -12    1    6    6    0    0 -0.44843396669E+02 -0.77431310081E+02  0.21308890354E+03  0.23111343279E+03  0.00000000000E+00 0.  1.
</event>
<event>
12    1  0.8747122E-002  0.1939598E+03  0.7818608E-02  0.1155596E+00
         21   -1    0    0  501  502  0.00000000000E+00  0.00000000000E+00  0.35169075055E+03  0.35169075055E+03  0.00000000000E+00 0.  1.
         21   -1    0    0  502  503 -0.00000000000E+00 -0.00000000000E+00 -0.13891135047E+03  0.13891135047E+03  0.00000000000E+00 0.  1.
         -6    2    1    2    0  503 -0.84036640286E+02  0.26613109510E+02  0.22636307126E+03  0.29616727677E+03  0.16942373297E+03 0.  0.
        -24    2    3    3    0    0  0.27864199530E+01 -0.10186583288E+02  0.41893325706E+02  0.88938808158E+02  0.77740145631E+02 0.  0.
          6    2    1    2  501    0  0.84036640286E+02 -0.26613109510E+02 -0.13583671173E+02  0.19443482425E+03  0.17277143933E+03 0.  0.
         24    2    5    5    0    0  0.16950754408E+02 -0.73910736466E+02 -0.21206458314E+02  0.11186498421E+03  0.79460277989E+02 0.  0.
          5    1    5    5  501    0  0.67085885878E+02  0.47297626956E+02  0.76227871406E+01  0.82569840036E+02  0.47000000000E+01 0. -1.
        -13    1    6    6    0    0  0.34968469871E+02 -0.56631533166E+02 -0.42570353128E+02  0.79007337629E+02  0.00000000000E+00 0.  1.
         14    1    6    6    0    0 -0.18017715462E+02 -0.17279203300E+02  0.21363894814E+02  0.32857646581E+02  0.00000000000E+00 0. -1.
         -5    1    3    3    0  503 -0.86823060239E+02  0.36799692798E+02  0.18446974555E+03  0.20722846861E+03  0.47000000000E+01 0.  1.
         13    1    4    4    0    0 -0.21199426670E+02 -0.18188729630E+02  0.54081480668E+02  0.60869139373E+02  0.00000000000E+00 0. -1.
        -14    1    4    4    0    0  0.23985846623E+02  0.80021463421E+01 -0.12188154963E+02  0.28069668785E+02  0.00000000000E+00 0.  1.
</event>
<event>
12    1  0.8747122E-002  0.1833689E+03  0.7818608E-02  0.1165148E+00
         21   -1    0    0  501  502  0.00000000000E+00  0.00000000000E+00  0.17077532904E+03  0.17077532904E+03  0.00000000000E+00 0. -1.
         21   -1    0    0  502  503 -0.00000000000E+00 -0.00000000000E+00 -0.25075062697E+03  0.25075062697E+03  0.00000000000E+00 0.  1.
         -6    2    1    2    0  503  0.57986937324E+02 -0.19925697019E+02 -0.14014974797E+03  0.23079450666E+03  0.17281387139E+03 0.  0.
        -24    2    3    3    0    0  0.38894867303E+02  0.49117200537E+02 -0.11812602466E+03  0.15570413957E+03  0.79779140673E+02 0.  0.
          6    2    1    2  501    0 -0.57986937324E+02  0.19925697019E+02  0.60174450043E+02  0.19073144936E+03  0.17028800027E+03 0.  0.
         24    2    5    5    0    0 -0.44753666727E+02  0.74263324478E+02  0.64659766385E+02  0.13442953757E+03  0.79827834328E+02 0.  0.
          5    1    5    5  501    0 -0.13233270597E+02 -0.54337627460E+02 -0.44853163423E+01  0.56301911791E+02  0.47000000000E+01 0. -1.
        -11    1    6    6    0    0 -0.61620830365E+02  0.38871513058E+02  0.21156148286E+02  0.75866355340E+02  0.00000000000E+00 0.  1.
         12    1    6    6    0    0  0.16867163638E+02  0.35391811420E+02  0.43503618099E+02  0.58563182227E+02  0.00000000000E+00 0. -1.
         -5    1    3    3    0  503  0.19092070021E+02 -0.69042897556E+02 -0.22023723310E+02  0.75090367085E+02  0.47000000000E+01 0.  1.
         13    1    4    4    0    0  0.58447643850E+02  0.21500484204E+02 -0.50857815367E+02  0.80404696856E+02  0.00000000000E+00 0. -1.
        -14    1    4    4    0    0 -0.19552776546E+02  0.27616716333E+02 -0.67268209297E+02  0.75299442718E+02  0.00000000000E+00 0.  1.
</event>
<event>
12    1  0.8747122E-002  0.3400792E+03  0.7818608E-02  0.1066812E+00
         21   -1    0    0  503  502  0.00000000000E+00  0.00000000000E+00  0.20429273628E+04  0.20429273628E+04  0.00000000000E+00 0.  1.
         21   -1    0    0  501  503 -0.00000000000E+00 -0.00000000000E+00 -0.10467699430E+03  0.10467699430E+03  0.00000000000E+00 0.  1.
          6    2    1    2  501    0  0.28748559168E+03 -0.57000511135E+02  0.24053567546E+03  0.41616303605E+03  0.17157283500E+03 0.  0.
         24    2    3    3    0    0  0.30227521716E+03 -0.40823268744E+02  0.21136193019E+03  0.37937127602E+03  0.78815311678E+02 0.  0.
         -6    2    1    2    0  502 -0.28748559168E+03  0.57000511135E+02  0.16977146931E+04  0.17314413211E+04  0.17250172625E+03 0.  0.
        -24    2    5    5    0    0 -0.18886934811E+03 -0.34514348542E+02  0.83924538223E+03  0.86248114897E+03  0.51749877602E+02 0.  0.
          5    1    3    3  501    0 -0.14789625478E+02 -0.16177242391E+02  0.29173745268E+02  0.36791760030E+02  0.47000000000E+01 0. -1.
        -11    1    4    4    0    0  0.26629912050E+03 -0.30866369885E+02  0.14904212711E+03  0.30672709372E+03  0.00000000000E+00 0.  1.
         12    1    4    4    0    0  0.35976096653E+02 -0.99568988588E+01  0.62319803077E+02  0.72644182291E+02  0.00000000000E+00 0. -1.
         -5    1    5    5    0  502 -0.98616243564E+02  0.91514859677E+02  0.85846931085E+03  0.86896017211E+03  0.47000000000E+01 0.  1.
         11    1    6    6    0    0 -0.82172155198E+02  0.10365697613E+02  0.32792499463E+03  0.33822257891E+03  0.00000000000E+00 0. -1.
        -12    1    6    6    0    0 -0.10669719292E+03 -0.44880046155E+02  0.51132038759E+03  0.52425857006E+03  0.00000000000E+00 0.  1.
</event>
<event>
12    1  0.8747122E-002  0.2077382E+03  0.7818608E-02  0.1144737E+00
         21   -1    0    0  503  502  0.00000000000E+00  0.00000000000E+00  0.58324180620E+03  0.58324180620E+03  0.00000000000E+00 0.  1.
         21   -1    0    0  501  503 -0.00000000000E+00 -0.00000000000E+00 -0.18887192183E+03  0.18887192183E+03  0.00000000000E+00 0. -1.
          6    2    1    2  501    0 -0.85552477771E+02  0.57088796291E+02 -0.10574343149E+03  0.23310262886E+03  0.18049045726E+03 0.  0.
         24    2    3    3    0    0 -0.88061650742E+02 -0.27331199066E+02 -0.47261221985E+02  0.13026639792E+03  0.78954813339E+02 0.  0.
         -6    2    1    2    0  502  0.85552477771E+02 -0.57088796291E+02  0.50011331586E+03  0.53901109918E+03  0.17274628569E+03 0.  0.
        -24    2    5    5    0    0 -0.22620015961E+02 -0.23043230838E+02  0.17287148404E+03  0.19264468132E+03  0.78643293649E+02 0.  0.
          5    1    3    3  501    0  0.25091729711E+01  0.84419995357E+02 -0.58482209506E+02  0.10283623094E+03  0.47000000000E+01 0. -1.
        -11    1    4    4    0    0 -0.76446633178E+02  0.12947448375E+02 -0.41528075349E+02  0.87956268599E+02  0.00000000000E+00 0.  1.
         12    1    4    4    0    0 -0.11615017564E+02 -0.40278647441E+02 -0.57331466364E+01  0.42310129320E+02  0.00000000000E+00 0. -1.
         -5    1    5    5    0  502  0.10817249373E+03 -0.34045565453E+02  0.32724183182E+03  0.34636641786E+03  0.47000000000E+01 0.  1.
         13    1    6    6    0    0  0.22286258830E+02  0.85500406536E+01  0.90911862097E+02  0.93993335922E+02  0.00000000000E+00 0. -1.
        -14    1    6    6    0    0 -0.44906274791E+02 -0.31593271491E+02  0.81959621941E+02  0.98651345393E+02  0.00000000000E+00 0.  1.
</event>
<event>
12    1  0.8747122E-002  0.1874110E+03  0.7818608E-02  0.1161100E+00
         21   -1    0    0  503  502  0.00000000000E+00  0.00000000000E+00  0.29082825409E+03  0.29082825409E+03  0.00000000000E+00 0.  1.
         21   -1    0    0  501  503 -0.00000000000E+00 -0.00000000000E+00 -0.28038766993E+03  0.28038766993E+03  0.00000000000E+00 0.  1.
          6    2    1    2  501    0 -0.23998885716E+02  0.64931119238E+02 -0.21081090824E+03  0.28125885549E+03  0.17283896550E+03 0.  0.
         24    2    3    3    0    0 -0.16347537984E+01  0.10941532408E+03 -0.16743443376E+03  0.21505759103E+03  0.79000584100E+02 0.  0.
         -6    2    1    2    0  502  0.23998885716E+02 -0.64931119238E+02  0.22125149239E+03  0.28995706853E+03  0.17415763533E+03 0.  0.
        -24    2    5    5    0    0  0.15165874595E+02  0.33278237213E+02  0.10308624914E+03  0.13598234823E+03  0.80789723622E+02 0.  0.
          5    1    3    3  501    0 -0.22364131918E+02 -0.44484204843E+02 -0.43376474484E+02  0.66201264456E+02  0.47000000000E+01 0. -1.
        -11    1    4    4    0    0 -0.29043545158E+02  0.92317097965E+02 -0.14955078032E+03  0.17813312434E+03  0.00000000000E+00 0.  1.
         12    1    4    4    0    0  0.27408791360E+02  0.17098226115E+02 -0.17883653434E+02  0.36924466689E+02  0.00000000000E+00 0. -1.
         -5    1    5    5    0  502  0.88330111212E+01 -0.98209356451E+02  0.11816524325E+03  0.15397472030E+03  0.47000000000E+01 0.  1.
         11    1    6    6    0    0  0.61992502389E+01  0.29363880326E+02 -0.23408119594E+01  0.30102285162E+02  0.00000000000E+00 0. -1.
        -12    1    6    6    0    0  0.89666243563E+01  0.39143568867E+01  0.10542706110E+03  0.10588006307E+03  0.00000000000E+00 0.  1.
</event>
<event>
12    1  0.8747122E-002  0.2092768E+03  0.7818608E-02  0.1142406E+00
         21   -1    0    0  503  502  0.00000000000E+00  0.00000000000E+00  0.16418204777E+04  0.16418204777E+04  0.00000000000E+00 0. -1.
         21   -1    0    0  501  503 -0.00000000000E+00 -0.00000000000E+00 -0.34057770364E+02  0.34057770364E+02  0.00000000000E+00 0. -1.
          6    2    1    2  501    0  0.58858801108E+02  0.10382168076E+03  0.40730556792E+03  0.45731592987E+03  0.17028427465E+03 0.  0.
         24    2    3    3    0    0  0.23830843207E+02  0.53013462756E+02  0.37330291442E+03  0.38669933624E+03  0.82480145570E+02 0.  0.
         -6    2    1    2    0  502 -0.58858801108E+02 -0.10382168076E+03  0.12004571394E+04  0.12185623182E+04  0.17191125584E+03 0.  0.
        -24    2    5    5    0    0  0.30915377140E+02 -0.22232868391E+02  0.51405300966E+03  0.52150503451E+03  0.79164027841E+02 0.  0.
          5    1    3    3  501    0  0.35027957901E+02  0.50808217999E+02  0.34002653500E+02  0.70616593631E+02  0.47000000000E+01 0. -1.
        -11    1    4    4    0    0  0.20236838910E+02 -0.12133138487E+02  0.20231102618E+03  0.20368233604E+03  0.00000000000E+00 0.  1.
         12    1    4    4    0    0  0.35940042969E+01  0.65146601243E+02  0.17099188824E+03  0.18301700020E+03  0.00000000000E+00 0. -1.
         -5    1    5    5    0  502 -0.89774178248E+02 -0.81588812364E+02  0.68640412979E+03  0.69705728371E+03  0.47000000000E+01 0.  1.
         11    1    6    6    0    0 -0.13651313203E+02  0.17487559412E+02  0.24010656163E+03  0.24112928902E+03  0.00000000000E+00 0. -1.
        -12    1    6    6    0    0  0.44566690343E+02 -0.39720427803E+02  0.27394644802E+03  0.28037574549E+03  0.00000000000E+00 0.  1.
</event>
<event>
12    1  0.8747122E-002  0.2240929E+03  0.7818608E-02  0.1131250E+00
         21   -1    0    0  501  502  0.00000000000E+00  0.00000000000E+00  0.58085187523E+02  0.58085187523E+02  0.00000000000E+00 0.  1.
         21   -1    0    0  502  503 -0.00000000000E+00 -0.00000000000E+00 -0.10884786245E+04  0.10884786245E+04  0.00000000000E+00 0. -1.
         -6    2    1    2    0  503 -0.12922304633E+03 -0.51719608048E+02 -0.77794392291E+03  0.80900136843E+03  0.17295361624E+03 0.  0.
        -24    2    3    3    0    0 -0.14563792050E+03 -0.33055766883E+02 -0.49729362537E+03  0.52721338684E+03  0.91377884717E+02 0.  0.
          6    2    1    2  501    0  0.12922304633E+03  0.51719608048E+02 -0.25244951412E+03  0.33756244364E+03  0.17562497721E+03 0.  0.
         24    2    5    5    0    0  0.60190197897E+02 -0.40619808007E+02 -0.10206204561E+03  0.14800880320E+03  0.78848690199E+02 0.  0.
          5    1    5    5  501    0  0.69032848428E+02  0.92339416055E+02 -0.15038746851E+03  0.18955364044E+03  0.47000000000E+01 0. -1.
        -11    1    6    6    0    0  0.68911730967E+02 -0.20043727810E+02 -0.10311998187E+03  0.12563561736E+03  0.00000000000E+00 0.  1.
         12    1    6    6    0    0 -0.87215330702E+01 -0.20576080197E+02  0.10579362637E+01  0.22373185837E+02  0.00000000000E+00 0. -1.
         -5    1    3    3    0  503  0.16414874174E+02 -0.18663841165E+02 -0.28065029754E+03  0.28178798159E+03  0.47000000000E+01 0.  1.
         11    1    4    4    0    0 -0.12278984832E+03 -0.60741016614E+02 -0.35647401174E+03  0.38189074222E+03  0.00000000000E+00 0. -1.
        -12    1    4    4    0    0 -0.22848072183E+02  0.27685249730E+02 -0.14081961363E+03  0.14532264462E+03  0.00000000000E+00 0.  1.
</event>
<event>
12    1  0.8747122E-002  0.3228719E+03  0.7818608E-02  0.1075682E+00
         21   -1    0    0  501  502  0.00000000000E+00  0.00000000000E+00  0.23387368540E+03  0.23387368540E+03  0.00000000000E+00 0.  1.
         21   -1    0    0  502  503 -0.00000000000E+00 -0.00000000000E+00 -0.47853183827E+03  0.47853183827E+03  0.00000000000E+00 0.  1.
         -6    2    1    2    0  503 -0.21364869942E+03 -0.16339169030E+03 -0.23793358192E+03  0.40107185485E+03  0.17861587870E+03 0.  0.
        -24    2    3    3    0    0 -0.14203140942E+03 -0.72961027979E+02 -0.63513447214E+02  0.19190394549E+03  0.85422089956E+02 0.  0.
          6    2    1    2  501    0  0.21364869942E+03  0.16339169030E+03 -0.67245709491E+01  0.31133366882E+03  0.15665510608E+03 0.  0.
         24    2    5    5    0    0  0.19919810594E+03  0.16789199748E+03  0.26830494759E+02  0.27422430543E+03  0.81311044812E+02 0.  0.
          5    1    5    5  501    0  0.14450593475E+02 -0.45003071780E+01 -0.33555065708E+02  0.37109363389E+02  0.47000000000E+01 0. -1.
        -13    1    6    6    0    0  0.10811836822E+03  0.12039102961E+03 -0.16672271090E+02  0.16267005311E+03  0.00000000000E+00 0.  1.
         14    1    6    6    0    0  0.91079737725E+02  0.47500967872E+02  0.43502765849E+02  0.11155425231E+03  0.00000000000E+00 0. -1.
         -5    1    3    3    0  503 -0.71617290001E+02 -0.90430662324E+02 -0.17442013471E+03  0.20916790936E+03  0.47000000000E+01 0.  1.
         13    1    4    4    0    0 -0.41062736768E+02  0.66653860082E+01  0.11336262054E+02  0.43117126050E+02  0.00000000000E+00 0. -1.
        -14    1    4    4    0    0 -0.10096867265E+03 -0.79626413987E+02 -0.74849709269E+02  0.14878681944E+03  0.00000000000E+00 0.  1.
</event>
<event>
12    1  0.8747122E-002  0.1754935E+03  0.7818608E-02  0.1172288E+00
         21   -1    0    0  501  502  0.00000000000E+00  0.00000000000E+00  0.95237477026E+03  0.95237477026E+03  0.00000000000E+00 0. -1.
         21   -1    0    0  502  503 -0.00000000000E+00 -0.00000000000E+00 -0.32320093361E+02  0.32320093361E+02  0.00000000000E+00 0. -1.
         -6    2    1    2    0  503  0.91526220645E+01  0.31165681667E+02  0.47189861312E+03  0.50340301990E+03  0.17225338654E+03 0.  0.
        -24    2    3    3    0    0  0.25258276329E+02  0.30620093713E+01  0.46168657627E+03  0.46911622663E+03  0.79171857109E+02 0.  0.
          6    2    1    2  501    0 -0.91526220645E+01 -0.31165681667E+02  0.44815606378E+03  0.48129184373E+03  0.17246133226E+03 0.  0.
         24    2    5    5    0    0  0.63858742146E+01  0.45301069822E+02  0.28436972874E+03  0.29980723694E+03  0.83218209466E+02 0.  0.
          5    1    5    5  501    0 -0.15538496279E+02 -0.76466751490E+02  0.16378633505E+03  0.18148460678E+03  0.47000000000E+01 0. -1.
        -13    1    6    6    0    0 -0.30619476244E+02  0.33926154361E+02  0.21996563588E+03  0.22466289690E+03  0.00000000000E+00 0.  1.
         14    1    6    6    0    0  0.37005350458E+02  0.11374915462E+02  0.64404092857E+02  0.75144340046E+02  0.00000000000E+00 0. -1.
         -5    1    3    3    0  503 -0.16105654265E+02  0.28103672296E+02  0.10212036849E+02  0.34286793266E+02  0.47000000000E+01 0.  1.
         13    1    4    4    0    0  0.44242264196E+01  0.30020947541E+02  0.74636780237E+02  0.80569721576E+02  0.00000000000E+00 0. -1.
        -14    1    4    4    0    0  0.20834049910E+02 -0.26958938170E+02  0.38704979603E+03  0.38854650506E+03  0.00000000000E+00 0.  1.
</event>
<event>
12    1  0.8747122E-002  0.1830946E+03  0.7818608E-02  0.1165209E+00
         21   -1    0    0  501  502  0.00000000000E+00  0.00000000000E+00  0.63798058117E+03  0.63798058117E+03  0.00000000000E+00 0. -1.
         21   -1    0    0  502  503 -0.00000000000E+00 -0.00000000000E+00 -0.53325372341E+02  0.53325372341E+02  0.00000000000E+00 0. -1.
         -6    2    1    2    0  503 -0.48789107449E+00 -0.58732514633E+02  0.34343014785E+03  0.38846412555E+03  0.17178580872E+03 0.  0.
        -24    2    3    3    0    0  0.20579777410E+02  0.16271212959E+01  0.72266620974E+02  0.10982658212E+03  0.80082700194E+02 0.  0.
          6    2    1    2  501    0  0.48789107449E+00  0.58732514633E+02  0.24122506099E+03  0.30284182797E+03  0.17341827010E+03 0.  0.
         24    2    5    5    0    0 -0.36634171279E+02  0.93050900642E+02  0.16636036976E+03  0.21238404155E+03  0.86201368089E+02 0.  0.
          5    1    5    5  501    0  0.37122062354E+02 -0.34318386009E+02  0.74864691224E+02  0.90457786418E+02  0.47000000000E+01 0. -1.
        -11    1    6    6    0    0 -0.52899441417E+01  0.13186256975E+02  0.10727454726E+03  0.10821131813E+03  0.00000000000E+00 0.  1.
         12    1    6    6    0    0 -0.31344227137E+02  0.79864643667E+02  0.59085822505E+02  0.10417272342E+03  0.00000000000E+00 0. -1.
         -5    1    3    3    0  503 -0.21067668485E+02 -0.60359635929E+02  0.27116352687E+03  0.27863754343E+03  0.47000000000E+01 0.  1.
         11    1    4    4    0    0 -0.72692221981E+01 -0.11025170698E+02  0.77652728784E+02  0.78767647343E+02  0.00000000000E+00 0. -1.
        -12    1    4    4    0    0  0.27848999608E+02  0.12652291994E+02 -0.53861078107E+01  0.31058934773E+02  0.00000000000E+00 0.  1.
</event>
<event>
12    1  0.8747122E-002  0.2021522E+03  0.7818608E-02  0.1149371E+00
         21   -1    0    0  503  502  0.00000000000E+00  0.00000000000E+00  0.64804334522E+03  0.64804334522E+03  0.00000000000E+00 0.  1.
         21   -1    0    0  501  503 -0.00000000000E+00 -0.00000000000E+00 -0.68283165654E+02  0.68283165654E+02  0.00000000000E+00 0.  1.
          6    2    1    2  501    0 -0.64845310829E+01  0.10749469278E+03  0.17704870865E+03  0.26872241664E+03  0.17107990487E+03 0.  0.
         24    2    3    3    0    0 -0.22628836109E+02  0.86293976287E+02  0.19959002477E+03  0.23350438295E+03  0.82032946433E+02 0.  0.
         -6    2    1    2    0  502  0.64845310829E+01 -0.10749469278E+03  0.40271147092E+03  0.44760409424E+03  0.16302066817E+03 0.  0.
        -24    2    5    5    0    0 -0.33381597765E+02 -0.39416781798E+02  0.31755185875E+03  0.33142251335E+03  0.79584455797E+02 0.  0.
          5    1    3    3  501    0  0.16144305026E+02  0.21200716488E+02 -0.22541316122E+02  0.35218033689E+02  0.47000000000E+01 0. -1.
        -13    1    4    4    0    0  0.17677766873E+02  0.56282374247E+02  0.55864374023E+02  0.81246768413E+02  0.00000000000E+00 0.  1.
         14    1    4    4    0    0 -0.40306602981E+02  0.30011602040E+02  0.14372565075E+03  0.15225761454E+03  0.00000000000E+00 0. -1.
         -5    1    5    5    0  502  0.39866128847E+02 -0.68077910978E+02  0.85159612165E+02  0.11618158088E+03  0.47000000000E+01 0.  1.
         13    1    6    6    0    0  0.18048634165E+02 -0.42510240383E+01  0.17332460005E+03  0.17431362936E+03  0.00000000000E+00 0. -1.
        -14    1    6    6    0    0 -0.51430231929E+02 -0.35165757760E+02  0.14422725870E+03  0.15710888399E+03  0.00000000000E+00 0.  1.
</event>
<event>
12    1  0.8747122E-002  0.2800143E+03  0.7818608E-02  0.1095761E+00
         21   -1    0    0  501  502  0.00000000000E+00  0.00000000000E+00  0.19480297545E+04  0.19480297545E+04  0.00000000000E+00 0.  1.
         21   -1    0    0  502  503 -0.00000000000E+00 -0.00000000000E+00 -0.40756229573E+02  0.40756229573E+02  0.00000000000E+00 0. -1.
         -6    2    1    2    0  503  0.11828847646E+03 -0.18614716094E+03  0.83302815937E+03  0.87864584181E+03  0.17157992844E+03 0.  0.
        -24    2    3    3    0    0  0.52440595162E+02 -0.40972056552E+02  0.48534530162E+03  0.49613151009E+03  0.78470937643E+02 0.  0.
          6    2    1    2  501    0 -0.11828847646E+03  0.18614716094E+03  0.10742453655E+04  0.11101401423E+04  0.17252565272E+03 0.  0.
         24    2    5    5    0    0 -0.21208653157E+02  0.58692299850E+02  0.62667133769E+03  0.63473101936E+03  0.79195381397E+02 0.  0.
          5    1    5    5  501    0 -0.97079823301E+02  0.12745486109E+03  0.44757402786E+03  0.47540912289E+03  0.47000000000E+01 0. -1.
        -11    1    6    6    0    0  0.24329801392E+02  0.42603680988E+02  0.39817887487E+03  0.40119001641E+03  0.00000000000E+00 0.  1.
         12    1    6    6    0    0 -0.45538454549E+02  0.16088618861E+02  0.22849246281E+03  0.23354100296E+03  0.00000000000E+00 0. -1.
         -5    1    3    3    0  503  0.65847881297E+02 -0.14517510439E+03  0.34768285775E+03  0.38251433173E+03  0.47000000000E+01 0.  1.
         11    1    4    4    0    0 -0.90680152156E+01  0.10003682899E+02  0.21010905930E+02  0.24975202491E+02  0.00000000000E+00 0. -1.
        -12    1    4    4    0    0  0.61508610377E+02 -0.50975739451E+02  0.46433439569E+03  0.47115630760E+03  0.00000000000E+00 0.  1.
</event>
<event>
12    1  0.8747122E-002  0.1869991E+03  0.7818608E-02  0.1161585E+00
         21   -1    0    0  503  502  0.00000000000E+00  0.00000000000E+00  0.65915348446E+02  0.65915348446E+02  0.00000000000E+00 0.  1.
         21   -1    0    0  501  503 -0.00000000000E+00 -0.00000000000E+00 -0.12507653876E+04  0.12507653876E+04  0.00000000000E+00 0.  1.
          6    2    1    2  501    0 -0.65881153227E+02  0.13374862557E+02 -0.10925275387E+04  0.11081331339E+04  0.17269454645E+03 0.  0.
         24    2    3    3    0    0 -0.40181806001E+02 -0.47185485650E+02 -0.87575480384E+03  0.88154866666E+03  0.79627430310E+02 0.  0.
         -6    2    1    2    0  502  0.65881153227E+02 -0.13374862557E+02 -0.92322500477E+02  0.20854760215E+03  0.17449769331E+03 0.  0.
        -24    2    5    5    0    0  0.11272958246E+03 -0.15254895216E+02 -0.60943934697E+02  0.15193475701E+03  0.80183144234E+02 0.  0.
          5    1    3    3  501    0 -0.25699347225E+02  0.60560348206E+02 -0.21677273486E+03  0.22658446725E+03  0.47000000000E+01 0. -1.
        -13    1    4    4    0    0 -0.40256805870E+02 -0.11320689721E+02 -0.73857778631E+03  0.73976071460E+03  0.00000000000E+00 0.  1.
         14    1    4    4    0    0  0.74999868406E-01 -0.35864795929E+02 -0.13717701753E+03  0.14178795206E+03  0.00000000000E+00 0. -1.
         -5    1    5    5    0  502 -0.46848429238E+02  0.18800326593E+01 -0.31378565781E+02  0.56612845144E+02  0.47000000000E+01 0.  1.
         11    1    6    6    0    0  0.79626733215E+02  0.26909073131E+02 -0.47988880541E+02  0.96785574932E+02  0.00000000000E+00 0. -1.
        -12    1    6    6    0    0  0.33102849249E+02 -0.42163968347E+02 -0.12955054156E+02  0.55149182074E+02  0.00000000000E+00 0.  1.
</event>
<event>
12    1  0.8747122E-002  0.3057659E+03  0.7818608E-02  0.1082475E+00
         21   -1    0    0  501  502  0.00000000000E+00  0.00000000000E+00  0.25684597507E+03  0.25684597507E+03  0.00000000000E+00 0.  1.
         21   -1    0    0  502  503 -0.00000000000E+00 -0.00000000000E+00 -0.38995849158E+03  0.38995849158E+03  0.00000000000E+00 0.  1.
         -6    2    1    2    0  503 -0.88078911584E+02  0.23628707233E+03 -0.15119162967E+03  0.34050454757E+03  0.17174097593E+03 0.  0.
        -24    2    3    3    0    0 -0.17035403368E+02  0.24887919768E+02 -0.24977546369E+02  0.84206153917E+02  0.74546529206E+02 0.  0.
          6    2    1    2  501    0  0.88078911584E+02 -0.23628707233E+03  0.18079113161E+02  0.30629991908E+03  0.17292573805E+03 0.  0.
         24    2    5    5    0    0 -0.16424740933E+02 -0.14687841706E+03  0.10254324595E+02  0.16846582191E+03  0.80203120059E+02 0.  0.
          5    1    5    5  501    0  0.10450365252E+03 -0.89408655268E+02  0.78247885659E+01  0.13783409717E+03  0.47000000000E+01 0. -1.
        -11    1    6    6    0    0 -0.44966144143E+00  0.51539109249E+00 -0.17601362092E+02  0.17614646488E+02  0.00000000000E+00 0.  1.
         12    1    6    6    0    0 -0.15975079492E+02 -0.14739380815E+03  0.27855686687E+02  0.15085117543E+03  0.00000000000E+00 0. -1.
         -5    1    3    3    0  503 -0.71043508215E+02  0.21139915256E+03 -0.12621408330E+03  0.25629839365E+03  0.47000000000E+01 0.  1.
         11    1    4    4    0    0 -0.10751648954E+02 -0.26034183103E+02 -0.15087779590E+02  0.31953368180E+02  0.00000000000E+00 0. -1.
        -12    1    4    4    0    0 -0.62837544141E+01  0.50922102871E+02 -0.98897667781E+01  0.52252785737E+02  0.00000000000E+00 0.  1.
</event>
<event>
12    1  0.8747122E-002  0.3401987E+03  0.7818608E-02  0.1066713E+00
         21   -1    0    0  501  502  0.00000000000E+00  0.00000000000E+00  0.19791173287E+03  0.19791173287E+03  0.00000000000E+00 0. -1.
         21   -1    0    0  502  503 -0.00000000000E+00 -0.00000000000E+00 -0.92148904712E+03  0.92148904712E+03  0.00000000000E+00 0. -1.
         -6    2    1    2    0  503 -0.28140336014E+03 -0.83264585779E+02 -0.70012921111E+03  0.77840612222E+03  0.17208816496E+03 0.  0.
        -24    2    3    3    0    0 -0.21219938626E+03 -0.71185754047E+02 -0.36331707324E+03  0.43431370092E+03  0.80827619023E+02 0.  0.
          6    2    1    2  501    0  0.28140336014E+03  0.83264585779E+02 -0.23448103139E+02  0.34099465777E+03  0.17206597787E+03 0.  0.
         24    2    5    5    0    0  0.14191604055E+03  0.10717593925E+02 -0.68076593157E+02  0.17749061967E+03  0.81323232528E+02 0.  0.
          5    1    5    5  501    0  0.13948731960E+03  0.72546991854E+02  0.44628490017E+02  0.16350403810E+03  0.47000000000E+01 0. -1.
        -11    1    6    6    0    0  0.27178397813E+02 -0.31530920724E+02 -0.18490205091E+02  0.45549445152E+02  0.00000000000E+00 0.  1.
         12    1    6    6    0    0  0.11473764274E+03  0.42248514649E+02 -0.49586388065E+02  0.13194117451E+03  0.00000000000E+00 0. -1.
         -5    1    3    3    0  503 -0.69203973886E+02 -0.12078831732E+02 -0.33681213787E+03  0.34409242130E+03  0.47000000000E+01 0.  1.
         11    1    4    4    0    0 -0.87302308774E+02 -0.39835294906E+02 -0.22873661287E+03  0.24805036163E+03  0.00000000000E+00 0. -1.
        -12    1    4    4    0    0 -0.12489707748E+03 -0.31350459141E+02 -0.13458046037E+03  0.18626333930E+03  0.00000000000E+00 0.  1.
</event>
<event>
12    1  0.8747122E-002  0.1891106E+03  0.7818608E-02  0.1159414E+00
         21   -1    0    0  501  502  0.00000000000E+00  0.00000000000E+00  0.36496682982E+03  0.36496682982E+03  0.00000000000E+00 0. -1.
         21   -1    0    0  502  503 -0.00000000000E+00 -0.00000000000E+00 -0.10532116895E+03  0.10532116895E+03  0.00000000000E+00 0.  1.
         -6    2    1    2    0  503 -0.74934167946E+02 -0.45307605920E+01  0.19306870491E+03  0.26980034114E+03  0.17286133734E+03 0.  0.
        -24    2    3    3    0    0 -0.93291236598E+02  0.14910042194E+02  0.20582349002E+03  0.23980531945E+03  0.78852507960E+02 0.  0.
          6    2    1    2  501    0  0.74934167946E+02  0.45307605920E+01  0.66576955964E+02  0.20048765764E+03  0.17357175025E+03 0.  0.
         24    2    5    5    0    0  0.11715219978E+03  0.19425407323E+01  0.30301818773E+02  0.14456774462E+03  0.79077311445E+02 0.  0.
          5    1    5    5  501    0 -0.42218031835E+02  0.25882198597E+01  0.36275137191E+02  0.55919913021E+02  0.47000000000E+01 0. -1.
        -13    1    6    6    0    0  0.65398153536E+02  0.26304429029E+01 -0.23847748673E+02  0.69660267244E+02  0.00000000000E+00 0.  1.
         14    1    6    6    0    0  0.51754046246E+02 -0.68790217056E+00  0.54149567446E+02  0.74907477376E+02  0.00000000000E+00 0. -1.
         -5    1    3    3    0  503  0.18357068652E+02 -0.19440802786E+02 -0.12754785111E+02  0.29995021681E+02  0.47000000000E+01 0.  1.
         13    1    4    4    0    0 -0.39634912837E+02 -0.94371461928E+01  0.16015827841E+03  0.16525937246E+03  0.00000000000E+00 0. -1.
        -14    1    4    4    0    0 -0.53656323761E+02  0.24347188386E+02  0.45665211612E+02  0.74545946996E+02  0.00000000000E+00 0.  1.
</event>
<event>
12    1  0.8747122E-002  0.2022531E+03  0.7818608E-02  0.1147937E+00
         21   -1    0    0  503  502  0.00000000000E+00  0.00000000000E+00  0.56300959601E+03  0.56300959601E+03  0.00000000000E+00 0.  1.
         21   -1    0    0  501  503 -0.00000000000E+00 -0.00000000000E+00 -0.52005819600E+03  0.52005819600E+03  0.00000000000E+00 0.  1.
          6    2    1    2  501    0 -0.40477663885E+02  0.97568794874E+02 -0.48088671759E+03  0.52168799615E+03  0.17247672067E+03 0.  0.
         24    2    3    3    0    0 -0.80106104314E+02  0.76441839039E+02 -0.23206570374E+03  0.26880314393E+03  0.78360044853E+02 0.  0.
         -6    2    1    2    0  502  0.40477663885E+02 -0.97568794874E+02  0.52383811760E+03  0.56137979585E+03  0.17199648466E+03 0.  0.
        -24    2    5    5    0    0  0.94811833137E+02 -0.30994114384E+02  0.27815526116E+03  0.30105971215E+03  0.57590642810E+02 0.  0.
          5    1    3    3  501    0  0.39628440429E+02  0.21126955834E+02 -0.24882101385E+03  0.25288485223E+03  0.47000000000E+01 0. -1.
        -13    1    4    4    0    0 -0.50149023417E+02  0.82097757618E+02 -0.21055591123E+03  0.23149245800E+03  0.00000000000E+00 0.  1.
         14    1    4    4    0    0 -0.29957080896E+02 -0.56559185790E+01 -0.21509792508E+02  0.37310685930E+02  0.00000000000E+00 0. -1.
         -5    1    5    5    0  502 -0.54334169253E+02 -0.66574680489E+02  0.24568285645E+03  0.26032008371E+03  0.47000000000E+01 0.  1.
         13    1    6    6    0    0  0.16864274115E+02 -0.28921522405E+02  0.52057057035E+02  0.61893419575E+02  0.00000000000E+00 0. -1.
        -14    1    6    6    0    0  0.77947559023E+02 -0.20725919798E+01  0.22609820412E+03  0.23916629257E+03  0.00000000000E+00 0.  1.
</event>
<event>
12    1  0.8747122E-002  0.2688001E+03  0.7818608E-02  0.1101986E+00
         21   -1    0    0  501  502  0.00000000000E+00  0.00000000000E+00  0.67529120902E+03  0.67529120902E+03  0.00000000000E+00 0.  1.
         21   -1    0    0  502  503 -0.00000000000E+00 -0.00000000000E+00 -0.16508709581E+03  0.16508709581E+03  0.00000000000E+00 0.  1.
         -6    2    1    2    0  503  0.87883544317E+02  0.18697970458E+03  0.57041732066E+01  0.26873707598E+03  0.17176190244E+03 0.  0.
        -24    2    3    3    0    0 -0.11805511178E+02  0.92454204159E+02  0.37212090442E+02  0.12771290478E+03  0.78985418977E+02 0.  0.
          6    2    1    2  501    0 -0.87883544317E+02 -0.18697970458E+03  0.50449994000E+03  0.57164122885E+03  0.17195516211E+03 0.  0.
         24    2    5    5    0    0 -0.83058759525E+02 -0.14720480494E+03  0.24044370851E+03  0.30452120980E+03  0.79699298139E+02 0.  0.
          5    1    5    5  501    0 -0.48247847920E+01 -0.39774899639E+02  0.26405623149E+03  0.26712001905E+03  0.47000000000E+01 0. -1.
        -11    1    6    6    0    0 -0.59586320873E+02 -0.47639235906E+02  0.59834930791E+02  0.96954862568E+02  0.00000000000E+00 0.  1.
         12    1    6    6    0    0 -0.23472438652E+02 -0.99565569038E+02  0.18060877772E+03  0.20756634723E+03  0.00000000000E+00 0. -1.
         -5    1    3    3    0  503  0.99689055495E+02  0.94525500423E+02 -0.31507917235E+02  0.14102417121E+03  0.47000000000E+01 0.  1.
         13    1    4    4    0    0  0.64195279121E+01  0.99944762511E+01  0.41487982795E+02  0.43154983612E+02  0.00000000000E+00 0. -1.
        -14    1    4    4    0    0 -0.18225039090E+02  0.82459727908E+02 -0.42758923534E+01  0.84557921166E+02  0.00000000000E+00 0.  1.
</event>
<event>
12    1  0.8747122E-002  0.2154742E+03  0.7818608E-02  0.1137472E+00
         21   -1    0    0  501  502  0.00000000000E+00  0.00000000000E+00  0.39665661507E+03  0.39665661507E+03  0.00000000000E+00 0.  1.
         21   -1    0    0  502  503 -0.00000000000E+00 -0.00000000000E+00 -0.41437600924E+03  0.41437600924E+03  0.00000000000E+00 0.  1.
         -6    2    1    2    0  503  0.10476160155E+03 -0.74732638006E+02 -0.35263009247E+03  0.41279362760E+03  0.17172838009E+03 0.  0.
        -24    2    3    3    0    0  0.43779737860E+02 -0.81742480178E+02 -0.98258890137E+02  0.15107866020E+03  0.67612525191E+02 0.  0.
          6    2    1    2  501    0 -0.10476160155E+03  0.74732638006E+02  0.33491069830E+03  0.39823899672E+03  0.17282697222E+03 0.  0.
         24    2    5    5    0    0 -0.37054818254E+02 -0.10630771342E+01  0.69046295414E+02  0.11357222721E+03  0.82201400197E+02 0.  0.
          5    1    5    5  501    0 -0.67706783295E+02  0.75795715140E+02  0.26586440289E+03  0.28466676950E+03  0.47000000000E+01 0. -1.
        -13    1    6    6    0    0 -0.36172405001E+02  0.10523748972E+02  0.85498451402E+02  0.93430066725E+02  0.00000000000E+00 0.  1.
         14    1    6    6    0    0 -0.88241325287E+00 -0.11586826107E+02 -0.16452155988E+02  0.20142160486E+02  0.00000000000E+00 0. -1.
         -5    1    3    3    0  503  0.60981863689E+02  0.70098421722E+01 -0.25437120233E+03  0.26171496740E+03  0.47000000000E+01 0.  1.
         13    1    4    4    0    0  0.78219830235E+01 -0.24558825892E+02  0.63598922630E+01  0.26547458960E+02  0.00000000000E+00 0. -1.
        -14    1    4    4    0    0  0.35957754837E+02 -0.57183654286E+02 -0.10461878240E+03  0.12453120124E+03  0.00000000000E+00 0.  1.
</event>
<event>
12    1  0.8747122E-002  0.1836393E+03  0.7818608E-02  0.1164819E+00
         21   -1    0    0  503  502  0.00000000000E+00  0.00000000000E+00  0.14282303209E+03  0.14282303209E+03  0.00000000000E+00 0. -1.
         21   -1    0    0  501  503 -0.00000000000E+00 -0.00000000000E+00 -0.26714058834E+03  0.26714058834E+03  0.00000000000E+00 0. -1.
          6    2    1    2  501    0 -0.11245170039E+02  0.59264969037E+02 -0.13525068784E+03  0.22807047463E+03  0.17344913500E+03 0.  0.
         24    2    3    3    0    0 -0.41545928416E+02  0.17167043264E+02 -0.14793379031E+03  0.17446709413E+03  0.80830619675E+02 0.  0.
         -6    2    1    2    0  502  0.11245170039E+02 -0.59264969037E+02  0.10933131594E+02  0.18189314580E+03  0.17125067217E+03 0.  0.
        -24    2    5    5    0    0  0.59247858909E+02 -0.68820882547E+02  0.36190959908E+02  0.12661546936E+03  0.80467812454E+02 0.  0.
          5    1    3    3  501    0  0.30300758378E+02  0.42097925774E+02  0.12683102467E+02  0.53603380499E+02  0.47000000000E+01 0. -1.
        -11    1    4    4    0    0  0.20216230702E+02 -0.71976431729E+01 -0.15995117627E+02  0.26764637844E+02  0.00000000000E+00 0.  1.
         12    1    4    4    0    0 -0.61762159118E+02  0.24364686437E+02 -0.13193867268E+03  0.14770245629E+03  0.00000000000E+00 0. -1.
         -5    1    5    5    0  502 -0.48002688871E+02  0.95559135091E+01 -0.25257828314E+02  0.55277676443E+02  0.47000000000E+01 0.  1.
         11    1    6    6    0    0  0.76564315143E+01 -0.68108575272E+02  0.29388386478E+02  0.74572623857E+02  0.00000000000E+00 0. -1.
        -12    1    6    6    0    0  0.51591427395E+02 -0.71230727454E+00  0.68025734299E+01  0.52042845498E+02  0.00000000000E+00 0.  1.
</event>
<event>
12    1  0.8747122E-002  0.1861282E+03  0.7818608E-02  0.1162111E+00
         21   -1    0    0  503  502  0.00000000000E+00  0.00000000000E+00  0.10298582107E+04  0.10298582107E+04  0.00000000000E+00 0. -1.
         21   -1    0    0  501  503 -0.00000000000E+00 -0.00000000000E+00 -0.60557869095E+02  0.60557869095E+02  0.00000000000E+00 0.  1.
          6    2    1    2  501    0 -0.44429026064E+02  0.54754845450E+02  0.12091567271E+03  0.22195565385E+03  0.17225469780E+03 0.  0.
         24    2    3    3    0    0 -0.68262803040E+02  0.45214248122E+02  0.14694042864E+03  0.18509849927E+03  0.77238761987E+02 0.  0.
         -6    2    1    2    0  502  0.44429026064E+02 -0.54754845450E+02  0.84838466889E+03  0.86846042593E+03  0.17174089072E+03 0.  0.
        -24    2    5    5    0    0  0.82508755848E+02 -0.77723851572E+02  0.69284239554E+03  0.70661750869E+03  0.80181211231E+02 0.  0.
          5    1    3    3  501    0  0.23833776975E+02  0.95405973286E+01 -0.26024755932E+02  0.36857154579E+02  0.47000000000E+01 0. -1.
        -11    1    4    4    0    0  0.12728084559E+02  0.10843129851E+02  0.39060682605E+01  0.17170759178E+02  0.00000000000E+00 0.  1.
         12    1    4    4    0    0 -0.80990887598E+02  0.34371118271E+02  0.14303436038E+03  0.16792774010E+03  0.00000000000E+00 0. -1.
         -5    1    5    5    0  502 -0.38079729783E+02  0.22969006121E+02  0.15554227335E+03  0.16184291724E+03  0.47000000000E+01 0.  1.
         11    1    6    6    0    0 -0.22133883691E+01 -0.43338561700E+01  0.24204296870E+03  0.24209188358E+03  0.00000000000E+00 0. -1.
        -12    1    6    6    0    0  0.84722144217E+02 -0.73389995402E+02  0.45079942683E+03  0.46452562511E+03  0.00000000000E+00 0.  1.
</event>
<event>
12    1  0.8747122E-002  0.2147107E+03  0.7818608E-02  0.1137918E+00
         21   -1    0    0  501  502  0.00000000000E+00  0.00000000000E+00  0.53829781655E+02  0.53829781655E+02  0.00000000000E+00 0.  1.
         21   -1    0    0  502  503 -0.00000000000E+00 -0.00000000000E+00 -0.88123979993E+03  0.88123979993E+03  0.00000000000E+00 0. -1.
         -6    2    1    2    0  503  0.10315329613E+03 -0.74947956708E+02 -0.33443492614E+03  0.39742597877E+03  0.17275094808E+03 0.  0.
        -24    2    3    3    0    0  0.85182142142E+02 -0.72624870619E+02 -0.34934178310E+03  0.37349559036E+03  0.70206163745E+02 0.  0.
          6    2    1    2  501    0 -0.10315329613E+03  0.74947956708E+02 -0.49297509214E+03  0.53764360281E+03  0.17256420098E+03 0.  0.
         24    2    5    5    0    0 -0.59860213903E+02  0.34431384646E+02 -0.45530353208E+03  0.46723678484E+03  0.78994565137E+02 0.  0.
          5    1    5    5  501    0 -0.43293082231E+02  0.40516572061E+02 -0.37671560056E+02  0.70406817977E+02  0.47000000000E+01 0. -1.
        -11    1    6    6    0    0 -0.76820563589E+02  0.18695931848E+02 -0.30109097061E+03  0.31129842506E+03  0.00000000000E+00 0.  1.
         12    1    6    6    0    0  0.16960349686E+02  0.15735452798E+02 -0.15421256147E+03  0.15593835978E+03  0.00000000000E+00 0. -1.
         -5    1    3    3    0  503  0.17971153992E+02 -0.23230860887E+01  0.14906856964E+02  0.23930388407E+02  0.47000000000E+01 0.  1.
         13    1    4    4    0    0  0.69413195118E+02 -0.77006869870E+02 -0.22093798869E+03  0.24405295431E+03  0.00000000000E+00 0. -1.
        -14    1    4    4    0    0  0.15768947024E+02  0.43819992505E+01 -0.12840379441E+03  0.12944263605E+03  0.00000000000E+00 0.  1.
</event>
<event>
12    1  0.8747122E-002  0.1753302E+03  0.7818608E-02  0.1172846E+00
         21   -1    0    0  503  502  0.00000000000E+00  0.00000000000E+00  0.26007056514E+03  0.26007056514E+03  0.00000000000E+00 0. -1.
         21   -1    0    0  501  503 -0.00000000000E+00 -0.00000000000E+00 -0.13591859257E+03  0.13591859257E+03  0.00000000000E+00 0. -1.
          6    2    1    2  501    0  0.28542057385E+02 -0.55273548512E+01 -0.11497887196E+02  0.17570683185E+03  0.17290311928E+03 0.  0.
         24    2    3    3    0    0  0.59737608046E+02 -0.93101448023E+01 -0.60944847024E+02  0.11693129513E+03  0.79393909021E+02 0.  0.
         -6    2    1    2    0  502 -0.28542057385E+02  0.55273548512E+01  0.13564985977E+03  0.22028232587E+03  0.17110878979E+03 0.  0.
        -24    2    5    5    0    0 -0.59741470775E+02 -0.48398787597E+02  0.83741896113E+02  0.13905450473E+03  0.80074741031E+02 0.  0.
          5    1    3    3  501    0 -0.31195550661E+02  0.37827899511E+01  0.49446959828E+02  0.58775536723E+02  0.47000000000E+01 0. -1.
        -13    1    4    4    0    0  0.43196918755E+02  0.12429827276E+01  0.91238046953E+01  0.44167438324E+02  0.00000000000E+00 0.  1.
         14    1    4    4    0    0  0.16540689291E+02 -0.10553127530E+02 -0.70068651719E+02  0.72763856801E+02  0.00000000000E+00 0. -1.
         -5    1    5    5    0  502  0.31199413390E+02  0.53926142448E+02  0.51907963654E+02  0.81227821133E+02  0.47000000000E+01 0.  1.
         13    1    6    6    0    0  0.14959982097E+02 -0.18330380323E+02  0.42355360343E+02  0.48515775341E+02  0.00000000000E+00 0. -1.
        -14    1    6    6    0    0 -0.74701452872E+02 -0.30068407274E+02  0.41386535770E+02  0.90538729394E+02  0.00000000000E+00 0.  1.
</event>
<event>
12    1  0.8747122E-002  0.2316372E+03  0.7818608E-02  0.1125657E+00
         21   -1    0    0  501  502  0.00000000000E+00  0.00000000000E+00  0.41373505856E+02  0.41373505856E+02  0.00000000000E+00 0.  1.
         21   -1    0    0  502  503 -0.00000000000E+00 -0.00000000000E+00 -0.19212508701E+04  0.19212508701E+04  0.00000000000E+00 0.  1.
         -6    2    1    2    0  503 -0.15769632398E+01 -0.15503587412E+03 -0.15004277544E+04  0.15180596615E+04  0.17083056104E+03 0.  0.
        -24    2    3    3    0    0  0.47939961902E+02 -0.91826435533E+02 -0.60469116106E+03  0.61871907325E+03  0.80196989536E+02 0.  0.
          6    2    1    2  501    0  0.15769632398E+01  0.15503587412E+03 -0.37944960985E+03  0.44456471447E+03  0.17209639700E+03 0.  0.
         24    2    5    5    0    0 -0.67041721010E+01  0.57923987476E+02 -0.74281217148E+02  0.12417567965E+03  0.80633528678E+02 0.  0.
          5    1    5    5  501    0  0.82811353408E+01  0.97111886643E+02 -0.30516839270E+03  0.32038903482E+03  0.47000000000E+01 0. -1.
        -11    1    6    6    0    0  0.30247777094E+02  0.47675290070E+02 -0.62123791471E+02  0.83947762144E+02  0.00000000000E+00 0.  1.
         12    1    6    6    0    0 -0.36951949195E+02  0.10248697406E+02 -0.12157425677E+02  0.40227917506E+02  0.00000000000E+00 0. -1.
         -5    1    3    3    0  503 -0.49516925142E+02 -0.63209438586E+02 -0.89573659334E+03  0.89934058824E+03  0.47000000000E+01 0.  1.
         11    1    4    4    0    0  0.20579594195E+02 -0.44281405337E+01 -0.29257764521E+02  0.36043652848E+02  0.00000000000E+00 0. -1.
        -12    1    4    4    0    0  0.27360367706E+02 -0.87398294999E+02 -0.57543339654E+03  0.58267542040E+03  0.00000000000E+00 0.  1.
</event>
<event>
12    1  0.8747122E-002  0.2066804E+03  0.7818608E-02  0.1146235E+00
         21   -1    0    0  501  502  0.00000000000E+00  0.00000000000E+00  0.18399941448E+03  0.18399941448E+03  0.00000000000E+00 0.  1.
         21   -1    0    0  502  503 -0.00000000000E+00 -0.00000000000E+00 -0.65069664970E+03  0.65069664970E+03  0.00000000000E+00 0. -1.
         -6    2    1    2    0  503  0.66176492122E+02 -0.92748268323E+02 -0.57422144229E+03  0.61028441856E+03  0.17243908305E+03 0.  0.
        -24    2    3    3    0    0  0.55338971282E+02 -0.30490696681E+02 -0.14861425044E+03  0.17998565161E+03  0.79476757763E+02 0.  0.
          6    2    1    2  501    0 -0.66176492122E+02  0.92748268323E+02  0.10752420707E+03  0.22441164562E+03  0.16067844347E+03 0.  0.
         24    2    5    5    0    0 -0.58378738819E+02  0.58407150573E+02  0.32696419733E+01  0.11426982037E+03  0.78914060244E+02 0.  0.
          5    1    5    5  501    0 -0.77977533029E+01  0.34341117750E+02  0.10425456510E+03  0.11014182525E+03  0.47000000000E+01 0. -1.
        -11    1    6    6    0    0 -0.12886190052E+02  0.66740774046E+02  0.18853399836E+01  0.67999553830E+02  0.00000000000E+00 0.  1.
         12    1    6    6    0    0 -0.45492548766E+02 -0.83336234731E+01  0.13843019897E+01  0.46270266538E+02  0.00000000000E+00 0. -1.
         -5    1    3    3    0  503  0.10837520839E+02 -0.62257571642E+02 -0.42560719185E+03  0.43029876695E+03  0.47000000000E+01 0.  1.
         11    1    4    4    0    0 -0.77335668109E+01 -0.33353169656E+02 -0.78452427800E+02  0.85598045594E+02  0.00000000000E+00 0. -1.
        -12    1    4    4    0    0  0.63072538093E+02  0.28624729747E+01 -0.70161822637E+02  0.94387606012E+02  0.00000000000E+00 0.  1.
</event>
<event>
12    1  0.8747122E-002  0.2107249E+03  0.7818608E-02  0.1141152E+00
         21   -1    0    0  503  502  0.00000000000E+00  0.00000000000E+00  0.45877295727E+03  0.45877295727E+03  0.00000000000E+00 0. -1.
         21   -1    0    0  501  503 -0.00000000000E+00 -0.00000000000E+00 -0.11825578299E+03  0.11825578299E+03  0.00000000000E+00 0. -1.
          6    2    1    2  501    0  0.86157818227E+02 -0.83162630465E+02  0.46552367987E+02  0.21580569388E+03  0.17339487247E+03 0.  0.
         24    2    3    3    0    0  0.59739131228E+02  0.29392533267E+02  0.17217831203E+02  0.96435609887E+02  0.67606866007E+02 0.  0.
         -6    2    1    2    0  502 -0.86157818227E+02  0.83162630465E+02  0.29396480629E+03  0.36122304638E+03  0.17241690505E+03 0.  0.
        -24    2    5    5    0    0 -0.10755640110E+03  0.84747703128E+02  0.17861680342E+03  0.24380216420E+03  0.93728225225E+02 0.  0.
          5    1    3    3  501    0  0.26418686998E+02 -0.11255516373E+03  0.29334536784E+02  0.11937008400E+03  0.47000000000E+01 0. -1.
        -13    1    4    4    0    0  0.59099158583E+02  0.77725378688E+01  0.34391037043E+02  0.68817630873E+02  0.00000000000E+00 0.  1.
         14    1    4    4    0    0  0.63997264563E+00  0.21619995398E+02 -0.17173205840E+02  0.27617979014E+02  0.00000000000E+00 0. -1.
         -5    1    5    5    0  502  0.21398582868E+02 -0.15850726632E+01  0.11534800287E+03  0.11742088217E+03  0.47000000000E+01 0.  1.
         11    1    6    6    0    0 -0.55872625621E+02 -0.10668256529E+02  0.52256750897E+02  0.77242022277E+02  0.00000000000E+00 0. -1.
        -12    1    6    6    0    0 -0.51683775474E+02  0.95415959657E+02  0.12636005252E+03  0.16656014193E+03  0.00000000000E+00 0.  1.
</event>
<event>
12    1  0.8747122E-002  0.1982261E+03  0.7818608E-02  0.1151434E+00
         21   -1    0    0  501  502  0.00000000000E+00  0.00000000000E+00  0.22784894856E+03  0.22784894856E+03  0.00000000000E+00 0. -1.
         21   -1    0    0  502  503 -0.00000000000E+00 -0.00000000000E+00 -0.30301543955E+03  0.30301543955E+03  0.00000000000E+00 0. -1.
         -6    2    1    2    0  503  0.26718158761E+02  0.93385255457E+02 -0.21237669748E+03  0.29051240630E+03  0.17279736873E+03 0.  0.
        -24    2    3    3    0    0  0.43380382645E+02  0.80365275406E+02 -0.23162152700E+03  0.26153650168E+03  0.80077305489E+02 0.  0.
          6    2    1    2  501    0 -0.26718158761E+02 -0.93385255457E+02  0.13721020649E+03  0.24035198182E+03  0.17177825373E+03 0.  0.
         24    2    5    5    0    0 -0.92644881269E+01 -0.48451786733E+02  0.16029502947E+03  0.18669896436E+03  0.82028046675E+02 0.  0.
          5    1    5    5  501    0 -0.17453670634E+02 -0.44933468724E+02 -0.23084822984E+02  0.53653017458E+02  0.47000000000E+01 0. -1.
        -11    1    6    6    0    0 -0.11824367918E+02  0.21008303671E+02  0.25833298061E+02  0.35334456109E+02  0.00000000000E+00 0.  1.
         12    1    6    6    0    0  0.25598797915E+01 -0.69460090404E+02  0.13446173141E+03  0.15136450825E+03  0.00000000000E+00 0. -1.
         -5    1    3    3    0  503 -0.16662223884E+02  0.13019980051E+02  0.19244829519E+02  0.28975904619E+02  0.47000000000E+01 0.  1.
         11    1    4    4    0    0  0.30404435090E+02  0.30422848779E+02 -0.19122934966E+03  0.19600674369E+03  0.00000000000E+00 0. -1.
        -12    1    4    4    0    0  0.12975947555E+02  0.49942426627E+02 -0.40392177336E+02  0.65529757990E+02  0.00000000000E+00 0.  1.
</event>
<event>
12    1  0.8747122E-002  0.1919429E+03  0.7818608E-02  0.1156876E+00
         21   -1    0    0  501  502  0.00000000000E+00  0.00000000000E+00  0.74873335124E+02  0.74873335124E+02  0.00000000000E+00 0.  1.
         21   -1    0    0  502  503 -0.00000000000E+00 -0.00000000000E+00 -0.13578610137E+04  0.13578610137E+04  0.00000000000E+00 0.  1.
         -6    2    1    2    0  503 -0.60118513278E+02  0.57688385384E+02 -0.12145335392E+04  0.12296071695E+04  0.17291584092E+03 0.  0.
        -24    2    3    3    0    0  0.25679796576E+01 -0.36309459921E+01 -0.28752950457E+03  0.29845292504E+03  0.79882126762E+02 0.  0.
          6    2    1    2  501    0  0.60118513278E+02 -0.57688385384E+02 -0.68454139311E+02  0.20312717924E+03  0.17214091992E+03 0.  0.
         24    2    5    5    0    0  0.11113632055E+02 -0.26991034842E+02 -0.10405211076E+03  0.13506021747E+03  0.81008590962E+02 0.  0.
          5    1    5    5  501    0  0.49004881223E+02 -0.30697350543E+02  0.35597971447E+02  0.68066961774E+02  0.47000000000E+01 0. -1.
        -11    1    6    6    0    0 -0.64098806698E+01 -0.53510053677E+02 -0.58811872497E+02  0.79769974059E+02  0.00000000000E+00 0.  1.
         12    1    6    6    0    0  0.17523512725E+02  0.26519018835E+02 -0.45240238260E+02  0.55290243408E+02  0.00000000000E+00 0. -1.
         -5    1    3    3    0  503 -0.62686492936E+02  0.61319331377E+02 -0.92700403466E+03  0.93115424451E+03  0.47000000000E+01 0.  1.
         11    1    4    4    0    0 -0.20916886471E+02 -0.33799466437E+02 -0.17978187258E+03  0.18412344169E+03  0.00000000000E+00 0. -1.
        -12    1    4    4    0    0  0.23484866129E+02  0.30168520445E+02 -0.10774763199E+03  0.11432948335E+03  0.00000000000E+00 0.  1.
</event>
<event>
12    1  0.8747122E-002  0.1883585E+03  0.7818608E-02  0.1160106E+00
         21   -1    0    0  503  502  0.00000000000E+00  0.00000000000E+00  0.14310823799E+04  0.14310823799E+04  0.00000000000E+00 0. -1.
         21   -1    0    0  501  503 -0.00000000000E+00 -0.00000000000E+00 -0.31060669473E+02  0.31060669473E+02  0.00000000000E+00 0. -1.
          6    2    1    2  501    0  0.70986756901E+02  0.23563118982E+02  0.37023860956E+03  0.41539806439E+03  0.17287158139E+03 0.  0.
         24    2    3    3    0    0  0.91338573741E+02  0.49561745546E+02  0.35649686062E+03  0.37932798405E+03  0.77463579645E+02 0.  0.
         -6    2    1    2    0  502 -0.70986756901E+02 -0.23563118982E+02  0.10297831008E+04  0.10467449850E+04  0.17212637375E+03 0.  0.
        -24    2    5    5    0    0 -0.58246854757E+02  0.21444619998E+02  0.34766161182E+03  0.36300540189E+03  0.83974744147E+02 0.  0.
          5    1    3    3  501    0 -0.20351816839E+02 -0.25998626564E+02  0.13741748941E+02  0.36070080342E+02  0.47000000000E+01 0. -1.
        -13    1    4    4    0    0  0.11699728337E+01  0.22485784350E+02  0.15846001251E+03  0.16005172570E+03  0.00000000000E+00 0.  1.
         14    1    4    4    0    0  0.90168600907E+02  0.27075961196E+02  0.19803684811E+03  0.21927625834E+03  0.00000000000E+00 0. -1.
         -5    1    5    5    0  502 -0.12739902145E+02 -0.45007738980E+02  0.68212148902E+03  0.68373958307E+03  0.47000000000E+01 0.  1.
         11    1    6    6    0    0 -0.70600135886E+02 -0.22460720609E+00  0.30924394192E+03  0.31720063879E+03  0.00000000000E+00 0. -1.
        -12    1    6    6    0    0  0.12353281129E+02  0.21669227204E+02  0.38417669901E+02  0.45804763103E+02  0.00000000000E+00 0.  1.
</event>
<event>
12    1  0.8747122E-002  0.2064425E+03  0.7818608E-02  0.1144569E+00
         21   -1    0    0  503  502  0.00000000000E+00  0.00000000000E+00  0.74643023053E+02  0.74643023053E+02  0.00000000000E+00 0. -1.
         21   -1    0    0  501  503 -0.00000000000E+00 -0.00000000000E+00 -0.10241848862E+04  0.10241848862E+04  0.00000000000E+00 0. -1.
          6    2    1    2  501    0  0.35712006714E+02  0.10604410385E+03 -0.84158291586E+03  0.86653349291E+03  0.17348714847E+03 0.  0.
         24    2    3    3    0    0  0.21066344883E+02  0.13133792053E+03 -0.80393150292E+03  0.81863786191E+03  0.78540736586E+02 0.  0.
         -6    2    1    2    0  502 -0.35712006714E+02 -0.10604410385E+03 -0.10795894730E+03  0.23229441636E+03  0.17258291394E+03 0.  0.
        -24    2    5    5    0    0  0.18292388972E+02 -0.11597432705E+03 -0.48460474810E+02  0.15119421713E+03  0.82015959699E+02 0.  0.
          5    1    3    3  501    0  0.14645661831E+02 -0.25293816684E+02 -0.37651412939E+02  0.47895631003E+02  0.47000000000E+01 0. -1.
        -11    1    4    4    0    0  0.20226942026E+02 -0.12813193501E+01 -0.15272666299E+03  0.15406558523E+03  0.00000000000E+00 0.  1.
         12    1    4    4    0    0  0.83940285698E+00  0.13261923988E+03 -0.65120483993E+03  0.66457227668E+03  0.00000000000E+00 0. -1.
         -5    1    5    5    0  502 -0.54004395686E+02  0.99302231996E+01 -0.59498472495E+02  0.81100199232E+02  0.47000000000E+01 0.  1.
         13    1    6    6    0    0  0.47473020777E+02 -0.43227709884E+02 -0.14787253983E+02  0.65886155479E+02  0.00000000000E+00 0. -1.
        -14    1    6    6    0    0 -0.29180631804E+02 -0.72746617164E+02 -0.33673220827E+02  0.85308061648E+02  0.00000000000E+00 0.  1.
</event>
<event>
12    1  0.8747122E-002  0.1788139E+03  0.7818608E-02  0.1169642E+00
         21   -1    0    0  503  502  0.00000000000E+00  0.00000000000E+00  0.12978667964E+03  0.12978667964E+03  0.00000000000E+00 0.  1.
         21   -1    0    0  501  503 -0.00000000000E+00 -0.00000000000E+00 -0.32455582954E+03  0.32455582954E+03  0.00000000000E+00 0.  1.
          6    2    1    2  501    0 -0.43315225680E+01  0.33659679820E+02 -0.21101104945E+03  0.27479251619E+03  0.17272384848E+03 0.  0.
         24    2    3    3    0    0 -0.20897919999E+02  0.62168577983E+01 -0.22476074649E+03  0.23959737202E+03  0.80088295862E+02 0.  0.
         -6    2    1    2    0  502  0.43315225680E+01 -0.33659679820E+02  0.16241899541E+02  0.17954999298E+03  0.17556384749E+03 0.  0.
        -24    2    5    5    0    0 -0.25639942422E+02 -0.53787924268E+02 -0.44480704711E+02  0.10874914832E+03  0.79355508466E+02 0.  0.
          5    1    3    3  501    0  0.16566397431E+02  0.27442822022E+02  0.13749697047E+02  0.35195144172E+02  0.47000000000E+01 0. -1.
        -11    1    4    4    0    0 -0.18536393867E+02 -0.46899024608E+01 -0.52841080935E+01  0.19837209507E+02  0.00000000000E+00 0.  1.
         12    1    4    4    0    0 -0.23615261320E+01  0.10906760259E+02 -0.21947663840E+03  0.21976016251E+03  0.00000000000E+00 0. -1.
         -5    1    5    5    0  502  0.29971464990E+02  0.20128244448E+02  0.60722604252E+02  0.70800844665E+02  0.47000000000E+01 0.  1.
         11    1    6    6    0    0 -0.52695865619E+02 -0.48202900427E+02 -0.35077454922E+02  0.79566335261E+02  0.00000000000E+00 0. -1.
        -12    1    6    6    0    0  0.27055923198E+02 -0.55850238407E+01 -0.94032497888E+01  0.29182813058E+02  0.00000000000E+00 0.  1.
</event>
<event>
12    1  0.8747122E-002  0.2206909E+03  0.7818608E-02  0.1134340E+00
         21   -1    0    0  503  502  0.00000000000E+00  0.00000000000E+00  0.98104512438E+02  0.98104512438E+02  0.00000000000E+00 0.  1.
         21   -1    0    0  501  503 -0.00000000000E+00 -0.00000000000E+00 -0.73069549216E+03  0.73069549216E+03  0.00000000000E+00 0. -1.
          6    2    1    2  501    0 -0.11422518413E+03 -0.77853107972E+02 -0.55911259360E+03  0.60109182610E+03  0.17203485684E+03 0.  0.
         24    2    3    3    0    0 -0.11051140608E+02 -0.71519713030E+02 -0.36817199986E+03  0.38391587097E+03  0.81262398689E+02 0.  0.
         -6    2    1    2    0  502  0.11422518413E+03  0.77853107972E+02 -0.73478386119E+02  0.22770817850E+03  0.16535852629E+03 0.  0.
        -24    2    5    5    0    0  0.43750603666E+02  0.10392049872E+03 -0.60326222975E+02  0.15128014210E+03  0.80826003488E+02 0.  0.
          5    1    3    3  501    0 -0.10317404352E+03 -0.63333949424E+01 -0.19094059374E+03  0.21717595513E+03  0.47000000000E+01 0. -1.
        -11    1    4    4    0    0 -0.28184389267E+02 -0.25747689217E+01 -0.19010954662E+03  0.19220465382E+03  0.00000000000E+00 0.  1.
         12    1    4    4    0    0  0.17133248659E+02 -0.68944944108E+02 -0.17806245324E+03  0.19171121715E+03  0.00000000000E+00 0. -1.
         -5    1    5    5    0  502  0.70474580463E+02 -0.26067390751E+02 -0.13152163143E+02  0.76428036396E+02  0.47000000000E+01 0.  1.
         11    1    6    6    0    0  0.47442907787E+02  0.77470389478E+02 -0.63580049454E+01  0.91065443347E+02  0.00000000000E+00 0. -1.
        -12    1    6    6    0    0 -0.36923041212E+01  0.26450109245E+02 -0.53968218030E+02  0.60214698755E+02  0.00000000000E+00 0.  1.
</event>
<event>
12    1  0.8747122E-002  0.1844258E+03  0.7818608E-02  0.1163671E+00
         21   -1    0    0  501  502  0.00000000000E+00  0.00000000000E+00  0.99820382678E+02  0.99820382678E+02  0.00000000000E+00 0.  1.
         21   -1    0    0  502  503 -0.00000000000E+00 -0.00000000000E+00 -0.34995528360E+03  0.34995528360E+03  0.00000000000E+00 0. -1.
         -6    2    1    2    0  503 -0.69395770503E+02 -0.69265813268E+01 -0.87176426119E+02  0.20366929352E+03  0.17034582872E+03 0.  0.
        -24    2    3    3    0    0 -0.97885838723E+02 -0.27354466126E+01 -0.16824932605E+02  0.12750714914E+03  0.79911667699E+02 0.  0.
          6    2    1    2  501    0  0.69395770503E+02  0.69265813268E+01 -0.16295847480E+03  0.24610637275E+03  0.17073116794E+03 0.  0.
         24    2    5    5    0    0  0.10334548923E+03 -0.24180121782E+02 -0.95040930000E+02  0.16391699831E+03  0.81061924016E+02 0.  0.
          5    1    5    5  501    0 -0.33949718726E+02  0.31106703109E+02 -0.67917544804E+02  0.82189374448E+02  0.47000000000E+01 0. -1.
        -13    1    6    6    0    0  0.55759454553E+02 -0.46761207410E+02 -0.82039638030E+02  0.10966416689E+03  0.00000000000E+00 0.  1.
         14    1    6    6    0    0  0.47586034676E+02  0.22581085628E+02 -0.13001291970E+02  0.54252831421E+02  0.00000000000E+00 0. -1.
         -5    1    3    3    0  503  0.28490068220E+02 -0.41911347142E+01 -0.70351493514E+02  0.76162144383E+02  0.47000000000E+01 0.  1.
         11    1    4    4    0    0 -0.64581551420E+02 -0.40058369714E+02 -0.53393407468E+01  0.76183714320E+02  0.00000000000E+00 0. -1.
        -12    1    4    4    0    0 -0.33304287303E+02  0.37322923102E+02 -0.11485591859E+02  0.51323434822E+02  0.00000000000E+00 0.  1.
</event>
<event>
12    1  0.8747122E-002  0.3004320E+03  0.7818608E-02  0.1085116E+00
         21   -1    0    0  503  502  0.00000000000E+00  0.00000000000E+00  0.18538488447E+03  0.18538488447E+03  0.00000000000E+00 0.  1.
         21   -1    0    0  501  503 -0.00000000000E+00 -0.00000000000E+00 -0.49310830055E+03  0.49310830055E+03  0.00000000000E+00 0. -1.
          6    2    1    2  501    0  0.13811764742E+03 -0.20339901504E+03 -0.11245129318E+03  0.32078759597E+03  0.17266077882E+03 0.  0.
         24    2    3    3    0    0  0.68690840532E+02 -0.19152163772E+03 -0.47384168629E+02  0.22478252160E+03  0.82963566063E+02 0.  0.
         -6    2    1    2    0  502 -0.13811764742E+03  0.20339901504E+03 -0.19527212289E+03  0.35770558904E+03  0.17138973892E+03 0.  0.
        -24    2    5    5    0    0 -0.12451514403E+03  0.20544284202E+03 -0.21569140574E+03  0.33264082415E+03  0.80102140743E+02 0.  0.
          5    1    3    3  501    0  0.69426806884E+02 -0.11877377321E+02 -0.65067124555E+02  0.96005074366E+02  0.47000000000E+01 0. -1.
        -13    1    4    4    0    0  0.76162757894E+02 -0.16191145095E+03 -0.13908514774E+02  0.17947013797E+03  0.00000000000E+00 0.  1.
         14    1    4    4    0    0 -0.74719173627E+01 -0.29610186764E+02 -0.33475653856E+02  0.45312383631E+02  0.00000000000E+00 0. -1.
         -5    1    5    5    0  502 -0.13602503389E+02 -0.20438269765E+01  0.20419282849E+02  0.25064764895E+02  0.47000000000E+01 0.  1.
         13    1    6    6    0    0 -0.90360180142E+02  0.10898727406E+03 -0.79742975036E+02  0.16248732298E+03  0.00000000000E+00 0. -1.
        -14    1    6    6    0    0 -0.34154963885E+02  0.96455567957E+02 -0.13594843071E+03  0.17015350117E+03  0.00000000000E+00 0.  1.
</event>
<event>
12    1  0.8747122E-002  0.1895469E+03  0.7818608E-02  0.1160145E+00
         21   -1    0    0  503  502  0.00000000000E+00  0.00000000000E+00  0.27604871093E+03  0.27604871093E+03  0.00000000000E+00 0. -1.
         21   -1    0    0  501  503 -0.00000000000E+00 -0.00000000000E+00 -0.33441128705E+03  0.33441128705E+03  0.00000000000E+00 0. -1.
          6    2    1    2  501    0  0.52745506899E+02 -0.36979486737E+02 -0.27008101641E+03  0.32995722147E+03  0.17826508811E+03 0.  0.
         24    2    3    3    0    0  0.76902860084E+02  0.19845485652E+02 -0.10468204868E+03  0.15334588626E+03  0.79048948926E+02 0.  0.
         -6    2    1    2    0  502 -0.52745506899E+02  0.36979486737E+02  0.21171844029E+03  0.28050277650E+03  0.17235875008E+03 0.  0.
        -24    2    5    5    0    0  0.17978284261E+02 -0.29759271448E+02  0.95201905450E+02  0.12866697911E+03  0.79265098050E+02 0.  0.
          5    1    3    3  501    0 -0.24157353185E+02 -0.56824972388E+02 -0.16539896773E+03  0.17661133522E+03  0.47000000000E+01 0. -1.
        -11    1    4    4    0    0  0.54742104924E+02  0.47897226279E+02 -0.87189017479E+02  0.11354632141E+03  0.00000000000E+00 0.  1.
         12    1    4    4    0    0  0.22160755160E+02 -0.28051740627E+02 -0.17493031202E+02  0.39799564848E+02  0.00000000000E+00 0. -1.
         -5    1    5    5    0  502 -0.70723791160E+02  0.66738758185E+02  0.11651653484E+03  0.15183579740E+03  0.47000000000E+01 0.  1.
         13    1    6    6    0    0  0.23047164966E+02 -0.29330896300E+02  0.10833812457E+03  0.11458020128E+03  0.00000000000E+00 0. -1.
        -14    1    6    6    0    0 -0.50688807050E+01 -0.42837514856E+00 -0.13136219116E+02  0.14086777827E+02  0.00000000000E+00 0.  1.
</event>
<event>
12    1  0.8747122E-002  0.1816230E+03  0.7818608E-02  0.1167539E+00
         21   -1    0    0  501  502  0.00000000000E+00  0.00000000000E+00  0.12077696088E+03  0.12077696088E+03  0.00000000000E+00 0.  1.
         21   -1    0    0  502  503 -0.00000000000E+00 -0.00000000000E+00 -0.29052584013E+03  0.29052584013E+03  0.00000000000E+00 0.  1.
         -6    2    1    2    0  503 -0.17063960872E+02  0.35406821722E+02 -0.14449143625E+03  0.22793200163E+03  0.17184411667E+03 0.  0.
        -24    2    3    3    0    0  0.14462287791E+02 -0.21347944980E+02 -0.13971428223E+03  0.16266394591E+03  0.79212285122E+02 0.  0.
          6    2    1    2  501    0  0.17063960872E+02 -0.35406821722E+02 -0.25257442995E+02  0.18337079938E+03  0.17731917509E+03 0.  0.
         24    2    5    5    0    0 -0.42924669509E+02 -0.24641570497E+02  0.34433941386E+02  0.97932647610E+02  0.77171062579E+02 0.  0.
          5    1    5    5  501    0  0.59988630381E+02 -0.10765251225E+02 -0.59691384382E+02  0.85438151773E+02  0.47000000000E+01 0. -1.
        -11    1    6    6    0    0 -0.47872560501E+02 -0.37038160853E+02 -0.50617378447E+00  0.60529857262E+02  0.00000000000E+00 0.  1.
         12    1    6    6    0    0  0.49478909919E+01  0.12396590355E+02  0.34940115171E+02  0.37402790349E+02  0.00000000000E+00 0. -1.
         -5    1    3    3    0  503 -0.31526248663E+02  0.56754766702E+02 -0.47771540198E+01  0.65268055730E+02  0.47000000000E+01 0.  1.
         13    1    4    4    0    0 -0.95303571063E-01 -0.34782501943E+02 -0.17653409511E+02  0.39006081469E+02  0.00000000000E+00 0. -1.
        -14    1    4    4    0    0  0.14557591362E+02  0.13434556963E+02 -0.12206087272E+03  0.12365786444E+03  0.00000000000E+00 0.  1.
</event>
<event>
12    1  0.8747122E-002  0.1978533E+03  0.7818608E-02  0.1151884E+00
         21   -1    0    0  503  502  0.00000000000E+00  0.00000000000E+00  0.87167587718E+02  0.87167587718E+02  0.00000000000E+00 0.  1.
         21   -1    0    0  501  503 -0.00000000000E+00 -0.00000000000E+00 -0.45464359072E+03  0.45464359072E+03  0.00000000000E+00 0.  1.
          6    2    1    2  501    0 -0.36209860387E+02  0.90232392283E+02 -0.22105584476E+03  0.29567136245E+03  0.17059551420E+03 0.  0.
         24    2    3    3    0    0 -0.69406407906E+02  0.49797259066E+02 -0.21256900739E+03  0.24246302500E+03  0.79408558244E+02 0.  0.
         -6    2    1    2    0  502  0.36209860387E+02 -0.90232392283E+02 -0.14642015824E+03  0.24613981599E+03  0.17231630122E+03 0.  0.
        -24    2    5    5    0    0 -0.31137704810E+02 -0.97702856069E+02 -0.87250070620E+02  0.15605823276E+03  0.78906225636E+02 0.  0.
          5    1    3    3  501    0  0.33196547519E+02  0.40435133216E+02 -0.84868373691E+01  0.53208337448E+02  0.47000000000E+01 0. -1.
        -11    1    4    4    0    0 -0.49716506252E+02  0.53074801407E+02 -0.78864031668E+02  0.10727628363E+03  0.00000000000E+00 0.  1.
         12    1    4    4    0    0 -0.19689901654E+02 -0.32775423404E+01 -0.13370497572E+03  0.13518674137E+03  0.00000000000E+00 0. -1.
         -5    1    5    5    0  502  0.67347565198E+02  0.74704637867E+01 -0.59170087624E+02  0.90081583227E+02  0.47000000000E+01 0.  1.
         11    1    6    6    0    0 -0.28292871520E+02 -0.80464244192E+02 -0.10216300369E+03  0.13308741674E+03  0.00000000000E+00 0. -1.
        -12    1    6    6    0    0 -0.28448332899E+01 -0.17238611878E+02  0.14912933068E+02  0.22970816020E+02  0.00000000000E+00 0.  1.
</event>
<event>
12    1  0.8747122E-002  0.2786067E+03  0.7818608E-02  0.1096697E+00
         21   -1    0    0  501  502  0.00000000000E+00  0.00000000000E+00  0.15763147678E+04  0.15763147678E+04  0.00000000000E+00 0.  1.
         21   -1    0    0  502  503 -0.00000000000E+00 -0.00000000000E+00 -0.50945868113E+02  0.50945868113E+02  0.00000000000E+00 0.  1.
         -6    2    1    2    0  503  0.45852147995E+02  0.21441419436E+03  0.60317691134E+03  0.66441258349E+03  0.17188900055E+03 0.  0.
        -24    2    3    3    0    0  0.28748713891E+02  0.23407590383E+03  0.57117941210E+03  0.62287897981E+03  0.78193896013E+02 0.  0.
          6    2    1    2  501    0 -0.45852147995E+02 -0.21441419436E+03  0.92219198834E+03  0.96284805241E+03  0.16900426757E+03 0.  0.
         24    2    5    5    0    0 -0.87764989498E+02 -0.11082344142E+03  0.61659649886E+03  0.63742767265E+03  0.78347092467E+02 0.  0.
          5    1    5    5  501    0  0.41912841503E+02 -0.10359075294E+03  0.30559548948E+03  0.32542037977E+03  0.47000000000E+01 0. -1.
        -13    1    6    6    0    0 -0.54106437892E+00 -0.60301213515E+02  0.25609262461E+03  0.26309686710E+03  0.00000000000E+00 0.  1.
         14    1    6    6    0    0 -0.87223925119E+02 -0.50522227907E+02  0.36050387425E+03  0.37433080554E+03  0.00000000000E+00 0. -1.
         -5    1    3    3    0  503  0.17103434104E+02 -0.19661709471E+02  0.31997499241E+02  0.41533603686E+02  0.47000000000E+01 0.  1.
         11    1    4    4    0    0 -0.45285796850E+01 -0.29886439669E+01  0.38499332523E+02  0.38879797215E+02  0.00000000000E+00 0. -1.
        -12    1    4    4    0    0  0.33277293576E+02  0.23706454780E+03  0.53268007958E+03  0.58399918259E+03  0.00000000000E+00 0.  1.
</event>
<event>
12    1  0.8747122E-002  0.2100772E+03  0.7818608E-02  0.1141547E+00
         21   -1    0    0  501  502  0.00000000000E+00  0.00000000000E+00  0.36826086359E+02  0.36826086359E+02  0.00000000000E+00 0.  1.
         21   -1    0    0  502  503 -0.00000000000E+00 -0.00000000000E+00 -0.14697085490E+04  0.14697085490E+04  0.00000000000E+00 0. -1.
         -6    2    1    2    0  503  0.10742932987E+02 -0.11984449620E+03 -0.39237414754E+03  0.44507292014E+03  0.17220429353E+03 0.  0.
        -24    2    3    3    0    0  0.34317702213E+02 -0.63420998254E+02 -0.36099941132E+03  0.37618282697E+03  0.77414576344E+02 0.  0.
          6    2    1    2  501    0 -0.10742932987E+02  0.11984449620E+03 -0.10405083151E+04  0.10614617152E+04  0.17194564606E+03 0.  0.
         24    2    5    5    0    0 -0.47516977420E+01  0.82931325429E+02 -0.32764366368E+03  0.34760137991E+03  0.81093560769E+02 0.  0.
          5    1    5    5  501    0 -0.59912352449E+01  0.36913170767E+02 -0.71286465144E+03  0.71386033532E+03  0.47000000000E+01 0. -1.
        -13    1    6    6    0    0 -0.42934159761E+02  0.45781715400E+02 -0.18234110521E+03  0.19284083123E+03  0.00000000000E+00 0.  1.
         14    1    6    6    0    0  0.38182462019E+02  0.37149610029E+02 -0.14530255847E+03  0.15476054868E+03  0.00000000000E+00 0. -1.
         -5    1    3    3    0  503 -0.23574769227E+02 -0.56423497942E+02 -0.31374736219E+02  0.68890093170E+02  0.47000000000E+01 0.  1.
         13    1    4    4    0    0  0.69037124975E+01  0.15276382120E+02 -0.12036367613E+03  0.12152548551E+03  0.00000000000E+00 0. -1.
        -14    1    4    4    0    0  0.27413989716E+02 -0.78697380374E+02 -0.24063573518E+03  0.25465734145E+03  0.00000000000E+00 0.  1.
</event>
<event>
12    1  0.8747122E-002  0.2311547E+03  0.7818608E-02  0.1126109E+00
         21   -1    0    0  503  502  0.00000000000E+00  0.00000000000E+00  0.23678546370E+03  0.23678546370E+03  0.00000000000E+00 0.  1.
         21   -1    0    0  501  503 -0.00000000000E+00 -0.00000000000E+00 -0.35742726707E+03  0.35742726707E+03  0.00000000000E+00 0. -1.
          6    2    1    2  501    0  0.71822131325E+02 -0.13364888895E+03 -0.24190301575E+03  0.33458861696E+03  0.17439045130E+03 0.  0.
         24    2    3    3    0    0 -0.13586096843E+02 -0.11766430143E+03 -0.13198735845E+03  0.19439726845E+03  0.79625155144E+02 0.  0.
         -6    2    1    2    0  502 -0.71822131325E+02  0.13364888895E+03  0.12126121238E+03  0.25962411381E+03  0.17227871249E+03 0.  0.
        -24    2    5    5    0    0  0.21845507700E+02  0.78688219735E+02  0.35112185586E+02  0.12092282838E+03  0.81978062404E+02 0.  0.
          5    1    3    3  501    0  0.85408228168E+02 -0.15984587517E+02 -0.10991565730E+03  0.14019134851E+03  0.47000000000E+01 0. -1.
        -11    1    4    4    0    0 -0.17527715831E+01  0.35261837350E+01  0.79664539477E+01  0.88865386094E+01  0.00000000000E+00 0.  1.
         12    1    4    4    0    0 -0.11833325260E+02 -0.12119048517E+03 -0.13995381240E+03  0.18551072984E+03  0.00000000000E+00 0. -1.
         -5    1    5    5    0  502 -0.93667639025E+02  0.54960669213E+02  0.86149026798E+02  0.13870128543E+03  0.47000000000E+01 0.  1.
         11    1    6    6    0    0 -0.24156137660E+02  0.43421994098E+02  0.38501116606E+02  0.62859562025E+02  0.00000000000E+00 0. -1.
        -12    1    6    6    0    0  0.46001645361E+02  0.35266225638E+02 -0.33889310201E+01  0.58063266357E+02  0.00000000000E+00 0.  1.
</event>
<event>
12    1  0.8747122E-002  0.1717467E+03  0.7818608E-02  0.1176190E+00
         21   -1    0    0  501  502  0.00000000000E+00  0.00000000000E+00  0.17552750991E+03  0.17552750991E+03  0.00000000000E+00 0.  1.
         21   -1    0    0  502  503 -0.00000000000E+00 -0.00000000000E+00 -0.17104849717E+03  0.17104849717E+03  0.00000000000E+00 0.  1.
         -6    2    1    2    0  503  0.15356175928E+02 -0.20779826628E+02  0.27305430012E+02  0.17390377008E+03  0.16979199452E+03 0.  0.
        -24    2    3    3    0    0  0.25197466047E+02 -0.76030524418E+02  0.46160504949E+01  0.11318813337E+03  0.79841672551E+02 0.  0.
          6    2    1    2  501    0 -0.15356175928E+02  0.20779826628E+02 -0.22826417268E+02  0.17267223700E+03  0.16919527999E+03 0.  0.
         24    2    5    5    0    0 -0.67793516503E+02 -0.75089082962E+01  0.55263107725E+00  0.10849593988E+03  0.84372501360E+02 0.  0.
          5    1    5    5  501    0  0.52437340575E+02  0.28288734924E+02 -0.23379048346E+02  0.64176297118E+02  0.47000000000E+01 0. -1.
        -11    1    6    6    0    0 -0.26337337345E+02 -0.45074367236E+02 -0.40545117423E+01  0.52362133127E+02  0.00000000000E+00 0.  1.
         12    1    6    6    0    0 -0.41456179158E+02  0.37565458939E+02  0.46071428196E+01  0.56133806754E+02  0.00000000000E+00 0. -1.
         -5    1    3    3    0  503 -0.98412901196E+01  0.55250697790E+02  0.22689379517E+02  0.60715636704E+02  0.47000000000E+01 0.  1.
         13    1    4    4    0    0  0.33039103093E+02 -0.21303084819E+02 -0.28669269629E+02  0.48655223533E+02  0.00000000000E+00 0. -1.
        -14    1    4    4    0    0 -0.78416370456E+01 -0.54727439598E+02  0.33285320124E+02  0.64532909839E+02  0.00000000000E+00 0.  1.
</event>
<event>
12    1  0.8747122E-002  0.3093384E+03  0.7818608E-02  0.1080888E+00
         21   -1    0    0  503  502  0.00000000000E+00  0.00000000000E+00  0.58761653627E+02  0.58761653627E+02  0.00000000000E+00 0. -1.
         21   -1    0    0  501  503 -0.00000000000E+00 -0.00000000000E+00 -0.17121896654E+04  0.17121896654E+04  0.00000000000E+00 0.  1.
          6    2    1    2  501    0  0.18427331269E+03 -0.17641241147E+03 -0.61739957949E+03  0.68972739744E+03  0.17164978687E+03 0.  0.
         24    2    3    3    0    0  0.22431883436E+02 -0.63836608978E+02 -0.15491917105E+03  0.18695888438E+03  0.79845931958E+02 0.  0.
         -6    2    1    2    0  502 -0.18427331269E+03  0.17641241147E+03 -0.10360284323E+04  0.10812239216E+04  0.17496360600E+03 0.  0.
        -24    2    5    5    0    0 -0.20657690369E+03  0.18128581549E+03 -0.95922979627E+03  0.10009660825E+04  0.79200582508E+02 0.  0.
          5    1    3    3  501    0  0.16184142926E+03 -0.11257580249E+03 -0.46248040845E+03  0.50276851306E+03  0.47000000000E+01 0. -1.
        -11    1    4    4    0    0  0.21257803693E+02  0.13589542784E+02 -0.55300228480E+02  0.60783921895E+02  0.00000000000E+00 0.  1.
         12    1    4    4    0    0  0.11740797435E+01 -0.77426151762E+02 -0.99618942566E+02  0.12617496248E+03  0.00000000000E+00 0. -1.
         -5    1    5    5    0  502  0.22303590997E+02 -0.48734040238E+01 -0.76798635998E+02  0.80257839052E+02  0.47000000000E+01 0.  1.
         13    1    6    6    0    0 -0.18963367906E+02 -0.50019817829E+01 -0.41318460387E+02  0.45736684541E+02  0.00000000000E+00 0. -1.
        -14    1    6    6    0    0 -0.18761353579E+03  0.18628779727E+03 -0.91791133588E+03  0.95522939798E+03  0.00000000000E+00 0.  1.
</event>
<event>
12    1  0.8747122E-002  0.2230046E+03  0.7818608E-02  0.1131669E+00
         21   -1    0    0  501  502  0.00000000000E+00  0.00000000000E+00  0.12049327398E+03  0.12049327398E+03  0.00000000000E+00 0.  1.
         21   -1    0    0  502  503 -0.00000000000E+00 -0.00000000000E+00 -0.47522402430E+03  0.47522402430E+03  0.00000000000E+00 0.  1.
         -6    2    1    2    0  503 -0.13922412610E+03 -0.24957355192E+02 -0.69282444672E+02  0.23348563686E+03  0.17236373926E+03 0.  0.
        -24    2    3    3    0    0 -0.41336432343E+02  0.27030055765E+02  0.29575239963E+02  0.84893499452E+02  0.62393003429E+02 0.  0.
          6    2    1    2  501    0  0.13922412610E+03  0.24957355192E+02 -0.28544830565E+03  0.36223166142E+03  0.17240885845E+03 0.  0.
         24    2    5    5    0    0  0.45793123988E+02 -0.23474017482E+02 -0.21337096135E+03  0.23459082322E+03  0.82810914087E+02 0.  0.
          5    1    5    5  501    0  0.93431002114E+02  0.48431372674E+02 -0.72077344303E+02  0.12764083820E+03  0.47000000000E+01 0. -1.
        -13    1    6    6    0    0  0.45602018241E+02 -0.52652464926E+01 -0.41888727111E+02  0.62144447437E+02  0.00000000000E+00 0.  1.
         14    1    6    6    0    0  0.19110574672E+00 -0.18208770990E+02 -0.17148223423E+03  0.17244637578E+03  0.00000000000E+00 0. -1.
         -5    1    3    3    0  503 -0.97887693759E+02 -0.51987410957E+02 -0.98857684635E+02  0.14859213741E+03  0.47000000000E+01 0.  1.
         13    1    4    4    0    0  0.13781252001E+02  0.66831450900E+01  0.20273013376E+02  0.25408313725E+02  0.00000000000E+00 0. -1.
        -14    1    4    4    0    0 -0.55117684344E+02  0.20346910675E+02  0.93022265863E+01  0.59485185726E+02  0.00000000000E+00 0.  1.
</event>
<event>
12    1  0.8747122E-002  0.2276627E+03  0.7818608E-02  0.1128606E+00
         21   -1    0    0  503  502  0.00000000000E+00  0.00000000000E+00  0.32937887717E+03  0.32937887717E+03  0.00000000000E+00 0. -1.
         21   -1    0    0  501  503 -0.00000000000E+00 -0.00000000000E+00 -0.16208540057E+03  0.16208540057E+03  0.00000000000E+00 0.  1.
          6    2    1    2  501    0 -0.14241112811E+03  0.34284863489E+02  0.36357807777E+02  0.22883440656E+03  0.17200847120E+03 0.  0.
         24    2    3    3    0    0 -0.14102926388E+03  0.75826294052E+02  0.84699100623E+01  0.17856090617E+03  0.78570845082E+02 0.  0.
         -6    2    1    2    0  502  0.14241112811E+03 -0.34284863489E+02  0.13093566883E+03  0.26262987118E+03  0.17428114812E+03 0.  0.
        -24    2    5    5    0    0  0.11478694472E+03 -0.51274321495E+02  0.16023999093E+03  0.21866886022E+03  0.79587166143E+02 0.  0.
          5    1    3    3  501    0 -0.13818642333E+01 -0.41541430563E+02  0.27887897715E+02  0.50273500385E+02  0.47000000000E+01 0. -1.
        -11    1    4    4    0    0 -0.37494068342E+02 -0.11259065766E+02  0.17685148628E+02  0.42957376605E+02  0.00000000000E+00 0.  1.
         12    1    4    4    0    0 -0.10353519553E+03  0.87085359818E+02 -0.92152385659E+01  0.13560352957E+03  0.00000000000E+00 0. -1.
         -5    1    5    5    0  502  0.27624183385E+02  0.16989458006E+02 -0.29304322097E+02  0.43961010960E+02  0.47000000000E+01 0.  1.
         11    1    6    6    0    0  0.79107180029E+02 -0.64800739814E+02  0.80058492827E+02  0.12987087467E+03  0.00000000000E+00 0. -1.
        -12    1    6    6    0    0  0.35679764696E+02  0.13526418320E+02  0.80181498102E+02  0.88797985558E+02  0.00000000000E+00 0.  1.
</event>
<event>
12    1  0.8747122E-002  0.1923331E+03  0.7818608E-02  0.1156696E+00
         21   -1    0    0  503  502  0.00000000000E+00  0.00000000000E+00  0.14060181940E+03  0.14060181940E+03  0.00000000000E+00 0. -1.
         21   -1    0    0  501  503 -0.00000000000E+00 -0.00000000000E+00 -0.65751225355E+03  0.65751225355E+03  0.00000000000E+00 0. -1.
          6    2    1    2  501    0 -0.86065852026E+02 -0.24277304859E+02 -0.56868637130E+03  0.60033009339E+03  0.17028010368E+03 0.  0.
         24    2    3    3    0    0 -0.11372859759E+02 -0.57477006632E+02 -0.21178410128E+03  0.23415720575E+03  0.80895878895E+02 0.  0.
         -6    2    1    2    0  502  0.86065852026E+02  0.24277304859E+02  0.51775937151E+02  0.19778397956E+03  0.16864470489E+03 0.  0.
        -24    2    5    5    0    0  0.81511563607E+02 -0.99479176070E+01  0.89887204558E+02  0.14614420710E+03  0.80841348705E+02 0.  0.
          5    1    3    3  501    0 -0.74692992268E+02  0.33199701773E+02 -0.35690227002E+03  0.36617288763E+03  0.47000000000E+01 0. -1.
        -11    1    4    4    0    0 -0.23989772349E+02 -0.37565191540E+02 -0.37391989024E+02  0.58179151214E+02  0.00000000000E+00 0.  1.
         12    1    4    4    0    0  0.12616912590E+02 -0.19911815092E+02 -0.17439211225E+03  0.17597805454E+03  0.00000000000E+00 0. -1.
         -5    1    5    5    0  502  0.45542884193E+01  0.34225222466E+02 -0.38111267407E+02  0.51639772456E+02  0.47000000000E+01 0.  1.
         13    1    6    6    0    0  0.66183400393E+02  0.18079283229E+02  0.23587385333E+02  0.72549760279E+02  0.00000000000E+00 0. -1.
        -14    1    6    6    0    0  0.15328163214E+02 -0.28027200836E+02  0.66299819226E+02  0.73594446826E+02  0.00000000000E+00 0.  1.
</event>
<event>
12    1  0.8747122E-002  0.2367071E+03  0.7818608E-02  0.1122250E+00
         21   -1    0    0  503  502  0.00000000000E+00  0.00000000000E+00  0.71130162705E+02  0.71130162705E+02  0.00000000000E+00 0. -1.
         21   -1    0    0  501  503 -0.00000000000E+00 -0.00000000000E+00 -0.78977575111E+03  0.78977575111E+03  0.00000000000E+00 0. -1.
          6    2    1    2  501    0 -0.10463578806E+03 -0.12045903698E+03 -0.31822487618E+03  0.39575323498E+03  0.17290032806E+03 0.  0.
         24    2    3    3    0    0 -0.11909983143E+03 -0.52575058573E+02 -0.14972335955E+03  0.21345596626E+03  0.78723938594E+02 0.  0.
         -6    2    1    2    0  502  0.10463578806E+03  0.12045903698E+03 -0.40042071223E+03  0.46515267884E+03  0.17484633287E+03 0.  0.
        -24    2    5    5    0    0  0.65025088279E+02  0.15186459178E+03 -0.34499799687E+03  0.38999229175E+03  0.76021401185E+02 0.  0.
          5    1    3    3  501    0  0.14464043368E+02 -0.67883978408E+02 -0.16850151663E+03  0.18229726871E+03  0.47000000000E+01 0. -1.
        -13    1    4    4    0    0  0.11223550277E+02 -0.96221018738E+01 -0.11987401773E+02  0.19032885397E+02  0.00000000000E+00 0.  1.
         14    1    4    4    0    0 -0.13032338170E+03 -0.42952956699E+02 -0.13773595778E+03  0.19442308087E+03  0.00000000000E+00 0. -1.
         -5    1    5    5    0  502  0.39610699780E+02 -0.31405554802E+02 -0.55422715363E+02  0.75160387092E+02  0.47000000000E+01 0.  1.
         11    1    6    6    0    0  0.42373455819E+02  0.17965105423E+02 -0.84475527840E+02  0.96199633964E+02  0.00000000000E+00 0. -1.
        -12    1    6    6    0    0  0.22651632460E+02  0.13389948636E+03 -0.26052246903E+03  0.29379265778E+03  0.00000000000E+00 0.  1.
</event>
<event>
12    1  0.8747122E-002  0.1770779E+03  0.7818608E-02  0.1170735E+00
         21   -1    0    0  501  502  0.00000000000E+00  0.00000000000E+00  0.23225035822E+03  0.23225035822E+03  0.00000000000E+00 0.  1.
         21   -1    0    0  502  503 -0.00000000000E+00 -0.00000000000E+00 -0.16635212289E+03  0.16635212289E+03  0.00000000000E+00 0.  1.
         -6    2    1    2    0  503 -0.23661826808E+02  0.32865555871E+02 -0.53890812560E+02  0.18481285926E+03  0.17208005829E+03 0.  0.
        -24    2    3    3    0    0 -0.35894071960E+02  0.61599781843E+02  0.15893413227E+02  0.10821513258E+03  0.79843577142E+02 0.  0.
          6    2    1    2  501    0  0.23661826808E+02 -0.32865555871E+02  0.11978904789E+03  0.21378962185E+03  0.17238491699E+03 0.  0.
         24    2    5    5    0    0 -0.23055531656E+02 -0.34411562434E-01  0.13100828578E+03  0.15540848691E+03  0.80355884266E+02 0.  0.
          5    1    5    5  501    0  0.46717358463E+02 -0.32831144308E+02 -0.11219237889E+02  0.58381134942E+02  0.47000000000E+01 0. -1.
        -13    1    6    6    0    0 -0.47375573912E+01  0.37659648494E+02  0.39612302189E+02  0.54861899889E+02  0.00000000000E+00 0.  1.
         14    1    6    6    0    0 -0.18317974264E+02 -0.37694060057E+02  0.91395983592E+02  0.10054658702E+03  0.00000000000E+00 0. -1.
         -5    1    3    3    0  503  0.12232245152E+02 -0.28734225972E+02 -0.69784225787E+02  0.76597726679E+02  0.47000000000E+01 0.  1.
         13    1    4    4    0    0 -0.49463542702E+02  0.46166539280E+02 -0.16693272419E+02  0.69689717677E+02  0.00000000000E+00 0. -1.
        -14    1    4    4    0    0  0.13569470743E+02  0.15433242563E+02  0.32586685646E+02  0.38525414906E+02  0.00000000000E+00 0.  1.
</event>
<event>
12    1  0.8747122E-002  0.1726748E+03  0.7818608E-02  0.1175096E+00
         21   -1    0    0  503  502  0.00000000000E+00  0.00000000000E+00  0.13236191667E+03  0.13236191667E+03  0.00000000000E+00 0. -1.
         21   -1    0    0  501  503 -0.00000000000E+00 -0.00000000000E+00 -0.26757733927E+03  0.26757733927E+03  0.00000000000E+00 0. -1.
          6    2    1    2  501    0  0.63437447821E+01 -0.49368648994E+01 -0.14716595436E+03  0.22685141317E+03  0.17245036910E+03 0.  0.
         24    2    3    3    0    0  0.31899432759E+02 -0.58900013140E+02 -0.12424735810E+03  0.16272289681E+03  0.80960174121E+02 0.  0.
         -6    2    1    2    0  502 -0.63437447821E+01  0.49368648994E+01  0.11950531759E+02  0.17308784277E+03  0.17248759484E+03 0.  0.
        -24    2    5    5    0    0 -0.17172655793E+02 -0.40263361030E+02  0.57822199431E+02  0.10761551554E+03  0.79508830264E+02 0.  0.
          5    1    3    3  501    0 -0.25555687977E+02  0.53963148241E+02 -0.22918596266E+02  0.64128516362E+02  0.47000000000E+01 0. -1.
        -11    1    4    4    0    0  0.19505267975E+02 -0.34875224768E+02 -0.47904502601E+01  0.40245312709E+02  0.00000000000E+00 0.  1.
         12    1    4    4    0    0  0.12394164784E+02 -0.24024788372E+02 -0.11945690784E+03  0.12247758410E+03  0.00000000000E+00 0. -1.
         -5    1    5    5    0  502  0.10828911011E+02  0.45200225929E+02 -0.45871667672E+02  0.65472327229E+02  0.47000000000E+01 0.  1.
         13    1    6    6    0    0 -0.32902881763E+02  0.53764446057E+01  0.47854114338E+02  0.58322568908E+02  0.00000000000E+00 0. -1.
        -14    1    6    6    0    0  0.15730225970E+02 -0.45639805635E+02  0.99680850934E+01  0.49292946635E+02  0.00000000000E+00 0.  1.
</event>
<event>
12    1  0.8747122E-002  0.2090324E+03  0.7818608E-02  0.1142643E+00
         21   -1    0    0  503  502  0.00000000000E+00  0.00000000000E+00  0.17832132178E+03  0.17832132178E+03  0.00000000000E+00 0. -1.
         21   -1    0    0  501  503 -0.00000000000E+00 -0.00000000000E+00 -0.55850672981E+03  0.55850672981E+03  0.00000000000E+00 0.  1.
          6    2    1    2  501    0 -0.55435264392E+02 -0.10420230945E+03 -0.46719984288E+03  0.51183029814E+03  0.17252063954E+03 0.  0.
         24    2    3    3    0    0 -0.22714998531E+01 -0.12963977902E+03 -0.35229777169E+03  0.38260945352E+03  0.73923216735E+02 0.  0.
         -6    2    1    2    0  502  0.55435264392E+02  0.10420230945E+03  0.87014434856E+02  0.22499775345E+03  0.17064960402E+03 0.  0.
        -24    2    5    5    0    0 -0.30033426544E+02  0.12811648085E+02  0.40139257348E+02  0.91294640620E+02  0.75215732323E+02 0.  0.
          5    1    3    3  501    0 -0.53163764539E+02  0.25437469567E+02 -0.11490207119E+03  0.12922084461E+03  0.47000000000E+01 0. -1.
        -13    1    4    4    0    0 -0.17240426129E+02 -0.62090548315E+02 -0.25630288021E+03  0.26427946361E+03  0.00000000000E+00 0.  1.
         14    1    4    4    0    0  0.14968926276E+02 -0.67549230700E+02 -0.95994891482E+02  0.11832998991E+03  0.00000000000E+00 0. -1.
         -5    1    5    5    0  502  0.85468690937E+02  0.91390661364E+02  0.46875177508E+02  0.13370311283E+03  0.47000000000E+01 0.  1.
         13    1    6    6    0    0 -0.47044461186E+01 -0.23315156652E+02  0.40733319296E+02  0.47169181081E+02  0.00000000000E+00 0. -1.
        -14    1    6    6    0    0 -0.25328980426E+02  0.36126804737E+02 -0.59406194825E+00  0.44125459539E+02  0.00000000000E+00 0.  1.
</event>
<event>
12    1  0.8747122E-002  0.1779973E+03  0.7818608E-02  0.1171177E+00
         21   -1    0    0  503  502  0.00000000000E+00  0.00000000000E+00  0.64117872813E+03  0.64117872813E+03  0.00000000000E+00 0.  1.
         21   -1    0    0  501  503 -0.00000000000E+00 -0.00000000000E+00 -0.19784766494E+03  0.19784766494E+03  0.00000000000E+00 0.  1.
          6    2    1    2  501    0 -0.19334880241E+01 -0.44585835345E+02 -0.14273303583E+03  0.22815734414E+03  0.17231198181E+03 0.  0.
         24    2    3    3    0    0 -0.66502608336E+02 -0.17456844436E+02 -0.64721182096E+02  0.12321406055E+03  0.79155132322E+02 0.  0.
         -6    2    1    2    0  502  0.19334880241E+01  0.44585835345E+02  0.58606409902E+03  0.61086904893E+03  0.16642785732E+03 0.  0.
        -24    2    5    5    0    0  0.54577248798E+02  0.44209768365E+02  0.48792972592E+03  0.49940626519E+03  0.79987627632E+02 0.  0.
          5    1    3    3  501    0  0.64569120312E+02 -0.27128990910E+02 -0.78011853738E+02  0.10494328358E+03  0.47000000000E+01 0. -1.
        -13    1    4    4    0    0  0.12761774449E+02 -0.43133422720E+01  0.72922748554E+01  0.15318129168E+02  0.00000000000E+00 0.  1.
         14    1    4    4    0    0 -0.79264382785E+02 -0.13143502164E+02 -0.72013456952E+02  0.10789593139E+03  0.00000000000E+00 0. -1.
         -5    1    5    5    0  502 -0.52643760774E+02  0.37606698059E+00  0.98134373103E+02  0.11146278374E+03  0.47000000000E+01 0.  1.
         13    1    6    6    0    0  0.32102359606E+02  0.64999742992E+02  0.27990690769E+03  0.28914253415E+03  0.00000000000E+00 0. -1.
        -14    1    6    6    0    0  0.22474889192E+02 -0.20789974627E+02  0.20802281822E+03  0.21026373104E+03  0.00000000000E+00 0.  1.
</event>
<event>
12    1  0.8747122E-002  0.2207340E+03  0.7818608E-02  0.1133751E+00
         21   -1    0    0  503  502  0.00000000000E+00  0.00000000000E+00  0.40681200250E+03  0.40681200250E+03  0.00000000000E+00 0. -1.
         21   -1    0    0  501  503 -0.00000000000E+00 -0.00000000000E+00 -0.12906413849E+03  0.12906413849E+03  0.00000000000E+00 0. -1.
          6    2    1    2  501    0 -0.75055649934E+01  0.13687993484E+03  0.61818147406E+02  0.22708955954E+03  0.17016384644E+03 0.  0.
         24    2    3    3    0    0 -0.38406646515E+02  0.38409717898E+02  0.75043528655E+02  0.12293457323E+03  0.80814609917E+02 0.  0.
         -6    2    1    2    0  502  0.75055649934E+01 -0.13687993484E+03  0.21592971660E+03  0.30878658146E+03  0.17300595455E+03 0.  0.
        -24    2    5    5    0    0  0.22582952209E+02 -0.45139132449E+01  0.57088100547E+02  0.10142014187E+03  0.80601667534E+02 0.  0.
          5    1    3    3  501    0  0.30901081521E+02  0.98470216943E+02 -0.13225381248E+02  0.10415498631E+03  0.47000000000E+01 0. -1.
        -13    1    4    4    0    0  0.11414360323E+02 -0.71414029240E+01 -0.81958597026E+01  0.15762594125E+02  0.00000000000E+00 0.  1.
         14    1    4    4    0    0 -0.49821006837E+02  0.45551120822E+02  0.83239388357E+02  0.10717197910E+03  0.00000000000E+00 0. -1.
         -5    1    5    5    0  502 -0.15077387215E+02 -0.13236602160E+03  0.15884161605E+03  0.20736643959E+03  0.47000000000E+01 0.  1.
         11    1    6    6    0    0 -0.74047020101E+01 -0.35319251438E+02  0.43095169543E+02  0.56209187611E+02  0.00000000000E+00 0. -1.
        -12    1    6    6    0    0  0.29987654219E+02  0.30805338193E+02  0.13992931004E+02  0.45210954257E+02  0.00000000000E+00 0.  1.
</event>
<event>
12    1  0.8747122E-002  0.2291256E+03  0.7818608E-02  0.1128001E+00
         21   -1    0    0  501  502  0.00000000000E+00  0.00000000000E+00  0.40550652101E+02  0.40550652101E+02  0.00000000000E+00 0.  1.
         21   -1    0    0  502  503 -0.00000000000E+00 -0.00000000000E+00 -0.12713077789E+04  0.12713077789E+04  0.00000000000E+00 0.  1.
         -6    2    1    2    0  503  0.58253500664E+02  0.13442048547E+03 -0.61538686654E+03  0.65665785662E+03  0.17617096212E+03 0.  0.
        -24    2    3    3    0    0 -0.32587432652E+02  0.57668688749E+02 -0.36348450888E+03  0.37805455215E+03  0.80103918615E+02 0.  0.
          6    2    1    2  501    0 -0.58253500664E+02 -0.13442048547E+03 -0.61537026026E+03  0.65520057439E+03  0.17071876934E+03 0.  0.
         24    2    5    5    0    0  0.73779518135E+01 -0.11602108779E+03 -0.29015805755E+03  0.32288883492E+03  0.80933147556E+02 0.  0.
          5    1    5    5  501    0 -0.65631452477E+02 -0.18399397680E+02 -0.32521220272E+03  0.33231173946E+03  0.47000000000E+01 0. -1.
        -13    1    6    6    0    0 -0.27167614650E+01 -0.11312744339E+03 -0.29112387539E+03  0.31234325679E+03  0.00000000000E+00 0.  1.
         14    1    6    6    0    0  0.10094713278E+02 -0.28936443995E+01  0.96581783977E+00  0.10545578134E+02  0.00000000000E+00 0. -1.
         -5    1    3    3    0  503  0.90840933315E+02  0.76751796724E+02 -0.25190235766E+03  0.27860330447E+03  0.47000000000E+01 0.  1.
         11    1    4    4    0    0  0.47112191204E+01  0.33182170272E+01  0.24272043752E+01  0.62527970477E+01  0.00000000000E+00 0. -1.
        -12    1    4    4    0    0 -0.37298651772E+02  0.54350471722E+02 -0.36591171326E+03  0.37180175511E+03  0.00000000000E+00 0.  1.
</event>
<event>
12    1  0.8747122E-002  0.1774863E+03  0.7818608E-02  0.1170539E+00
         21   -1    0    0  501  502  0.00000000000E+00  0.00000000000E+00  0.34942418500E+03  0.34942418500E+03  0.00000000000E+00 0.  1.
         21   -1    0    0  502  503 -0.00000000000E+00 -0.00000000000E+00 -0.16830020334E+03  0.16830020334E+03  0.00000000000E+00 0.  1.
         -6    2    1    2    0  503  0.40944484040E+02  0.32820980191E+01 -0.86326185832E+02  0.19736668391E+03  0.17266781582E+03 0.  0.
        -24    2    3    3    0    0  0.59298834243E+01 -0.54105957085E+02 -0.87123520347E+02  0.12997130672E+03  0.79620441241E+02 0.  0.
          6    2    1    2  501    0 -0.40944484040E+02 -0.32820980191E+01  0.26745016750E+03  0.32035770443E+03  0.17149998179E+03 0.  0.
         24    2    5    5    0    0 -0.93510337313E+02 -0.79035159835E+01  0.18647976576E+03  0.22359602610E+03  0.80086397746E+02 0.  0.
          5    1    5    5  501    0  0.52565853272E+02  0.46214179644E+01  0.80970401741E+02  0.96761678325E+02  0.47000000000E+01 0. -1.
        -11    1    6    6    0    0 -0.64624359966E+02 -0.40110830180E+02  0.89833541330E+02  0.11770833338E+03  0.00000000000E+00 0.  1.
         12    1    6    6    0    0 -0.28885977346E+02  0.32207314197E+02  0.96646224426E+02  0.10588769273E+03  0.00000000000E+00 0. -1.
         -5    1    3    3    0  503  0.35014600616E+02  0.57388055104E+02  0.79733451415E+00  0.67395377195E+02  0.47000000000E+01 0.  1.
         11    1    4    4    0    0  0.22248759722E+02 -0.46259036760E+02 -0.12025535208E+02  0.52721146499E+02  0.00000000000E+00 0. -1.
        -12    1    4    4    0    0 -0.16318876298E+02 -0.78469203250E+01 -0.75097985139E+02  0.77250160221E+02  0.00000000000E+00 0.  1.
</event>
<event>
12    1  0.8747122E-002  0.1668597E+03  0.7818608E-02  0.1182865E+00
         21   -1    0    0  503  502  0.00000000000E+00  0.00000000000E+00  0.24962563633E+04  0.24962563633E+04  0.00000000000E+00 0. -1.
         21   -1    0    0  501  503 -0.00000000000E+00 -0.00000000000E+00 -0.13399407555E+02  0.13399407555E+02  0.00000000000E+00 0. -1.
          6    2    1    2  501    0  0.26739131147E+02  0.51039921008E+01  0.66352467437E+03  0.68268775890E+03  0.15829261129E+03 0.  0.
         24    2    3    3    0    0  0.28690647106E+02  0.35033760544E+02  0.22559503829E+03  0.24370705817E+03  0.80308724901E+02 0.  0.
         -6    2    1    2    0  502 -0.26739131147E+02 -0.51039921008E+01  0.18193322813E+04  0.18269680119E+04  0.16462422290E+03 0.  0.
        -24    2    5    5    0    0  0.31118454989E+02 -0.44287483808E+02  0.10150479694E+04  0.10196402032E+04  0.80087604102E+02 0.  0.
          5    1    3    3  501    0 -0.19515159584E+01 -0.29929768443E+02  0.43792963608E+03  0.43898070073E+03  0.47000000000E+01 0. -1.
        -11    1    4    4    0    0 -0.15365245044E+02  0.19448961485E+02  0.16666001433E+03  0.16849306583E+03  0.00000000000E+00 0.  1.
         12    1    4    4    0    0  0.44055892150E+02  0.15584799059E+02  0.58935023958E+02  0.75213992341E+02  0.00000000000E+00 0. -1.
         -5    1    5    5    0  502 -0.57857586136E+02  0.39183491707E+02  0.80428431190E+03  0.80732780868E+03  0.47000000000E+01 0.  1.
         13    1    6    6    0    0  0.13548518395E+02 -0.26482936601E+02  0.10199046625E+03  0.10624012183E+03  0.00000000000E+00 0. -1.
        -14    1    6    6    0    0  0.17569936594E+02 -0.17804547207E+02  0.91305750319E+03  0.91340008141E+03  0.00000000000E+00 0.  1.
</event>
<event>
12    1  0.8747122E-002  0.2233280E+03  0.7818608E-02  0.1132773E+00
         21   -1    0    0  503  502  0.00000000000E+00  0.00000000000E+00  0.16712915032E+03  0.16712915032E+03  0.00000000000E+00 0.  1.
         21   -1    0    0  501  503 -0.00000000000E+00 -0.00000000000E+00 -0.29261729500E+03  0.29261729500E+03  0.00000000000E+00 0.  1.
          6    2    1    2  501    0 -0.12227355227E+03 -0.45718410180E+02 -0.37608851994E+02  0.22647253751E+03  0.18120262108E+03 0.  0.
         24    2    3    3    0    0 -0.40569198885E+01  0.22042239979E+02  0.11259512442E+02  0.81638546597E+02  0.77690132757E+02 0.  0.
         -6    2    1    2    0  502  0.12227355227E+03  0.45718410180E+02 -0.87879292694E+02  0.23327390781E+03  0.17220032336E+03 0.  0.
        -24    2    5    5    0    0  0.14330621551E+03  0.78056915391E+01 -0.42066024729E+02  0.17002287873E+03  0.80874153052E+02 0.  0.
          5    1    3    3  501    0 -0.11821663238E+03 -0.67760650159E+02 -0.48868364436E+02  0.14483399092E+03  0.47000000000E+01 0. -1.
        -11    1    4    4    0    0 -0.60514631913E+00  0.26813092779E+02 -0.29838753135E+02  0.40120560005E+02  0.00000000000E+00 0.  1.
         12    1    4    4    0    0 -0.34517735694E+01 -0.47708528007E+01  0.41098265577E+02  0.41517986592E+02  0.00000000000E+00 0. -1.
         -5    1    5    5    0  502 -0.21032663235E+02  0.37912718641E+02 -0.45813267965E+02  0.63251029076E+02  0.47000000000E+01 0.  1.
         13    1    6    6    0    0  0.34449744342E+01 -0.40603084474E+01 -0.28513483986E+02  0.29006425539E+02  0.00000000000E+00 0. -1.
        -14    1    6    6    0    0  0.13986124107E+03  0.11865999987E+02 -0.13552540744E+02  0.14101645319E+03  0.00000000000E+00 0.  1.
</event>
<event>
12    1  0.8747122E-002  0.1974291E+03  0.7818608E-02  0.1152030E+00
         21   -1    0    0  501  502  0.00000000000E+00  0.00000000000E+00  0.20342509704E+03  0.20342509704E+03  0.00000000000E+00 0.  1.
         21   -1    0    0  502  503 -0.00000000000E+00 -0.00000000000E+00 -0.19130144483E+03  0.19130144483E+03  0.00000000000E+00 0. -1.
         -6    2    1    2    0  503  0.84469431931E+02  0.47276195482E+02  0.39497897428E+00  0.19694940292E+03  0.17151905933E+03 0.  0.
        -24    2    3    3    0    0  0.84166744858E+02  0.63794889615E+02  0.53904350754E+02  0.14075063297E+03  0.75836882655E+02 0.  0.
          6    2    1    2  501    0 -0.84469431931E+02 -0.47276195482E+02  0.11728673240E+02  0.19777713896E+03  0.17207007679E+03 0.  0.
         24    2    5    5    0    0 -0.10086084749E+03  0.16716024077E+02 -0.30634968996E+01  0.12992007620E+03  0.80109332602E+02 0.  0.
          5    1    5    5  501    0  0.16391415558E+02 -0.63992219559E+02  0.14792170140E+02  0.67857062753E+02  0.47000000000E+01 0. -1.
        -13    1    6    6    0    0  0.11885103377E+02 -0.73017013598E+01  0.37468566230E+01  0.14443318857E+02  0.00000000000E+00 0.  1.
         14    1    6    6    0    0 -0.11274595087E+03  0.24017725437E+02 -0.68103535227E+01  0.11547675735E+03  0.00000000000E+00 0. -1.
         -5    1    3    3    0  503  0.30268707232E+00 -0.16518694133E+02 -0.53509371780E+02  0.56198769947E+02  0.47000000000E+01 0.  1.
         11    1    4    4    0    0  0.78376137860E+02  0.32202734584E+02  0.85344017232E+01  0.85162615702E+02  0.00000000000E+00 0. -1.
        -12    1    4    4    0    0  0.57906069986E+01  0.31592155030E+02  0.45369949031E+02  0.55588017269E+02  0.00000000000E+00 0.  1.
</event>
<event>
12    1  0.8747122E-002  0.2226950E+03  0.7818608E-02  0.1132215E+00
         21   -1    0    0  501  502  0.00000000000E+00  0.00000000000E+00  0.83215451833E+03  0.83215451833E+03  0.00000000000E+00 0.  1.
         21   -1    0    0  502  503 -0.00000000000E+00 -0.00000000000E+00 -0.81325955213E+02  0.81325955213E+02  0.00000000000E+00 0. -1.
         -6    2    1    2    0  503  0.49780132380E+02 -0.12990745598E+03  0.13568609254E+03  0.25926848680E+03  0.17162582510E+03 0.  0.
        -24    2    3    3    0    0  0.98810024230E+02 -0.83510956849E+02  0.79970643640E+02  0.17161652349E+03  0.79494820516E+02 0.  0.
          6    2    1    2  501    0 -0.49780132380E+02  0.12990745598E+03  0.61514247058E+03  0.65421198674E+03  0.17389380606E+03 0.  0.
         24    2    5    5    0    0 -0.39785133939E+02  0.15845549135E+03  0.57889071311E+03  0.60676548807E+03  0.79742712251E+02 0.  0.
          5    1    5    5  501    0 -0.99949984408E+01 -0.28548035367E+02  0.36251757463E+02  0.47446498673E+02  0.47000000000E+01 0. -1.
        -11    1    6    6    0    0  0.19012723056E+02  0.66517870930E+02  0.28471469902E+03  0.29299926728E+03  0.00000000000E+00 0.  1.
         12    1    6    6    0    0 -0.58797856996E+02  0.91937620418E+02  0.29417601410E+03  0.31376622079E+03  0.00000000000E+00 0. -1.
         -5    1    3    3    0  503 -0.49029891849E+02 -0.46396499131E+02  0.55715448896E+02  0.87651963310E+02  0.47000000000E+01 0.  1.
         11    1    4    4    0    0  0.60879646671E+02 -0.62829488658E+02  0.82309881653E+01  0.87872778436E+02  0.00000000000E+00 0. -1.
        -12    1    4    4    0    0  0.37930377559E+02 -0.20681468191E+02  0.71739655475E+02  0.83743745055E+02  0.00000000000E+00 0.  1.
</event>
<event>
12    1  0.8747122E-002  0.2216208E+03  0.7818608E-02  0.1132918E+00
         21   -1    0    0  503  502  0.00000000000E+00  0.00000000000E+00  0.12077459543E+03  0.12077459543E+03  0.00000000000E+00 0.  1.
         21   -1    0    0  501  503 -0.00000000000E+00 -0.00000000000E+00 -0.40688268203E+03  0.40688268203E+03  0.00000000000E+00 0.  1.
          6    2    1    2  501    0  0.43424125549E+02  0.13077053773E+03 -0.16439702816E+03  0.27593872882E+03  0.17357767995E+03 0.  0.
         24    2    3    3    0    0  0.23914400628E+02  0.14069063457E+03 -0.18436359494E+03  0.24594220440E+03  0.78306318725E+02 0.  0.
         -6    2    1    2    0  502 -0.43424125549E+02 -0.13077053773E+03 -0.12171105845E+03  0.25171854864E+03  0.17193620260E+03 0.  0.
        -24    2    5    5    0    0 -0.54906959410E+02 -0.62331761223E+02 -0.10493984939E+02  0.12054290669E+03  0.86720504981E+02 0.  0.
          5    1    3    3  501    0  0.19509724921E+02 -0.99200968457E+01  0.19966566783E+02  0.29996524415E+02  0.47000000000E+01 0. -1.
        -13    1    4    4    0    0  0.48294742124E+02  0.11429718095E+03 -0.12226611271E+03  0.17419882321E+03  0.00000000000E+00 0.  1.
         14    1    4    4    0    0 -0.24380341496E+02  0.26393453623E+02 -0.62097482229E+02  0.71743381191E+02  0.00000000000E+00 0. -1.
         -5    1    5    5    0  502  0.11482833861E+02 -0.68438776504E+02 -0.11121707351E+03  0.13117564195E+03  0.47000000000E+01 0.  1.
         13    1    6    6    0    0  0.57682959844E+01 -0.18506069909E+02  0.29791241055E+02  0.35542452162E+02  0.00000000000E+00 0. -1.
        -14    1    6    6    0    0 -0.60675255394E+02 -0.43825691314E+02 -0.40285225995E+02  0.85000454526E+02  0.00000000000E+00 0.  1.
</event>
<event>
12    1  0.8747122E-002  0.1750921E+03  0.7818608E-02  0.1172777E+00
         21   -1    0    0  501  502  0.00000000000E+00  0.00000000000E+00  0.38394982200E+02  0.38394982200E+02  0.00000000000E+00 0.  1.
         21   -1    0    0  502  503 -0.00000000000E+00 -0.00000000000E+00 -0.81932703472E+03  0.81932703472E+03  0.00000000000E+00 0.  1.
         -6    2    1    2    0  503  0.88025235486E+01 -0.31516563705E+02 -0.46226927856E+03  0.49412444822E+03  0.17145059410E+03 0.  0.
        -24    2    3    3    0    0 -0.42870035573E+02  0.19022341253E+02 -0.33000431096E+03  0.34332542323E+03  0.82278864677E+02 0.  0.
          6    2    1    2  501    0 -0.88025235486E+01  0.31516563705E+02 -0.31866277395E+03  0.36359756870E+03  0.17200712267E+03 0.  0.
         24    2    5    5    0    0 -0.49073011534E+02  0.56945529985E+02 -0.13548086859E+03  0.17426705087E+03  0.79768323402E+02 0.  0.
          5    1    5    5  501    0  0.40270487985E+02 -0.25428966280E+02 -0.18318190536E+03  0.18933051782E+03  0.47000000000E+01 0. -1.
        -13    1    6    6    0    0 -0.44104633746E+02  0.43148513943E+01 -0.22878073907E+02  0.49872266102E+02  0.00000000000E+00 0.  1.
         14    1    6    6    0    0 -0.49683777875E+01  0.52630678591E+02 -0.11260279469E+03  0.12439478477E+03  0.00000000000E+00 0. -1.
         -5    1    3    3    0  503  0.51672559122E+02 -0.50538904959E+02 -0.13226496761E+03  0.15079902499E+03  0.47000000000E+01 0.  1.
         13    1    4    4    0    0 -0.10593770132E+02  0.23293616815E+02 -0.29268023505E+03  0.29379676741E+03  0.00000000000E+00 0. -1.
        -14    1    4    4    0    0 -0.32276265442E+02 -0.42712755613E+01 -0.37324075905E+02  0.49528655826E+02  0.00000000000E+00 0.  1.
</event>
<event>
12    1  0.8747122E-002  0.2020975E+03  0.7818608E-02  0.1148088E+00
         21   -1    0    0  501  502  0.00000000000E+00  0.00000000000E+00  0.24860306558E+03  0.24860306558E+03  0.00000000000E+00 0. -1.
         21   -1    0    0  502  503 -0.00000000000E+00 -0.00000000000E+00 -0.17209944561E+03  0.17209944561E+03  0.00000000000E+00 0. -1.
         -6    2    1    2    0  503 -0.70739263279E+02 -0.76826420969E+02 -0.76862835033E+01  0.20224365119E+03  0.17302333127E+03 0.  0.
        -24    2    3    3    0    0 -0.99806365098E+01 -0.80851764261E+02  0.46052443608E+02  0.12089406663E+03  0.76537094896E+02 0.  0.
          6    2    1    2  501    0  0.70739263279E+02  0.76826420969E+02  0.84189903473E+02  0.21845886000E+03  0.17242387114E+03 0.  0.
         24    2    5    5    0    0  0.57840384577E+02 -0.13241303627E+02  0.90133682313E+01  0.10033952400E+03  0.80411050611E+02 0.  0.
          5    1    5    5  501    0  0.12898878702E+02  0.90067724596E+02  0.75176535242E+02  0.11811933600E+03  0.47000000000E+01 0. -1.
        -13    1    6    6    0    0  0.57924481047E+02 -0.22779252547E+02  0.35870481614E+02  0.71838926095E+02  0.00000000000E+00 0.  1.
         14    1    6    6    0    0 -0.84096470365E-01  0.95379489195E+01 -0.26857113383E+02  0.28500597907E+02  0.00000000000E+00 0. -1.
         -5    1    3    3    0  503 -0.60758626769E+02  0.40253432922E+01 -0.53738727112E+02  0.81349584554E+02  0.47000000000E+01 0.  1.
         11    1    4    4    0    0 -0.35888856197E+01 -0.65657020474E+01 -0.19956200042E+02  0.21312870841E+02  0.00000000000E+00 0. -1.
        -12    1    4    4    0    0 -0.63917508902E+01 -0.74286062214E+02  0.66008643650E+02  0.99581195791E+02  0.00000000000E+00 0.  1.
</event>
<event>
12    1  0.8747122E-002  0.2588357E+03  0.7818608E-02  0.1107889E+00
         21   -1    0    0  501  502  0.00000000000E+00  0.00000000000E+00  0.76137753987E+02  0.76137753987E+02  0.00000000000E+00 0.  1.
         21   -1    0    0  502  503 -0.00000000000E+00 -0.00000000000E+00 -0.11110235730E+04  0.11110235730E+04  0.00000000000E+00 0.  1.
         -6    2    1    2    0  503 -0.19043266495E+03 -0.30783415538E+02 -0.78850812586E+03  0.82981293222E+03  0.17214011551E+03 0.  0.
        -24    2    3    3    0    0 -0.73026425096E+02 -0.35618563255E+02 -0.20158127039E+03  0.23122056050E+03  0.78907529501E+02 0.  0.
          6    2    1    2  501    0  0.19043266495E+03  0.30783415538E+02 -0.24637769317E+03  0.35734839479E+03  0.17257951506E+03 0.  0.
         24    2    5    5    0    0  0.19387037903E+03  0.59512633525E+02 -0.24606241618E+03  0.32803329213E+03  0.77017210292E+02 0.  0.
          5    1    5    5  501    0 -0.34377140793E+01 -0.28729217987E+02 -0.31527699292E+00  0.29315102657E+02  0.47000000000E+01 0. -1.
        -11    1    6    6    0    0  0.68680069848E+02  0.60204814910E+02 -0.93947708558E+02  0.13102573669E+03  0.00000000000E+00 0.  1.
         12    1    6    6    0    0  0.12519030918E+03 -0.69218138473E+00 -0.15211470762E+03  0.19700755544E+03  0.00000000000E+00 0. -1.
         -5    1    3    3    0  503 -0.11740623985E+03  0.48351477164E+01 -0.58692685547E+03  0.59859237172E+03  0.47000000000E+01 0.  1.
         13    1    4    4    0    0 -0.21530736873E+02  0.25384073392E+02 -0.64718317856E+02  0.72776263152E+02  0.00000000000E+00 0. -1.
        -14    1    4    4    0    0 -0.51495688223E+02 -0.61002636647E+02 -0.13686295254E+03  0.15844429734E+03  0.00000000000E+00 0.  1.
</event>
<event>
12    1  0.8747122E-002  0.2085679E+03  0.7818608E-02  0.1144083E+00
         21   -1    0    0  501  502  0.00000000000E+00  0.00000000000E+00  0.38166816406E+03  0.38166816406E+03  0.00000000000E+00 0. -1.
         21   -1    0    0  502  503 -0.00000000000E+00 -0.00000000000E+00 -0.27230516004E+03  0.27230516004E+03  0.00000000000E+00 0.  1.
         -6    2    1    2    0  503 -0.10266708385E+03  0.13456494923E+02 -0.19715096627E+03  0.28700012166E+03  0.18104960362E+03 0.  0.
        -24    2    3    3    0    0 -0.11731118533E+03  0.39346306593E+02 -0.83816976687E+02  0.16973369317E+03  0.80462382334E+02 0.  0.
          6    2    1    2  501    0  0.10266708385E+03 -0.13456494923E+02  0.30651397028E+03  0.36697320245E+03  0.17319616040E+03 0.  0.
         24    2    5    5    0    0  0.24319853202E+02  0.22120723616E+02  0.56939298938E+02  0.10293980758E+03  0.79206934975E+02 0.  0.
          5    1    5    5  501    0  0.78347230646E+02 -0.35577218540E+02  0.24957467135E+03  0.26403339487E+03  0.47000000000E+01 0. -1.
        -13    1    6    6    0    0  0.51645847966E+02  0.18186934052E+01  0.32816816864E+02  0.61217193066E+02  0.00000000000E+00 0.  1.
         14    1    6    6    0    0 -0.27325994764E+02  0.20302030211E+02  0.24122482074E+02  0.41722614515E+02  0.00000000000E+00 0. -1.
         -5    1    3    3    0  503  0.14644101478E+02 -0.25889811670E+02 -0.11333398958E+03  0.11726642849E+03  0.47000000000E+01 0.  1.
         13    1    4    4    0    0 -0.30609094203E+02  0.50171657264E+02 -0.22233087656E+02  0.62836470519E+02  0.00000000000E+00 0. -1.
        -14    1    4    4    0    0 -0.86702091122E+02 -0.10825350671E+02 -0.61583889031E+02  0.10689722265E+03  0.00000000000E+00 0.  1.
</event>
<event>
12    1  0.8747122E-002  0.3051086E+03  0.7818608E-02  0.1082747E+00
         21   -1    0    0  503  502  0.00000000000E+00  0.00000000000E+00  0.22506659486E+03  0.22506659486E+03  0.00000000000E+00 0.  1.
         21   -1    0    0  501  503 -0.00000000000E+00 -0.00000000000E+00 -0.41367242792E+03  0.41367242792E+03  0.00000000000E+00 0.  1.
          6    2    1    2  501    0 -0.24294058613E+03 -0.65675436887E+02 -0.10448859658E+03  0.32250447365E+03  0.17250471677E+03 0.  0.
         24    2    3    3    0    0 -0.15415443478E+03 -0.10823860763E+03 -0.91094093635E+02  0.22302529550E+03  0.77220221410E+02 0.  0.
         -6    2    1    2    0  502  0.24294058613E+03  0.65675436887E+02 -0.84117236475E+02  0.31623454912E+03  0.17203252363E+03 0.  0.
        -24    2    5    5    0    0  0.15073160975E+03  0.37643110785E+02 -0.12166145347E+03  0.21269728597E+03  0.79382644398E+02 0.  0.
          5    1    3    3  501    0 -0.88786151351E+02  0.42563170746E+02 -0.13394502945E+02  0.99479178147E+02  0.47000000000E+01 0. -1.
        -13    1    4    4    0    0 -0.50211571553E+02 -0.27439316578E+02  0.86288281900E+01  0.57866870384E+02  0.00000000000E+00 0.  1.
         14    1    4    4    0    0 -0.10394286323E+03 -0.80799291054E+02 -0.99722921825E+02  0.16515842512E+03  0.00000000000E+00 0. -1.
         -5    1    5    5    0  502  0.92208976377E+02  0.28032326102E+02  0.37544216994E+02  0.10353726315E+03  0.47000000000E+01 0.  1.
         11    1    6    6    0    0  0.78557042741E+02  0.58030555337E+02 -0.53538899469E+02  0.11137849017E+03  0.00000000000E+00 0. -1.
        -12    1    6    6    0    0  0.72174567013E+02 -0.20387444552E+02 -0.68122553999E+02  0.10131879580E+03  0.00000000000E+00 0.  1.
</event>
<event>
12    1  0.8747122E-002  0.1892367E+03  0.7818608E-02  0.1160464E+00
         21   -1    0    0  503  502  0.00000000000E+00  0.00000000000E+00  0.11577588574E+03  0.11577588574E+03  0.00000000000E+00 0.  1.
         21   -1    0    0  501  503 -0.00000000000E+00 -0.00000000000E+00 -0.38732824564E+03  0.38732824564E+03  0.00000000000E+00 0.  1.
          6    2    1    2  501    0  0.53164900058E+02 -0.39039443010E+02 -0.25355543766E+03  0.31301356020E+03  0.17127914117E+03 0.  0.
         24    2    3    3    0    0  0.89814681745E+02 -0.69573623967E+02 -0.19042618996E+03  0.23374859556E+03  0.73953403559E+02 0.  0.
         -6    2    1    2    0  502 -0.53164900058E+02  0.39039443010E+02 -0.17996922241E+02  0.19009057118E+03  0.17736953327E+03 0.  0.
        -24    2    5    5    0    0 -0.38906039541E+02 -0.47652181747E+02 -0.11952158876E+02  0.10190110429E+03  0.80352788472E+02 0.  0.
          5    1    3    3  501    0 -0.36649781686E+02  0.30534180957E+02 -0.63129247699E+02  0.79264964640E+02  0.47000000000E+01 0. -1.
        -11    1    4    4    0    0  0.49381166204E+02 -0.57933342744E+02 -0.17145404454E+03  0.18759333987E+03  0.00000000000E+00 0.  1.
         12    1    4    4    0    0  0.40433515540E+02 -0.11640281223E+02 -0.18972145419E+02  0.46155255689E+02  0.00000000000E+00 0. -1.
         -5    1    5    5    0  502 -0.14258860517E+02  0.86691624756E+02 -0.60447633652E+01  0.88189466889E+02  0.47000000000E+01 0.  1.
         11    1    6    6    0    0 -0.37222518398E+02  0.13814954588E+02 -0.51337689426E+01  0.40034040886E+02  0.00000000000E+00 0. -1.
        -12    1    6    6    0    0 -0.16835211433E+01 -0.61467136334E+02 -0.68183899333E+01  0.61867063401E+02  0.00000000000E+00 0.  1.
</event>
<event>
12    1  0.8747122E-002  0.1919335E+03  0.7818608E-02  0.1158970E+00
         21   -1    0    0  503  502  0.00000000000E+00  0.00000000000E+00  0.37550347148E+02  0.37550347148E+02  0.00000000000E+00 0.  1.
         21   -1    0    0  501  503 -0.00000000000E+00 -0.00000000000E+00 -0.15875227485E+04  0.15875227485E+04  0.00000000000E+00 0.  1.
          6    2    1    2  501    0 -0.28349382539E+02  0.49819445957E+02 -0.12852514982E+04  0.12980935196E+04  0.17288639999E+03 0.  0.
         24    2    3    3    0    0 -0.53321663972E+02  0.48846208111E+02 -0.12501218792E+04  0.12547259953E+04  0.79394322927E+02 0.  0.
         -6    2    1    2    0  502  0.28349382539E+02 -0.49819445957E+02 -0.26472090318E+03  0.32697957608E+03  0.18317429380E+03 0.  0.
        -24    2    5    5    0    0  0.55449389103E+00 -0.10299116721E+03 -0.19649138414E+03  0.23600075963E+03  0.80498487663E+02 0.  0.
          5    1    3    3  501    0  0.24972281434E+02  0.97323784581E+00 -0.35129618935E+02  0.43367524237E+02  0.47000000000E+01 0. -1.
        -11    1    4    4    0    0 -0.97828121628E+01  0.61279175571E+02 -0.70271648827E+03  0.70545113484E+03  0.00000000000E+00 0.  1.
         12    1    4    4    0    0 -0.43538851809E+02 -0.12432967460E+02 -0.54740539098E+03  0.54927486049E+03  0.00000000000E+00 0. -1.
         -5    1    5    5    0  502  0.27794888648E+02  0.53171721248E+02 -0.68229519036E+02  0.90978816454E+02  0.47000000000E+01 0.  1.
         11    1    6    6    0    0  0.30273235816E+01 -0.10554926030E+03 -0.20286534534E+03  0.22870102619E+03  0.00000000000E+00 0. -1.
        -12    1    6    6    0    0 -0.24728296906E+01  0.25580930981E+01  0.63739611962E+01  0.72997334409E+01  0.00000000000E+00 0.  1.
</event>
<event>
12    1  0.8747122E-002  0.2756745E+03  0.7818608E-02  0.1098354E+00
         21   -1    0    0  501  502  0.00000000000E+00  0.00000000000E+00  0.74950301321E+03  0.74950301321E+03  0.00000000000E+00 0. -1.
         21   -1    0    0  502  503 -0.00000000000E+00 -0.00000000000E+00 -0.15517315531E+03  0.15517315531E+03  0.00000000000E+00 0. -1.
         -6    2    1    2    0  503  0.19896619741E+03 -0.77977282602E+02  0.29770704227E+02  0.27727733898E+03  0.17415057728E+03 0.  0.
        -24    2    3    3    0    0  0.10997235897E+03 -0.85602954397E+01  0.75633249452E+02  0.15535898744E+03  0.79049529794E+02 0.  0.
          6    2    1    2  501    0 -0.19896619741E+03  0.77977282602E+02  0.56455915368E+03  0.62739882954E+03  0.17098025906E+03 0.  0.
         24    2    5    5    0    0 -0.13236746128E+03  0.37593598693E+02  0.50460028990E+03  0.52899461760E+03  0.79242850916E+02 0.  0.
          5    1    5    5  501    0 -0.66598736132E+02  0.40383683909E+02  0.59958863782E+02  0.98404211935E+02  0.47000000000E+01 0. -1.
        -11    1    6    6    0    0 -0.72332691943E+02 -0.12970404411E+02  0.32128503836E+03  0.32958204683E+03  0.00000000000E+00 0.  1.
         12    1    6    6    0    0 -0.60034769336E+02  0.50564003103E+02  0.18331525153E+03  0.19941257078E+03  0.00000000000E+00 0. -1.
         -5    1    3    3    0  503  0.88993838439E+02 -0.69416987162E+02 -0.45862545225E+02  0.12191835154E+03  0.47000000000E+01 0.  1.
         13    1    4    4    0    0  0.27323005893E+02 -0.27126698850E+02 -0.44861505098E+01  0.38762481705E+02  0.00000000000E+00 0. -1.
        -14    1    4    4    0    0  0.82649353079E+02  0.18566403411E+02  0.80119399962E+02  0.11659650574E+03  0.00000000000E+00 0.  1.
</event>
<event>
12    1  0.8747122E-002  0.1988909E+03  0.7818608E-02  0.1151617E+00
         21   -1    0    0  501  502  0.00000000000E+00  0.00000000000E+00  0.29471457859E+03  0.29471457859E+03  0.00000000000E+00 0.  1.
         21   -1    0    0  502  503 -0.00000000000E+00 -0.00000000000E+00 -0.15714919124E+03  0.15714919124E+03  0.00000000000E+00 0. -1.
         -6    2    1    2    0  503  0.92488138434E+02  0.17231086750E+02 -0.23496842724E+02  0.19593676444E+03  0.17025906126E+03 0.  0.
        -24    2    3    3    0    0  0.67039582181E+02 -0.54429030620E+02 -0.48686663335E+01  0.11750271321E+03  0.79538410512E+02 0.  0.
          6    2    1    2  501    0 -0.92488138434E+02 -0.17231086750E+02  0.16106223007E+03  0.25592700539E+03  0.17523305633E+03 0.  0.
         24    2    5    5    0    0 -0.25243586214E+02 -0.71645421618E+02  0.95859057374E+02  0.14750056317E+03  0.82444843202E+02 0.  0.
          5    1    5    5  501    0 -0.67244552220E+02  0.54414334868E+02  0.65203172695E+02  0.10842644222E+03  0.47000000000E+01 0. -1.
        -13    1    6    6    0    0  0.29673818702E+02 -0.32584639717E+02  0.30311038773E+02  0.53488815030E+02  0.00000000000E+00 0.  1.
         14    1    6    6    0    0 -0.54917404916E+02 -0.39060781901E+02  0.65548018602E+02  0.94011748138E+02  0.00000000000E+00 0. -1.
         -5    1    3    3    0  503  0.25448556253E+02  0.71660117369E+02 -0.18628176391E+02  0.78434051230E+02  0.47000000000E+01 0.  1.
         11    1    4    4    0    0 -0.24971613820E+01  0.50604517555E+01 -0.23453730419E+02  0.24123048263E+02  0.00000000000E+00 0. -1.
        -12    1    4    4    0    0  0.69536743563E+02 -0.59489482375E+02  0.18585064086E+02  0.93379664947E+02  0.00000000000E+00 0.  1.
</event>
<event>
12    1  0.8747122E-002  0.1790258E+03  0.7818608E-02  0.1170288E+00
         21   -1    0    0  501  502  0.00000000000E+00  0.00000000000E+00  0.11779347826E+03  0.11779347826E+03  0.00000000000E+00 0.  1.
         21   -1    0    0  502  503 -0.00000000000E+00 -0.00000000000E+00 -0.26438536684E+03  0.26438536684E+03  0.00000000000E+00 0.  1.
         -6    2    1    2    0  503  0.13775916796E+02 -0.83513485692E+00 -0.59573939730E+02  0.18867771982E+03  0.17849300918E+03 0.  0.
        -24    2    3    3    0    0 -0.48456346800E+02 -0.43729952493E+02 -0.63140595130E+02  0.11286458742E+03  0.67017565242E+02 0.  0.
          6    2    1    2  501    0 -0.13775916796E+02  0.83513485692E+00 -0.87017948848E+02  0.19350112528E+03  0.17227910126E+03 0.  0.
         24    2    5    5    0    0 -0.35027112678E+02 -0.45902379876E+02 -0.99953113896E+02  0.14034647258E+03  0.79828442838E+02 0.  0.
          5    1    5    5  501    0  0.21251195882E+02  0.46737514732E+02  0.12935165048E+02  0.53154652709E+02  0.47000000000E+01 0. -1.
        -11    1    6    6    0    0  0.25161776976E+02 -0.14953232505E+02 -0.19305231694E+02  0.35062888553E+02  0.00000000000E+00 0.  1.
         12    1    6    6    0    0 -0.60188889654E+02 -0.30949147370E+02 -0.80647882202E+02  0.10528358402E+03  0.00000000000E+00 0. -1.
         -5    1    3    3    0  503  0.62232263595E+02  0.42894817636E+02  0.35666554001E+01  0.75813132391E+02  0.47000000000E+01 0.  1.
         11    1    4    4    0    0 -0.42456129441E+02 -0.95625660697E+01 -0.64887531552E+02  0.78130386841E+02  0.00000000000E+00 0. -1.
        -12    1    4    4    0    0 -0.60002173582E+01 -0.34167386423E+02  0.17469364225E+01  0.34734200584E+02  0.00000000000E+00 0.  1.
</event>
<event>
12    1  0.8747122E-002  0.2318130E+03  0.7818608E-02  0.1125382E+00
         21   -1    0    0  503  502  0.00000000000E+00  0.00000000000E+00  0.28691902839E+03  0.28691902839E+03  0.00000000000E+00 0. -1.
         21   -1    0    0  501  503 -0.00000000000E+00 -0.00000000000E+00 -0.18912421781E+03  0.18912421781E+03  0.00000000000E+00 0.  1.
          6    2    1    2  501    0 -0.81337558029E+02 -0.13207072918E+03  0.25130767832E+02  0.23317126434E+03  0.17227538178E+03 0.  0.
         24    2    3    3    0    0 -0.29140439039E+02 -0.18226301931E+02 -0.35341127581E+02  0.94016555536E+02  0.80054694719E+02 0.  0.
         -6    2    1    2    0  502  0.81337558029E+02  0.13207072918E+03  0.72664042755E+02  0.24287198187E+03  0.17218670278E+03 0.  0.
        -24    2    5    5    0    0 -0.86469866127E+01  0.63898635836E+02  0.90639353326E+02  0.12846108040E+03  0.64256912204E+02 0.  0.
          5    1    3    3  501    0 -0.52197118990E+02 -0.11384442725E+03  0.60471895413E+02  0.13915470880E+03  0.47000000000E+01 0. -1.
        -13    1    4    4    0    0 -0.16493385289E+02 -0.48048922656E+02 -0.75966761458E+01  0.51365749437E+02  0.00000000000E+00 0.  1.
         14    1    4    4    0    0 -0.12647053749E+02  0.29822620725E+02 -0.27744451435E+02  0.42650806099E+02  0.00000000000E+00 0. -1.
         -5    1    5    5    0  502  0.89984544642E+02  0.68172093343E+02 -0.17975310571E+02  0.11441090147E+03  0.47000000000E+01 0.  1.
         13    1    6    6    0    0 -0.91278121797E+01  0.73432217116E+02  0.56750714716E+02  0.93253692080E+02  0.00000000000E+00 0. -1.
        -14    1    6    6    0    0  0.48082556692E+00 -0.95335812794E+01  0.33888638609E+02  0.35207388316E+02  0.00000000000E+00 0.  1.
</event>
<event>
12    1  0.8747122E-002  0.1772775E+03  0.7818608E-02  0.1171511E+00
         21   -1    0    0  503  502  0.00000000000E+00  0.00000000000E+00  0.75461503669E+02  0.75461503669E+02  0.00000000000E+00 0. -1.
         21   -1    0    0  501  503 -0.00000000000E+00 -0.00000000000E+00 -0.46720988940E+03  0.46720988940E+03  0.00000000000E+00 0. -1.
          6    2    1    2  501    0  0.11931681579E+02  0.33523063398E+01 -0.29556215264E+03  0.34465098572E+03  0.17684375279E+03 0.  0.
         24    2    3    3    0    0  0.47626681603E+02 -0.44359534661E+02 -0.24682897085E+03  0.26753052277E+03  0.80074781591E+02 0.  0.
         -6    2    1    2    0  502 -0.11931681579E+02 -0.33523063398E+01 -0.96186233086E+02  0.19802040734E+03  0.17264613319E+03 0.  0.
        -24    2    5    5    0    0 -0.72862175430E+02 -0.13167363649E+02 -0.45077092309E+02  0.11775151734E+03  0.79694413305E+02 0.  0.
          5    1    3    3  501    0 -0.35695000024E+02  0.47711841001E+02 -0.48733181797E+02  0.77120462956E+02  0.47000000000E+01 0. -1.
        -11    1    4    4    0    0  0.11365423006E+02 -0.57849154338E+02 -0.10393279533E+03  0.11948942816E+03  0.00000000000E+00 0.  1.
         12    1    4    4    0    0  0.36261258597E+02  0.13489619677E+02 -0.14289617552E+03  0.14804109460E+03  0.00000000000E+00 0. -1.
         -5    1    5    5    0  502  0.60930493851E+02  0.98150573092E+01 -0.51109140777E+02  0.80268890000E+02  0.47000000000E+01 0.  1.
         11    1    6    6    0    0 -0.36685233833E+02  0.27462143424E+02  0.19131659124E+01  0.45865410787E+02  0.00000000000E+00 0. -1.
        -12    1    6    6    0    0 -0.36176941597E+02 -0.40629507073E+02 -0.46990258221E+02  0.71886106558E+02  0.00000000000E+00 0.  1.
</event>
<event>
12    1  0.8747122E-002  0.2199056E+03  0.7818608E-02  0.1134197E+00
         21   -1    0    0  503  502  0.00000000000E+00  0.00000000000E+00  0.21099468141E+04  0.21099468141E+04  0.00000000000E+00 0.  1.
         21   -1    0    0  501  503 -0.00000000000E+00 -0.00000000000E+00 -0.65873881594E+02  0.65873881594E+02  0.00000000000E+00 0. -1.
          6    2    1    2  501    0 -0.15198693861E+02 -0.13358340747E+03  0.14320390216E+03  0.26242302888E+03  0.17402000300E+03 0.  0.
         24    2    3    3    0    0  0.45277490726E+02 -0.94878002150E+02  0.13666649625E+03  0.19017135084E+03  0.80221724140E+02 0.  0.
         -6    2    1    2    0  502  0.15198693861E+02  0.13358340747E+03  0.19008690303E+04  0.19133976668E+04  0.17237178947E+03 0.  0.
        -24    2    5    5    0    0  0.64183049294E+02  0.10124712166E+03  0.16200083191E+04  0.16264308890E+04  0.80498690855E+02 0.  0.
          5    1    3    3  501    0 -0.60476184587E+02 -0.38705405322E+02  0.65374059112E+01  0.72251678039E+02  0.47000000000E+01 0. -1.
        -11    1    4    4    0    0  0.12749557444E+02  0.52258833382E+01  0.55693505161E+02  0.57372707700E+02  0.00000000000E+00 0.  1.
         12    1    4    4    0    0  0.32527933282E+02 -0.10010388549E+03  0.80972991086E+02  0.13279864314E+03  0.00000000000E+00 0. -1.
         -5    1    5    5    0  502 -0.48984355434E+02  0.32336285812E+02  0.28086071120E+03  0.28696677779E+03  0.47000000000E+01 0.  1.
         13    1    6    6    0    0 -0.16817003351E+02  0.50833871850E+01  0.14158994818E+03  0.14267573673E+03  0.00000000000E+00 0. -1.
        -14    1    6    6    0    0  0.81000052646E+02  0.96163734474E+02  0.14784183709E+04  0.14837551523E+04  0.00000000000E+00 0.  1.
</event>
<event>
12    1  0.8747122E-002  0.2101892E+03  0.7818608E-02  0.1141737E+00
         21   -1    0    0  501  502  0.00000000000E+00  0.00000000000E+00  0.37448446924E+03  0.37448446924E+03  0.00000000000E+00 0.  1.
         21   -1    0    0  502  503 -0.00000000000E+00 -0.00000000000E+00 -0.46667597385E+03  0.46667597385E+03  0.00000000000E+00 0.  1.
         -6    2    1    2    0  503 -0.88851788660E+02 -0.79778235081E+02 -0.41007559393E+03  0.46007016951E+03  0.17100690337E+03 0.  0.
        -24    2    3    3    0    0  0.14033738454E+02 -0.20792425973E+02 -0.11823140345E+03  0.14501481107E+03  0.80133388025E+02 0.  0.
          6    2    1    2  501    0  0.88851788660E+02  0.79778235081E+02  0.31788408932E+03  0.38109027357E+03  0.17297483988E+03 0.  0.
         24    2    5    5    0    0  0.91825543876E+02  0.14978073571E+02  0.27949146896E+03  0.30556552631E+03  0.81231376020E+02 0.  0.
          5    1    5    5  501    0 -0.29737552162E+01  0.64800161510E+02  0.38392620357E+02  0.75524747266E+02  0.47000000000E+01 0. -1.
        -13    1    6    6    0    0  0.42930010533E+02  0.46517350972E+02  0.17297105455E+03  0.18418967250E+03  0.00000000000E+00 0.  1.
         14    1    6    6    0    0  0.48895533343E+02 -0.31539277401E+02  0.10652041441E+03  0.12137585380E+03  0.00000000000E+00 0. -1.
         -5    1    3    3    0  503 -0.10288552711E+03 -0.58985809108E+02 -0.29184419048E+03  0.31505535844E+03  0.47000000000E+01 0.  1.
         13    1    4    4    0    0  0.19913575549E+02 -0.47867792223E+02 -0.97442672681E+02  0.11037640365E+03  0.00000000000E+00 0. -1.
        -14    1    4    4    0    0 -0.58798370953E+01  0.27075366250E+02 -0.20788730765E+02  0.34638407421E+02  0.00000000000E+00 0.  1.
</event>
<event>
12    1  0.8747122E-002  0.1935573E+03  0.7818608E-02  0.1155409E+00
         21   -1    0    0  503  502  0.00000000000E+00  0.00000000000E+00  0.55798759776E+03  0.55798759776E+03  0.00000000000E+00 0.  1.
         21   -1    0    0  501  503 -0.00000000000E+00 -0.00000000000E+00 -0.70725217175E+02  0.70725217175E+02  0.00000000000E+00 0. -1.
          6    2    1    2  501    0 -0.80726541496E+02  0.35707687464E+02  0.17138651993E+03  0.25853001728E+03  0.17225741544E+03 0.  0.
         24    2    3    3    0    0 -0.71922518884E+02  0.88559916593E+02  0.13381757882E+03  0.19292221077E+03  0.79348140873E+02 0.  0.
         -6    2    1    2    0  502  0.80726541496E+02 -0.35707687464E+02  0.31587586065E+03  0.37018279765E+03  0.17165643271E+03 0.  0.
        -24    2    5    5    0    0 -0.17470064692E+02  0.12590596425E+02  0.14987650525E+03  0.17130300057E+03  0.80112576420E+02 0.  0.
          5    1    3    3  501    0 -0.88040226118E+01 -0.52852229129E+02  0.37568941119E+02  0.65607806509E+02  0.47000000000E+01 0. -1.
        -11    1    4    4    0    0 -0.20648869291E+02 -0.11662516739E+02  0.39430587939E+02  0.46012621800E+02  0.00000000000E+00 0.  1.
         12    1    4    4    0    0 -0.51273649593E+02  0.10022243333E+03  0.94386990876E+02  0.14690958897E+03  0.00000000000E+00 0. -1.
         -5    1    5    5    0  502  0.98196606188E+02 -0.48298283889E+02  0.16599935540E+03  0.19887979708E+03  0.47000000000E+01 0.  1.
         11    1    6    6    0    0 -0.10276938413E+02 -0.27454034707E+01  0.15359304169E+03  0.15396095336E+03  0.00000000000E+00 0. -1.
        -12    1    6    6    0    0 -0.71931262792E+01  0.15335999896E+02 -0.37165364403E+01  0.17342047214E+02  0.00000000000E+00 0.  1.
</event>
<event>
12    1  0.8747122E-002  0.2046492E+03  0.7818608E-02  0.1145898E+00
         21   -1    0    0  501  502  0.00000000000E+00  0.00000000000E+00  0.38004880689E+02  0.38004880689E+02  0.00000000000E+00 0.  1.
         21   -1    0    0  502  503 -0.00000000000E+00 -0.00000000000E+00 -0.14813476378E+04  0.14813476378E+04  0.00000000000E+00 0. -1.
         -6    2    1    2    0  503 -0.66574848867E+02 -0.87910306728E+02 -0.33677235731E+03  0.39401730026E+03  0.17226020935E+03 0.  0.
        -24    2    3    3    0    0 -0.99777284782E+02 -0.21755481392E+02 -0.20540467064E+03  0.24315835367E+03  0.80660391202E+02 0.  0.
          6    2    1    2  501    0  0.66574848867E+02  0.87910306728E+02 -0.11065703998E+04  0.11253352183E+04  0.17239742208E+03 0.  0.
         24    2    5    5    0    0  0.68676678528E+02  0.87429534925E+02 -0.11103775942E+04  0.11189138821E+04  0.81666786199E+02 0.  0.
          5    1    5    5  501    0 -0.21018296604E+01  0.48077180357E+00  0.38071943899E+01  0.64213361982E+01  0.47000000000E+01 0. -1.
        -13    1    6    6    0    0 -0.98410637062E+01  0.15846329259E+02 -0.52527889227E+02  0.55741652581E+02  0.00000000000E+00 0.  1.
         14    1    6    6    0    0  0.78517742234E+02  0.71583205665E+02 -0.10578497050E+04  0.10631722295E+04  0.00000000000E+00 0. -1.
         -5    1    3    3    0  503  0.33202435915E+02 -0.66154825337E+02 -0.13136768667E+03  0.15085894659E+03  0.47000000000E+01 0.  1.
         13    1    4    4    0    0 -0.51715807435E+02  0.16138695950E+02 -0.15393376958E+03  0.16318880986E+03  0.00000000000E+00 0. -1.
        -14    1    4    4    0    0 -0.48061477346E+02 -0.37894177342E+02 -0.51470901057E+02  0.79969543807E+02  0.00000000000E+00 0.  1.
</event>
<event>
12    1  0.8747122E-002  0.3020942E+03  0.7818608E-02  0.1085061E+00
         21   -1    0    0  503  502  0.00000000000E+00  0.00000000000E+00  0.62796720200E+03  0.62796720200E+03  0.00000000000E+00 0. -1.
         21   -1    0    0  501  503 -0.00000000000E+00 -0.00000000000E+00 -0.52433633497E+03  0.52433633497E+03  0.00000000000E+00 0. -1.
          6    2    1    2  501    0 -0.18066466117E+03 -0.17093572636E+03 -0.44030242864E+03  0.53011038299E+03  0.15903473566E+03 0.  0.
         24    2    3    3    0    0 -0.16342862816E+03 -0.17586295506E+03 -0.31743692993E+03  0.40585508455E+03  0.79469803751E+02 0.  0.
         -6    2    1    2    0  502  0.18066466117E+03  0.17093572636E+03  0.54393329567E+03  0.62219315398E+03  0.17147054671E+03 0.  0.
        -24    2    5    5    0    0  0.85817326190E+02  0.17084454633E+03  0.36810230711E+03  0.42235659125E+03  0.79582090888E+02 0.  0.
          5    1    3    3  501    0 -0.17236033008E+02  0.49272287000E+01 -0.12286549871E+03  0.12425529844E+03  0.47000000000E+01 0. -1.
        -13    1    4    4    0    0 -0.14410845797E+03 -0.13607183223E+03 -0.29716593254E+03  0.35719796003E+03  0.00000000000E+00 0.  1.
         14    1    4    4    0    0 -0.19320170191E+02 -0.39791122820E+02 -0.20270997391E+02  0.48657124521E+02  0.00000000000E+00 0. -1.
         -5    1    5    5    0  502  0.94847334978E+02  0.91180021010E-01  0.17583098856E+03  0.19983656273E+03  0.47000000000E+01 0.  1.
         11    1    6    6    0    0  0.63911308856E+02  0.16324679377E+03  0.27280197901E+03  0.32427625696E+03  0.00000000000E+00 0. -1.
        -12    1    6    6    0    0  0.21906017333E+02  0.75977525635E+01  0.95300328099E+02  0.98080334294E+02  0.00000000000E+00 0.  1.
</event>
<event>
12    1  0.8747122E-002  0.2204019E+03  0.7818608E-02  0.1133592E+00
         21   -1    0    0  501  502  0.00000000000E+00  0.00000000000E+00  0.11568796535E+03  0.11568796535E+03  0.00000000000E+00 0. -1.
         21   -1    0    0  502  503 -0.00000000000E+00 -0.00000000000E+00 -0.49903888093E+03  0.49903888093E+03  0.00000000000E+00 0.  1.
         -6    2    1    2    0  503  0.13624257064E+03 -0.22282303523E+02 -0.31412785350E+03  0.38370988020E+03  0.17175105448E+03 0.  0.
        -24    2    3    3    0    0  0.13691697693E+02  0.18259010095E+02 -0.17935980470E+03  0.19703681962E+03  0.78311651165E+02 0.  0.
          6    2    1    2  501    0 -0.13624257064E+03  0.22282303523E+02 -0.69223062080E+02  0.23101696607E+03  0.17180939202E+03 0.  0.
         24    2    5    5    0    0 -0.45026196232E+02 -0.24966796554E+01 -0.98559786621E+02  0.13193539173E+03  0.75228480621E+02 0.  0.
          5    1    5    5  501    0 -0.91216374404E+02  0.24778983178E+02  0.29336724541E+02  0.99081574339E+02  0.47000000000E+01 0. -1.
        -13    1    6    6    0    0 -0.20707003886E+02 -0.27170443564E+02 -0.81572529420E+01  0.35121984411E+02  0.00000000000E+00 0.  1.
         14    1    6    6    0    0 -0.24319192347E+02  0.24673763909E+02 -0.90402533679E+02  0.96813407323E+02  0.00000000000E+00 0. -1.
         -5    1    3    3    0  503  0.12255087294E+03 -0.40541313618E+02 -0.13476804880E+03  0.18667306058E+03  0.47000000000E+01 0.  1.
         13    1    4    4    0    0  0.31009698937E+02  0.29187164238E+02 -0.16861863461E+03  0.17391301252E+03  0.00000000000E+00 0. -1.
        -14    1    4    4    0    0 -0.17318001243E+02 -0.10928154143E+02 -0.10741170089E+02  0.23123807103E+02  0.00000000000E+00 0.  1.
</event>
<event>
12    1  0.8747122E-002  0.2451754E+03  0.7818608E-02  0.1116695E+00
         21   -1    0    0  503  502  0.00000000000E+00  0.00000000000E+00  0.12325391894E+04  0.12325391894E+04  0.00000000000E+00 0.  1.
         21   -1    0    0  501  503 -0.00000000000E+00 -0.00000000000E+00 -0.64980302694E+02  0.64980302694E+02  0.00000000000E+00 0.  1.
          6    2    1    2  501    0 -0.87283416741E+02  0.15016521962E+03  0.25442596141E+03  0.35204462127E+03  0.17039617808E+03 0.  0.
         24    2    3    3    0    0 -0.17763314685E+02  0.91460612698E+02  0.22469547331E+03  0.25620482063E+03  0.80450452870E+02 0.  0.
         -6    2    1    2    0  502  0.87283416741E+02 -0.15016521962E+03  0.91313292530E+03  0.94547487083E+03  0.17304046948E+03 0.  0.
        -24    2    5    5    0    0 -0.21918581454E+02 -0.78346383557E+02  0.39438906876E+03  0.41049795514E+03  0.79669652846E+02 0.  0.
          5    1    3    3  501    0 -0.69520102056E+02  0.58704606920E+02  0.29730488101E+02  0.95839800638E+02  0.47000000000E+01 0. -1.
        -11    1    4    4    0    0 -0.36284214748E+02  0.14886142083E+02  0.43194196283E+02  0.58342780689E+02  0.00000000000E+00 0.  1.
         12    1    4    4    0    0  0.18520900063E+02  0.76574470615E+02  0.18150127703E+03  0.19786203994E+03  0.00000000000E+00 0. -1.
         -5    1    5    5    0  502  0.10920199820E+03 -0.71818836062E+02  0.51874385654E+03  0.53497691569E+03  0.47000000000E+01 0.  1.
         11    1    6    6    0    0  0.10245814981E+02 -0.42299473518E+02  0.31175202545E+03  0.31477539224E+03  0.00000000000E+00 0. -1.
        -12    1    6    6    0    0 -0.32164396434E+02 -0.36046910039E+02  0.82637043306E+02  0.95722562898E+02  0.00000000000E+00 0.  1.
</event>
<event>
12    1  0.8747122E-002  0.1854561E+03  0.7818608E-02  0.1162718E+00
         21   -1    0    0  501  502  0.00000000000E+00  0.00000000000E+00  0.75650141593E+03  0.75650141593E+03  0.00000000000E+00 0.  1.
         21   -1    0    0  502  503 -0.00000000000E+00 -0.00000000000E+00 -0.46176419566E+02  0.46176419566E+02  0.00000000000E+00 0. -1.
         -6    2    1    2    0  503  0.48746559411E+02  0.49184516260E+02  0.30161557822E+03  0.35386010994E+03  0.17160908103E+03 0.  0.
        -24    2    3    3    0    0  0.58150103045E+02  0.30309504926E+02  0.31295244170E+03  0.32946119277E+03  0.79406210087E+02 0.  0.
          6    2    1    2  501    0 -0.48746559411E+02 -0.49184516260E+02  0.40870941814E+03  0.44881772555E+03  0.17204249067E+03 0.  0.
         24    2    5    5    0    0  0.22806311666E+02 -0.37192610360E+02  0.32551418472E+03  0.33833172630E+03  0.81273946923E+02 0.  0.
          5    1    5    5  501    0 -0.71552871077E+02 -0.11991905900E+02  0.83195233421E+02  0.11048599925E+03  0.47000000000E+01 0. -1.
        -13    1    6    6    0    0 -0.20416400463E+02 -0.53508454781E+01  0.20878439235E+03  0.20984847735E+03  0.00000000000E+00 0.  1.
         14    1    6    6    0    0  0.43222712129E+02 -0.31841764882E+02  0.11672979237E+03  0.12848324895E+03  0.00000000000E+00 0. -1.
         -5    1    3    3    0  503 -0.94035436338E+01  0.18875011334E+02 -0.11336863483E+02  0.24398917176E+02  0.47000000000E+01 0.  1.
         11    1    4    4    0    0  0.61065661736E+01 -0.88752625610E+01  0.10456678564E+01  0.10823763543E+02  0.00000000000E+00 0. -1.
        -12    1    4    4    0    0  0.52043536871E+02  0.39184767487E+02  0.31190677384E+03  0.31863742922E+03  0.00000000000E+00 0.  1.
</event>
<event>
12    1  0.8747122E-002  0.1804601E+03  0.7818608E-02  0.1167442E+00
         21   -1    0    0  501  502  0.00000000000E+00  0.00000000000E+00  0.19652167710E+02  0.19652167710E+02  0.00000000000E+00 0.  1.
         21   -1    0    0  502  503 -0.00000000000E+00 -0.00000000000E+00 -0.17947428558E+04  0.17947428558E+04  0.00000000000E+00 0.  1.
         -6    2    1    2    0  503 -0.56053130017E+02 -0.14134132312E+02 -0.63423135867E+03  0.65940522297E+03  0.17095059135E+03 0.  0.
        -24    2    3    3    0    0 -0.18805786507E+02  0.52884636096E+02 -0.42922040619E+03  0.44047495884E+03  0.81471405614E+02 0.  0.
          6    2    1    2  501    0  0.56053130017E+02  0.14134132312E+02 -0.11408593294E+04  0.11549898005E+04  0.17058634979E+03 0.  0.
         24    2    5    5    0    0  0.33542050861E+02  0.17870710433E+02 -0.11207697713E+04  0.11242263312E+04  0.79470321622E+02 0.  0.
          5    1    5    5  501    0  0.22511079156E+02 -0.37365781209E+01 -0.20089558130E+02  0.30763469353E+02  0.47000000000E+01 0. -1.
        -13    1    6    6    0    0 -0.99582005207E+01 -0.81381936937E+01 -0.73842705633E+03  0.73853903991E+03  0.00000000000E+00 0.  1.
         14    1    6    6    0    0  0.43500251382E+02  0.26008904127E+02 -0.38234271494E+03  0.38568729125E+03  0.00000000000E+00 0. -1.
         -5    1    3    3    0  503 -0.37247343510E+02 -0.67018768408E+02 -0.20501095248E+03  0.21893026414E+03  0.47000000000E+01 0.  1.
         11    1    4    4    0    0 -0.39942289759E+02  0.28046371861E+02 -0.36694231818E+03  0.37017381101E+03  0.00000000000E+00 0. -1.
        -12    1    4    4    0    0  0.21136503252E+02  0.24838264235E+02 -0.62278088010E+02  0.70301147829E+02  0.00000000000E+00 0.  1.
</event>
<event>
12    1  0.8747122E-002  0.2083301E+03  0.7818608E-02  0.1143573E+00
         21   -1    0    0  503  502  0.00000000000E+00  0.00000000000E+00  0.33346978639E+03  0.33346978639E+03  0.00000000000E+00 0.  1.
         21   -1    0    0  501  503 -0.00000000000E+00 -0.00000000000E+00 -0.13562328534E+03  0.13562328534E+03  0.00000000000E+00 0. -1.
          6    2    1    2  501    0 -0.10695620845E+03 -0.36803549976E+02  0.42778029641E+02  0.20938616174E+03  0.17093411915E+03 0.  0.
         24    2    3    3    0    0 -0.12396579737E+03 -0.72350799451E+02  0.38398942707E+02  0.16945873429E+03  0.81483904711E+02 0.  0.
         -6    2    1    2    0  502  0.10695620845E+03  0.36803549976E+02  0.15506847140E+03  0.25970690999E+03  0.17494946829E+03 0.  0.
        -24    2    5    5    0    0  0.70958235183E+02  0.90988273498E+01  0.17878661363E+03  0.20824774165E+03  0.79275525164E+02 0.  0.
          5    1    3    3  501    0  0.17009588918E+02  0.35547249475E+02  0.43790869345E+01  0.39927427450E+02  0.47000000000E+01 0. -1.
        -13    1    4    4    0    0 -0.70912236023E+02 -0.31558997946E+01  0.41475600021E+02  0.82211497483E+02  0.00000000000E+00 0.  1.
         14    1    4    4    0    0 -0.53053561348E+02 -0.69194899656E+02 -0.30766573141E+01  0.87247236807E+02  0.00000000000E+00 0. -1.
         -5    1    5    5    0  502  0.35997973271E+02  0.27704722626E+02 -0.23718142229E+02  0.51459168340E+02  0.47000000000E+01 0.  1.
         11    1    6    6    0    0  0.31679763238E+02 -0.66456992377E+00  0.79317100851E+01  0.32664370143E+02  0.00000000000E+00 0. -1.
        -12    1    6    6    0    0  0.39278471945E+02  0.97633972735E+01  0.17085490354E+03  0.17558337151E+03  0.00000000000E+00 0.  1.
</event>
<event>
12    1  0.8747122E-002  0.2204031E+03  0.7818608E-02  0.1133808E+00
         21   -1    0    0  503  502  0.00000000000E+00  0.00000000000E+00  0.36321019261E+03  0.36321019261E+03  0.00000000000E+00 0.  1.
         21   -1    0    0  501  503 -0.00000000000E+00 -0.00000000000E+00 -0.33871311883E+03  0.33871311883E+03  0.00000000000E+00 0.  1.
          6    2    1    2  501    0  0.77670460539E+02  0.11109085386E+03 -0.26126573595E+03  0.34103843621E+03  0.17226012870E+03 0.  0.
         24    2    3    3    0    0  0.66492834993E+02 -0.48633398990E+01 -0.16380051133E+03  0.18907832837E+03  0.66895871087E+02 0.  0.
         -6    2    1    2    0  502 -0.77670460539E+02 -0.11109085386E+03  0.28576280974E+03  0.36088487523E+03  0.17379192008E+03 0.  0.
        -24    2    5    5    0    0 -0.63462007550E+02 -0.14871103736E+03  0.23464318584E+03  0.29567395367E+03  0.78887661794E+02 0.  0.
          5    1    3    3  501    0  0.11177625546E+02  0.11595419376E+03 -0.97465224627E+02  0.15196010784E+03  0.47000000000E+01 0. -1.
        -11    1    4    4    0    0  0.49800149277E+02 -0.79908152682E+01 -0.16452225324E+03  0.17207986462E+03  0.00000000000E+00 0.  1.
         12    1    4    4    0    0  0.16692685715E+02  0.31274753691E+01  0.72174191069E+00  0.16998463753E+02  0.00000000000E+00 0. -1.
         -5    1    5    5    0  502 -0.14208452989E+02  0.37620183496E+02  0.51119623897E+02  0.65210921554E+02  0.47000000000E+01 0.  1.
         11    1    6    6    0    0 -0.18734143328E+02 -0.12958567499E+03  0.17880304835E+03  0.22161666316E+03  0.00000000000E+00 0. -1.
        -12    1    6    6    0    0 -0.44727864222E+02 -0.19125362371E+02  0.55840137490E+02  0.74057290516E+02  0.00000000000E+00 0.  1.
</event>
<event>
12    1  0.8747122E-002  0.2588107E+03  0.7818608E-02  0.1108001E+00
         21   -1    0    0  503  502  0.00000000000E+00  0.00000000000E+00  0.10045291365E+04  0.10045291365E+04  0.00000000000E+00 0. -1.
         21   -1    0    0  501  503 -0.00000000000E+00 -0.00000000000E+00 -0.66478639209E+02  0.66478639209E+02  0.00000000000E+00 0. -1.
          6    2    1    2  501    0 -0.59505583244E+01 -0.19234232972E+03  0.45550040600E+03  0.52343351430E+03  0.17167132280E+03 0.  0.
         24    2    3    3    0    0 -0.62569832739E+02 -0.12968144251E+03  0.25687489325E+03  0.30754856036E+03  0.88708205336E+02 0.  0.
         -6    2    1    2    0  502  0.59505583244E+01  0.19234232972E+03  0.48255009132E+03  0.54757426145E+03  0.17306646185E+03 0.  0.
        -24    2    5    5    0    0 -0.31054857431E+02  0.51702178633E+02  0.28641973238E+03  0.30336480096E+03  0.79727159232E+02 0.  0.
          5    1    3    3  501    0  0.56619274414E+02 -0.62660887213E+02  0.19862551275E+03  0.21588495394E+03  0.47000000000E+01 0. -1.
        -13    1    4    4    0    0 -0.59560438037E+02 -0.13312274635E+03  0.18520449327E+03  0.23573250880E+03  0.00000000000E+00 0.  1.
         14    1    4    4    0    0 -0.30093947013E+01  0.34413038402E+01  0.71670399979E+02  0.71816051560E+02  0.00000000000E+00 0. -1.
         -5    1    5    5    0  502  0.37005415755E+02  0.14064015109E+03  0.19613035894E+03  0.24420946049E+03  0.47000000000E+01 0.  1.
         11    1    6    6    0    0  0.21227973547E+02  0.35265247464E+02  0.82353659495E+02  0.92067311092E+02  0.00000000000E+00 0. -1.
        -12    1    6    6    0    0 -0.52282830978E+02  0.16436931169E+02  0.20406607288E+03  0.21129748986E+03  0.00000000000E+00 0.  1.
</event>
<event>
12    1  0.8747122E-002  0.2023325E+03  0.7818608E-02  0.1148010E+00
         21   -1    0    0  501  502  0.00000000000E+00  0.00000000000E+00  0.23237653174E+03  0.23237653174E+03  0.00000000000E+00 0.  1.
         21   -1    0    0  502  503 -0.00000000000E+00 -0.00000000000E+00 -0.17832954445E+03  0.17832954445E+03  0.00000000000E+00 0. -1.
         -6    2    1    2    0  503  0.10708214349E+03  0.14931996254E+02  0.56135340713E-01  0.20233250239E+03  0.17102306396E+03 0.  0.
        -24    2    3    3    0    0  0.24796051106E+02  0.47644421659E+02  0.41192376512E+02  0.10458085733E+03  0.79721444864E+02 0.  0.
          6    2    1    2  501    0 -0.10708214349E+03 -0.14931996254E+02  0.53990851945E+02  0.20837357380E+03  0.16974976936E+03 0.  0.
         24    2    5    5    0    0 -0.90083517211E+01  0.40826074903E+02  0.15597036800E+02  0.89110812753E+02  0.77133330019E+02 0.  0.
          5    1    5    5  501    0 -0.98073791768E+02 -0.55758071158E+02  0.38393815145E+02  0.11926276105E+03  0.47000000000E+01 0. -1.
        -11    1    6    6    0    0 -0.26714702895E+02  0.51676297325E+02  0.28378742374E+02  0.64726100414E+02  0.00000000000E+00 0.  1.
         12    1    6    6    0    0  0.17706351174E+02 -0.10850222422E+02 -0.12781705574E+02  0.24384712340E+02  0.00000000000E+00 0. -1.
         -5    1    3    3    0  503  0.82286092382E+02 -0.32712425405E+02 -0.41136241171E+02  0.97751645066E+02  0.47000000000E+01 0.  1.
         13    1    4    4    0    0  0.52812853942E+02  0.41185459299E+02  0.33132528847E+02  0.74720840914E+02  0.00000000000E+00 0. -1.
        -14    1    4    4    0    0 -0.28016802835E+02  0.64589623603E+01  0.80598476649E+01  0.29860016415E+02  0.00000000000E+00 0.  1.
</event>
<event>
12    1  0.8747122E-002  0.1815162E+03  0.7818608E-02  0.1166881E+00
         21   -1    0    0  501  502  0.00000000000E+00  0.00000000000E+00  0.11877445928E+03  0.11877445928E+03  0.00000000000E+00 0. -1.
         21   -1    0    0  502  503 -0.00000000000E+00 -0.00000000000E+00 -0.40799507081E+03  0.40799507081E+03  0.00000000000E+00 0. -1.
         -6    2    1    2    0  503 -0.14898165063E+01 -0.52252657835E+02 -0.29494678835E+03  0.34516303873E+03  0.17149739224E+03 0.  0.
        -24    2    3    3    0    0 -0.67066790431E+02 -0.42806086351E+02 -0.17727770791E+03  0.21004205696E+03  0.79749385981E+02 0.  0.
          6    2    1    2  501    0  0.14898165063E+01  0.52252657835E+02  0.57261768117E+01  0.18160649136E+03  0.17382626038E+03 0.  0.
         24    2    5    5    0    0 -0.37253236770E+02  0.25789651603E+02 -0.52570787351E+02  0.10662688809E+03  0.80948723280E+02 0.  0.
          5    1    5    5  501    0  0.38743053276E+02  0.26463006232E+02  0.58296964163E+02  0.74979603270E+02  0.47000000000E+01 0. -1.
        -11    1    6    6    0    0 -0.24589046642E+02 -0.20777540129E+02 -0.48480620948E+02  0.58195343422E+02  0.00000000000E+00 0.  1.
         12    1    6    6    0    0 -0.12664190128E+02  0.46567191732E+02 -0.40901664035E+01  0.48431544664E+02  0.00000000000E+00 0. -1.
         -5    1    3    3    0  503  0.65576973925E+02 -0.94465714840E+01 -0.11766908044E+03  0.13512098176E+03  0.47000000000E+01 0.  1.
         11    1    4    4    0    0 -0.43671710371E+02 -0.66309586120E+02 -0.12881566410E+03  0.15131971060E+03  0.00000000000E+00 0. -1.
        -12    1    4    4    0    0 -0.23395080060E+02  0.23503499769E+02 -0.48462043807E+02  0.58722346363E+02  0.00000000000E+00 0.  1.
</event>
<event>
12    1  0.8747122E-002  0.1945421E+03  0.7818608E-02  0.1154827E+00
         21   -1    0    0  503  502  0.00000000000E+00  0.00000000000E+00  0.52245194390E+03  0.52245194390E+03  0.00000000000E+00 0.  1.
         21   -1    0    0  501  503 -0.00000000000E+00 -0.00000000000E+00 -0.74087186327E+02  0.74087186327E+02  0.00000000000E+00 0. -1.
          6    2    1    2  501    0 -0.23417063597E+02  0.88627034962E+02  0.27801921093E+03  0.33932478588E+03  0.17159113750E+03 0.  0.
         24    2    3    3    0    0 -0.14735339115E+02  0.50732570189E+02  0.28392310207E+03  0.29972290800E+03  0.80190833611E+02 0.  0.
         -6    2    1    2    0  502  0.23417063597E+02 -0.88627034962E+02  0.17034554664E+03  0.25721434435E+03  0.16952434482E+03 0.  0.
        -24    2    5    5    0    0  0.46696887493E+02 -0.67955672327E+01  0.39910310883E+02  0.10141389493E+03  0.80406256816E+02 0.  0.
          5    1    3    3  501    0 -0.86817244820E+01  0.37894464773E+02 -0.59038911405E+01  0.39601877873E+02  0.47000000000E+01 0. -1.
        -11    1    4    4    0    0 -0.40084786520E+02  0.42896194708E+02  0.11917218714E+03  0.13284910169E+03  0.00000000000E+00 0.  1.
         12    1    4    4    0    0  0.25349447405E+02  0.78363754805E+01  0.16475091493E+03  0.16687380632E+03  0.00000000000E+00 0. -1.
         -5    1    5    5    0  502 -0.23279823896E+02 -0.81831467729E+02  0.13043523576E+03  0.15580044942E+03  0.47000000000E+01 0.  1.
         11    1    6    6    0    0 -0.51458637156E+00  0.32019345554E+02  0.11638256335E+02  0.34072750100E+02  0.00000000000E+00 0. -1.
        -12    1    6    6    0    0  0.47211473865E+02 -0.38814912787E+02  0.28272054548E+02  0.67341144833E+02  0.00000000000E+00 0.  1.
</event>
<event>
12    1  0.8747122E-002  0.1745166E+03  0.7818608E-02  0.1173850E+00
         21   -1    0    0  501  502  0.00000000000E+00  0.00000000000E+00  0.10875295166E+03  0.10875295166E+03  0.00000000000E+00 0.  1.
         21   -1    0    0  502  503 -0.00000000000E+00 -0.00000000000E+00 -0.28657655508E+03  0.28657655508E+03  0.00000000000E+00 0.  1.
         -6    2    1    2    0  503 -0.81979100573E+01 -0.25433216056E+02 -0.12738429711E+03  0.21606202165E+03  0.17245864385E+03 0.  0.
        -24    2    3    3    0    0 -0.26127369997E+02 -0.66789920626E+02 -0.13280266787E+03  0.17041893577E+03  0.79136161875E+02 0.  0.
          6    2    1    2  501    0  0.81979100573E+01  0.25433216056E+02 -0.50439306314E+02  0.17926748509E+03  0.16993720423E+03 0.  0.
         24    2    5    5    0    0  0.32409382292E+02 -0.47206218918E+01  0.28914316688E+02  0.90867616234E+02  0.79675803346E+02 0.  0.
          5    1    5    5  501    0 -0.24211472235E+02  0.30153837948E+02 -0.79353623003E+02  0.88399868860E+02  0.47000000000E+01 0. -1.
        -11    1    6    6    0    0  0.23814086754E+02  0.15967229137E+02  0.51571123832E+02  0.59005456930E+02  0.00000000000E+00 0.  1.
         12    1    6    6    0    0  0.85952955383E+01 -0.20687851028E+02 -0.22656807144E+02  0.31862159304E+02  0.00000000000E+00 0. -1.
         -5    1    3    3    0  503  0.17929459939E+02  0.41356704570E+02  0.54183707591E+01  0.45643085876E+02  0.47000000000E+01 0.  1.
         13    1    4    4    0    0 -0.82453320999E-01 -0.39191189520E+02 -0.80329024045E+01  0.40006045238E+02  0.00000000000E+00 0. -1.
        -14    1    4    4    0    0 -0.26044916676E+02 -0.27598731106E+02 -0.12476976546E+03  0.13041289053E+03  0.00000000000E+00 0.  1.
</event>
<event>
12    1  0.8747122E-002  0.2897544E+03  0.7818608E-02  0.1090633E+00
         21   -1    0    0  503  502  0.00000000000E+00  0.00000000000E+00  0.24452704265E+02  0.24452704265E+02  0.00000000000E+00 0. -1.
         21   -1    0    0  501  503 -0.00000000000E+00 -0.00000000000E+00 -0.43461066150E+04  0.43461066150E+04  0.00000000000E+00 0. -1.
          6    2    1    2  501    0  0.86342416276E+02 -0.21478832220E+03 -0.31733811008E+04  0.31865820611E+04  0.17426584482E+03 0.  0.
         24    2    3    3    0    0  0.58727108210E+01 -0.18764423985E+03 -0.21534753840E+04  0.21631359531E+04  0.80349689708E+02 0.  0.
         -6    2    1    2    0  502 -0.86342416276E+02  0.21478832220E+03 -0.11482728099E+04  0.11839772582E+04  0.17228658026E+03 0.  0.
        -24    2    5    5    0    0 -0.48530957863E+02  0.79839121582E+02 -0.29455007388E+03  0.31881508083E+03  0.78445972057E+02 0.  0.
          5    1    3    3  501    0  0.80469705455E+02 -0.27144082351E+02 -0.10199057168E+04  0.10234461079E+04  0.47000000000E+01 0. -1.
        -11    1    4    4    0    0  0.10901633048E+02 -0.27846165013E+02 -0.74782319640E+03  0.74842086260E+03  0.00000000000E+00 0.  1.
         12    1    4    4    0    0 -0.50289222265E+01 -0.15979807484E+03 -0.14056521876E+04  0.14147150905E+04  0.00000000000E+00 0. -1.
         -5    1    5    5    0  502 -0.37811458414E+02  0.13494920062E+03 -0.85372273605E+03  0.86516217739E+03  0.47000000000E+01 0.  1.
         13    1    6    6    0    0 -0.30935817363E+02  0.16489002142E+02 -0.20355923537E+03  0.20655574137E+03  0.00000000000E+00 0. -1.
        -14    1    6    6    0    0 -0.17595140500E+02  0.63350119441E+02 -0.90990838509E+02  0.11225933946E+03  0.00000000000E+00 0.  1.
</event>
<event>
12    1  0.8747122E-002  0.2408318E+03  0.7818608E-02  0.1119266E+00
         21   -1    0    0  501  502  0.00000000000E+00  0.00000000000E+00  0.96830356998E+03  0.96830356998E+03  0.00000000000E+00 0.  1.
         21   -1    0    0  502  503 -0.00000000000E+00 -0.00000000000E+00 -0.95865782166E+02  0.95865782166E+02  0.00000000000E+00 0. -1.
         -6    2    1    2    0  503  0.14334418730E+03 -0.87894521867E+02  0.11004296211E+03  0.26464084405E+03  0.17219848960E+03 0.  0.
        -24    2    3    3    0    0  0.31574923487E+02 -0.41913866992E+02 -0.71685588872E+01  0.96215134578E+02  0.80325686091E+02 0.  0.
          6    2    1    2  501    0 -0.14334418730E+03  0.87894521867E+02  0.76239482571E+03  0.79952850810E+03  0.17241508632E+03 0.  0.
         24    2    5    5    0    0 -0.11647531804E+03  0.12093818452E+03  0.69592792830E+03  0.72044780105E+03  0.80850531573E+02 0.  0.
          5    1    5    5  501    0 -0.26868869257E+02 -0.33043662656E+02  0.66466897403E+02  0.79080707048E+02  0.47000000000E+01 0. -1.
        -11    1    6    6    0    0  0.22866021060E+01  0.12859336186E+02  0.17124601273E+03  0.17174337819E+03  0.00000000000E+00 0.  1.
         12    1    6    6    0    0 -0.11876192015E+03  0.10807884834E+03  0.52468191557E+03  0.54870442286E+03  0.00000000000E+00 0. -1.
         -5    1    3    3    0  503  0.11176926381E+03 -0.45980654875E+02  0.11721152099E+03  0.16842570947E+03  0.47000000000E+01 0.  1.
         13    1    4    4    0    0  0.54484512699E+02 -0.39559759356E+02 -0.19490503379E+02  0.70095765966E+02  0.00000000000E+00 0. -1.
        -14    1    4    4    0    0 -0.22909589212E+02 -0.23541076368E+01  0.12321944492E+02  0.26119368612E+02  0.00000000000E+00 0.  1.
</event>
<event>
12    1  0.8747122E-002  0.2760080E+03  0.7818608E-02  0.1097999E+00
         21   -1    0    0  503  502  0.00000000000E+00  0.00000000000E+00  0.14965528324E+04  0.14965528324E+04  0.00000000000E+00 0. -1.
         21   -1    0    0  501  503 -0.00000000000E+00 -0.00000000000E+00 -0.51976386553E+02  0.51976386553E+02  0.00000000000E+00 0. -1.
          6    2    1    2  501    0 -0.21553044245E+03  0.58264010744E+01  0.60280388580E+03  0.66266157342E+03  0.17105705943E+03 0.  0.
         24    2    3    3    0    0 -0.19751526391E+03  0.56683247715E+02  0.46987102054E+03  0.51911993426E+03  0.80507516104E+02 0.  0.
         -6    2    1    2    0  502  0.21553044245E+03 -0.58264010744E+01  0.84177256009E+03  0.88586764558E+03  0.17231692889E+03 0.  0.
        -24    2    5    5    0    0  0.19820343889E+03 -0.24134246976E+02  0.83047251673E+03  0.85784652401E+03  0.79680566254E+02 0.  0.
          5    1    3    3  501    0 -0.18015178539E+02 -0.50856846640E+02  0.13293286526E+03  0.14354163917E+03  0.47000000000E+01 0. -1.
        -11    1    4    4    0    0 -0.11781224711E+03  0.84249154892E+01  0.18585267579E+03  0.22020881424E+03  0.00000000000E+00 0.  1.
         12    1    4    4    0    0 -0.79703016806E+02  0.48258332226E+02  0.28401834475E+03  0.29891112002E+03  0.00000000000E+00 0. -1.
         -5    1    5    5    0  502  0.17327003566E+02  0.18307845902E+02  0.11300043361E+02  0.28021121571E+02  0.47000000000E+01 0.  1.
         13    1    6    6    0    0  0.89525754022E+02 -0.28842203334E+02  0.24662748628E+03  0.26395425799E+03  0.00000000000E+00 0. -1.
        -14    1    6    6    0    0  0.10867768486E+03  0.47079563579E+01  0.58384503046E+03  0.59389226601E+03  0.00000000000E+00 0.  1.
</event>
<event>
12    1  0.8747122E-002  0.2144617E+03  0.7818608E-02  0.1140590E+00
         21   -1    0    0  503  502  0.00000000000E+00  0.00000000000E+00  0.31342128929E+03  0.31342128929E+03  0.00000000000E+00 0.  1.
         21   -1    0    0  501  503 -0.00000000000E+00 -0.00000000000E+00 -0.13408685550E+04  0.13408685550E+04  0.00000000000E+00 0.  1.
          6    2    1    2  501    0 -0.74510315799E+02  0.68916895406E+02 -0.12954276542E+04  0.13110591206E+04  0.17447602906E+03 0.  0.
         24    2    3    3    0    0 -0.73765351122E+02  0.48762160109E+02 -0.12793780245E+04  0.12848589499E+04  0.78964019653E+02 0.  0.
         -6    2    1    2    0  502  0.74510315799E+02 -0.68916895406E+02  0.26798038849E+03  0.34323072372E+03  0.18892462905E+03 0.  0.
        -24    2    5    5    0    0  0.12184281040E+02 -0.10058122166E+03  0.10275353991E+03  0.16376160199E+03  0.77424372553E+02 0.  0.
          5    1    3    3  501    0 -0.74496467713E+00  0.20154735297E+02 -0.16049629716E+02  0.26200170634E+02  0.47000000000E+01 0. -1.
        -11    1    4    4    0    0 -0.58323271898E+02  0.15016424501E+02 -0.11017889593E+04  0.11034337351E+04  0.00000000000E+00 0.  1.
         12    1    4    4    0    0 -0.15442079223E+02  0.33745735609E+02 -0.17758906521E+03  0.18142521480E+03  0.00000000000E+00 0. -1.
         -5    1    5    5    0  502  0.62326034759E+02  0.31664326258E+02  0.16522684858E+03  0.17946912174E+03  0.47000000000E+01 0.  1.
         11    1    6    6    0    0 -0.20541883575E+02  0.12148058557E+01  0.15911726999E+02  0.26012070086E+02  0.00000000000E+00 0. -1.
        -12    1    6    6    0    0  0.32726164615E+02 -0.10179602752E+03  0.86841812910E+02  0.13774953190E+03  0.00000000000E+00 0.  1.
</event>
<event>
12    1  0.8747122E-002  0.2073844E+03  0.7818608E-02  0.1144689E+00
         21   -1    0    0  503  502  0.00000000000E+00  0.00000000000E+00  0.11758576849E+04  0.11758576849E+04  0.00000000000E+00 0.  1.
         21   -1    0    0  501  503 -0.00000000000E+00 -0.00000000000E+00 -0.36850999804E+02  0.36850999804E+02  0.00000000000E+00 0.  1.
          6    2    1    2  501    0  0.79866834695E+02  0.72432317957E+02  0.46853974370E+03  0.51238442603E+03  0.17715291880E+03 0.  0.
         24    2    3    3    0    0  0.50630006089E+02 -0.49513398964E+01  0.38025532712E+03  0.39130903274E+03  0.77076144266E+02 0.  0.
         -6    2    1    2    0  502 -0.79866834695E+02 -0.72432317957E+02  0.67046694138E+03  0.70032425866E+03  0.17118117833E+03 0.  0.
        -24    2    5    5    0    0 -0.87942473017E+02 -0.94113275036E+01  0.27610000807E+03  0.30084431015E+03  0.80334505962E+02 0.  0.
          5    1    3    3  501    0  0.29236828606E+02  0.77383657853E+02  0.88284416579E+02  0.12107539329E+03  0.47000000000E+01 0. -1.
        -13    1    4    4    0    0  0.35472501001E+02  0.31038952894E+02  0.27566909894E+03  0.27966974637E+03  0.00000000000E+00 0.  1.
         14    1    4    4    0    0  0.15157505089E+02 -0.35990292791E+02  0.10458622818E+03  0.11163928637E+03  0.00000000000E+00 0. -1.
         -5    1    5    5    0  502  0.80756383217E+01 -0.63020990453E+02  0.39436693331E+03  0.39947994851E+03  0.47000000000E+01 0.  1.
         11    1    6    6    0    0 -0.81205647044E+01  0.26666480784E+01  0.15539739235E+03  0.15563227214E+03  0.00000000000E+00 0. -1.
        -12    1    6    6    0    0 -0.79821908313E+02 -0.12077975582E+02  0.12070261572E+03  0.14521203801E+03  0.00000000000E+00 0.  1.
</event>
<event>
12    1  0.8747122E-002  0.1864608E+03  0.7818608E-02  0.1162277E+00
         21   -1    0    0  501  502  0.00000000000E+00  0.00000000000E+00  0.18434238118E+03  0.18434238118E+03  0.00000000000E+00 0.  1.
         21   -1    0    0  502  503 -0.00000000000E+00 -0.00000000000E+00 -0.21355547791E+03  0.21355547791E+03  0.00000000000E+00 0.  1.
         -6    2    1    2    0  503 -0.49344372105E+02 -0.45217069642E+02 -0.85886269584E+02  0.20301463907E+03  0.17134480421E+03 0.  0.
        -24    2    3    3    0    0 -0.74678909474E+02 -0.79103126932E+02 -0.85136407115E+02  0.16043816721E+03  0.81596283445E+02 0.  0.
          6    2    1    2  501    0  0.49344372105E+02  0.45217069642E+02  0.56673172857E+02  0.19488322002E+03  0.17403496912E+03 0.  0.
         24    2    5    5    0    0  0.81641147148E+02 -0.17313969335E+02  0.41468048217E+02  0.12272715077E+03  0.79858024472E+02 0.  0.
          5    1    5    5  501    0 -0.32296775043E+02  0.62531038977E+02  0.15205124639E+02  0.72156069246E+02  0.47000000000E+01 0. -1.
        -13    1    6    6    0    0  0.67470755019E+02 -0.42435238124E+01  0.63986670575E+02  0.93083856218E+02  0.00000000000E+00 0.  1.
         14    1    6    6    0    0  0.14170392129E+02 -0.13070445522E+02 -0.22518622358E+02  0.29643294556E+02  0.00000000000E+00 0. -1.
         -5    1    3    3    0  503  0.25334537369E+02  0.33886057290E+02 -0.74986246996E+00  0.42576471860E+02  0.47000000000E+01 0.  1.
         11    1    4    4    0    0 -0.68307993914E+01  0.16833193138E+02 -0.78127030815E+01  0.19775099013E+02  0.00000000000E+00 0. -1.
        -12    1    4    4    0    0 -0.67848110083E+02 -0.95936320069E+02 -0.77323704033E+02  0.14066306820E+03  0.00000000000E+00 0.  1.
</event>
<event>
12    1  0.8747122E-002  0.2193221E+03  0.7818608E-02  0.1134572E+00
         21   -1    0    0  501  502  0.00000000000E+00  0.00000000000E+00  0.23194145908E+03  0.23194145908E+03  0.00000000000E+00 0.  1.
         21   -1    0    0  502  503 -0.00000000000E+00 -0.00000000000E+00 -0.24279547493E+03  0.24279547493E+03  0.00000000000E+00 0. -1.
         -6    2    1    2    0  503 -0.81817965856E+01 -0.13409670531E+03 -0.97230976769E+02  0.23901855117E+03  0.17212535196E+03 0.  0.
        -24    2    3    3    0    0  0.10447834880E+02 -0.17746464031E+02 -0.89927764515E+02  0.12086666280E+03  0.78087470874E+02 0.  0.
          6    2    1    2  501    0  0.81817965856E+01  0.13409670531E+03  0.86376960915E+02  0.23571838284E+03  0.17335890073E+03 0.  0.
         24    2    5    5    0    0 -0.31257243309E+02  0.15736245343E+03  0.67960454795E+02  0.18614025660E+03  0.65495150225E+02 0.  0.
          5    1    5    5  501    0  0.39439039895E+02 -0.23265748121E+02  0.18416506120E+02  0.49578126236E+02  0.47000000000E+01 0. -1.
        -13    1    6    6    0    0  0.13491543700E+01  0.42881479165E+02 -0.97354529885E+01  0.43993414482E+02  0.00000000000E+00 0.  1.
         14    1    6    6    0    0 -0.32606397679E+02  0.11448097427E+03  0.77695907784E+02  0.14214684212E+03  0.00000000000E+00 0. -1.
         -5    1    3    3    0  503 -0.18629631466E+02 -0.11635024128E+03 -0.73032122535E+01  0.11815188836E+03  0.47000000000E+01 0.  1.
         13    1    4    4    0    0  0.15639354547E+02  0.25440025110E+02 -0.13163518472E+02  0.32635295415E+02  0.00000000000E+00 0. -1.
        -14    1    4    4    0    0 -0.51915196666E+01 -0.43186489141E+02 -0.76764246044E+02  0.88231367389E+02  0.00000000000E+00 0.  1.
</event>
<event>
12    1  0.8747122E-002  0.2182675E+03  0.7818608E-02  0.1135222E+00
         21   -1    0    0  501  502  0.00000000000E+00  0.00000000000E+00  0.86032871837E+02  0.86032871837E+02  0.00000000000E+00 0.  1.
         21   -1    0    0  502  503 -0.00000000000E+00 -0.00000000000E+00 -0.63932903458E+03  0.63932903458E+03  0.00000000000E+00 0.  1.
         -6    2    1    2    0  503  0.11729916588E+03 -0.66652512007E+02 -0.40987823322E+03  0.46437147410E+03  0.17157811113E+03 0.  0.
        -24    2    3    3    0    0  0.43394444927E+02  0.27002830665E+02 -0.22846894746E+03  0.24719723541E+03  0.79348487871E+02 0.  0.
          6    2    1    2  501    0 -0.11729916588E+03  0.66652512007E+02 -0.14341792953E+03  0.26099043232E+03  0.17130572547E+03 0.  0.
         24    2    5    5    0    0 -0.47692089875E+02 -0.22594669324E+02 -0.61949413091E+02  0.12145759183E+03  0.90161867283E+02 0.  0.
          5    1    5    5  501    0 -0.69607076006E+02  0.89247181331E+02 -0.81468516441E+02  0.13953284050E+03  0.47000000000E+01 0. -1.
        -11    1    6    6    0    0 -0.72082792902E+02 -0.16406816932E+02 -0.27672767359E+02  0.78936016669E+02  0.00000000000E+00 0.  1.
         12    1    6    6    0    0  0.24390703027E+02 -0.61878523918E+01 -0.34276645732E+02  0.42521575159E+02  0.00000000000E+00 0. -1.
         -5    1    3    3    0  503  0.73904720954E+02 -0.93655342672E+02 -0.18140928576E+03  0.21717423869E+03  0.47000000000E+01 0.  1.
         11    1    4    4    0    0  0.45463057519E+02  0.23110307996E+02 -0.60319362558E+02  0.78989881846E+02  0.00000000000E+00 0. -1.
        -12    1    4    4    0    0 -0.20686125927E+01  0.38925226684E+01 -0.16814958490E+03  0.16820735357E+03  0.00000000000E+00 0.  1.
</event>
<event>
12    1  0.8747122E-002  0.2025643E+03  0.7818608E-02  0.1147882E+00
         21   -1    0    0  503  502  0.00000000000E+00  0.00000000000E+00  0.20544490847E+04  0.20544490847E+04  0.00000000000E+00 0. -1.
         21   -1    0    0  501  503 -0.00000000000E+00 -0.00000000000E+00 -0.59852620509E+02  0.59852620509E+02  0.00000000000E+00 0. -1.
          6    2    1    2  501    0 -0.74465541043E+01 -0.10422722322E+03  0.13403329653E+03  0.24289346633E+03  0.17353255077E+03 0.  0.
         24    2    3    3    0    0  0.38788231009E+02 -0.37612541935E+02  0.12981860116E+03  0.16156066376E+03  0.79559717761E+02 0.  0.
         -6    2    1    2    0  502  0.74465541043E+01  0.10422722322E+03  0.18605631677E+04  0.18714082389E+04  0.17191489312E+03 0.  0.
        -24    2    5    5    0    0  0.73260415682E+01  0.12916520611E+03  0.17897699885E+04  0.17962039722E+04  0.79591309877E+02 0.  0.
          5    1    3    3  501    0 -0.46234785113E+02 -0.66614681289E+02  0.42146953748E+01  0.81332802575E+02  0.47000000000E+01 0. -1.
        -13    1    4    4    0    0 -0.20068921359E+02 -0.30786006704E+02  0.45078343573E+02  0.58160096910E+02  0.00000000000E+00 0.  1.
         14    1    4    4    0    0  0.58857152367E+02 -0.68265352313E+01  0.84740257587E+02  0.10340056685E+03  0.00000000000E+00 0. -1.
         -5    1    5    5    0  502  0.12051253605E+00 -0.24937982887E+02  0.70793179155E+02  0.75204266692E+02  0.47000000000E+01 0.  1.
         11    1    6    6    0    0  0.27694717106E+02  0.82552690767E+01  0.39428659314E+03  0.39534423526E+03  0.00000000000E+00 0. -1.
        -12    1    6    6    0    0 -0.20368675538E+02  0.12090993703E+03  0.13954833954E+04  0.14008597370E+04  0.00000000000E+00 0.  1.
</event>
<event>
12    1  0.8747122E-002  0.2033403E+03  0.7818608E-02  0.1146967E+00
         21   -1    0    0  501  502  0.00000000000E+00  0.00000000000E+00  0.48387972566E+03  0.48387972566E+03  0.00000000000E+00 0.  1.
         21   -1    0    0  502  503 -0.00000000000E+00 -0.00000000000E+00 -0.85419628364E+02  0.85419628364E+02  0.00000000000E+00 0.  1.
         -6    2    1    2    0  503  0.23477965218E+02  0.10579857584E+03  0.19790138264E+03  0.28374677399E+03  0.17205441291E+03 0.  0.
        -24    2    3    3    0    0  0.53809910722E+01  0.14553393251E+02  0.16639126858E+03  0.18541996632E+03  0.80335255851E+02 0.  0.
          6    2    1    2  501    0 -0.23477965218E+02 -0.10579857584E+03  0.20055871466E+03  0.28555258004E+03  0.17196489304E+03 0.  0.
         24    2    5    5    0    0 -0.21446354951E+02  0.11393575206E+02  0.63046005315E+02  0.10480423859E+03  0.80120970680E+02 0.  0.
          5    1    5    5  501    0 -0.20316102666E+01 -0.11719215104E+03  0.13751270934E+03  0.18074834145E+03  0.47000000000E+01 0. -1.
        -11    1    6    6    0    0 -0.45206528014E+02 -0.15500244572E+02  0.34316497893E+02  0.58834596833E+02  0.00000000000E+00 0.  1.
         12    1    6    6    0    0  0.23760173062E+02  0.26893819777E+02  0.28729507422E+02  0.45969641753E+02  0.00000000000E+00 0. -1.
         -5    1    3    3    0  503  0.18096974146E+02  0.91245182584E+02  0.31510114063E+02  0.98326807669E+02  0.47000000000E+01 0.  1.
         13    1    4    4    0    0 -0.57526697773E+01  0.46130973152E+02  0.11546897698E+03  0.12447587935E+03  0.00000000000E+00 0. -1.
        -14    1    4    4    0    0  0.11133660849E+02 -0.31577579901E+02  0.50922291594E+02  0.60944086977E+02  0.00000000000E+00 0.  1.
</event>
<event>
12    1  0.8747122E-002  0.2298734E+03  0.7818608E-02  0.1128036E+00
         21   -1    0    0  501  502  0.00000000000E+00  0.00000000000E+00  0.80967345043E+03  0.80967345043E+03  0.00000000000E+00 0. -1.
         21   -1    0    0  502  503 -0.00000000000E+00 -0.00000000000E+00 -0.10067441202E+03  0.10067441202E+03  0.00000000000E+00 0.  1.
         -6    2    1    2    0  503 -0.12131191312E+03 -0.91980473731E+02  0.73255619118E+02  0.23432163894E+03  0.16236765975E+03 0.  0.
        -24    2    3    3    0    0 -0.14169162505E+03 -0.94760840896E+02  0.36305194235E+02  0.19177182109E+03  0.80013940412E+02 0.  0.
          6    2    1    2  501    0  0.12131191312E+03  0.91980473731E+02  0.63574341929E+03  0.67602622351E+03  0.17223464195E+03 0.  0.
         24    2    5    5    0    0  0.15418142281E+03  0.75185195513E+02  0.56158525909E+03  0.59305629666E+03  0.83144711243E+02 0.  0.
          5    1    5    5  501    0 -0.32869509696E+02  0.16795278218E+02  0.74158160196E+02  0.82969926852E+02  0.47000000000E+01 0. -1.
        -13    1    6    6    0    0  0.31858591984E+02  0.10875348520E+02  0.24924724044E+03  0.25151029791E+03  0.00000000000E+00 0.  1.
         14    1    6    6    0    0  0.12232283083E+03  0.64309846993E+02  0.31233801866E+03  0.34154599875E+03  0.00000000000E+00 0. -1.
         -5    1    3    3    0  503  0.20379711934E+02  0.27803671652E+01  0.36950424883E+02  0.42549817850E+02  0.47000000000E+01 0.  1.
         11    1    4    4    0    0 -0.70674248166E+01 -0.40977911359E+02 -0.26251731973E+01  0.41665684288E+02  0.00000000000E+00 0. -1.
        -12    1    4    4    0    0 -0.13462420023E+03 -0.53782929537E+02  0.38930367433E+02  0.15010613680E+03  0.00000000000E+00 0.  1.
</event>
<event>
12    1  0.8747122E-002  0.1814015E+03  0.7818608E-02  0.1167643E+00
         21   -1    0    0  501  502  0.00000000000E+00  0.00000000000E+00  0.14337013018E+03  0.14337013018E+03  0.00000000000E+00 0.  1.
         21   -1    0    0  502  503 -0.00000000000E+00 -0.00000000000E+00 -0.29097049217E+03  0.29097049217E+03  0.00000000000E+00 0.  1.
         -6    2    1    2    0  503  0.29408847669E+02 -0.26393616155E+02 -0.17769400176E+03  0.25045989253E+03  0.17202760304E+03 0.  0.
        -24    2    3    3    0    0  0.22927798183E+02 -0.79033121294E+02 -0.15439441347E+03  0.19234034058E+03  0.79907781312E+02 0.  0.
          6    2    1    2  501    0 -0.29408847669E+02  0.26393616155E+02  0.30093639773E+02  0.18388072981E+03  0.17704517036E+03 0.  0.
         24    2    5    5    0    0 -0.42664881807E+02  0.71051785970E+02 -0.19984492141E+02  0.11532430146E+03  0.77663802074E+02 0.  0.
          5    1    5    5  501    0  0.13256034138E+02 -0.44658169815E+02  0.50078131914E+02  0.68556428352E+02  0.47000000000E+01 0. -1.
        -11    1    6    6    0    0  0.15640419270E+02  0.48481126398E+02 -0.11571428902E+02  0.52239260127E+02  0.00000000000E+00 0.  1.
         12    1    6    6    0    0 -0.58305301078E+02  0.22570659572E+02 -0.84130632397E+01  0.63085041336E+02  0.00000000000E+00 0. -1.
         -5    1    3    3    0  503  0.64810494854E+01  0.52639505139E+02 -0.23299588297E+02  0.58119551947E+02  0.47000000000E+01 0.  1.
         13    1    4    4    0    0 -0.18970750332E+02 -0.21913854954E+01 -0.59268809718E+01  0.19995485905E+02  0.00000000000E+00 0. -1.
        -14    1    4    4    0    0  0.41898548515E+02 -0.76841735798E+02 -0.14846753250E+03  0.17234485468E+03  0.00000000000E+00 0.  1.
</event>
<event>
12    1  0.8747122E-002  0.2158366E+03  0.7818608E-02  0.1137321E+00
         21   -1    0    0  501  502  0.00000000000E+00  0.00000000000E+00  0.65584955084E+03  0.65584955084E+03  0.00000000000E+00 0. -1.
         21   -1    0    0  502  503 -0.00000000000E+00 -0.00000000000E+00 -0.81155427294E+02  0.81155427294E+02  0.00000000000E+00 0. -1.
         -6    2    1    2    0  503 -0.13072616215E+03  0.79596160354E+00  0.15487410337E+03  0.26565286158E+03  0.17174251642E+03 0.  0.
        -24    2    3    3    0    0 -0.12589731544E+03 -0.55739267130E+02  0.10454802668E+03  0.18966369233E+03  0.78006579027E+02 0.  0.
          6    2    1    2  501    0  0.13072616215E+03 -0.79596160354E+00  0.41982002018E+03  0.47135211655E+03  0.16980578734E+03 0.  0.
         24    2    5    5    0    0  0.21353055234E+02  0.40212183371E+02  0.23126615184E+03  0.24949902161E+03  0.81809266827E+02 0.  0.
          5    1    5    5  501    0  0.10937310692E+03 -0.41008144975E+02  0.18855386834E+03  0.22185309494E+03  0.47000000000E+01 0. -1.
        -11    1    6    6    0    0  0.28936326215E+02  0.63077747763E+02  0.16560559953E+03  0.17955870303E+03  0.00000000000E+00 0.  1.
         12    1    6    6    0    0 -0.75832709818E+01 -0.22865564392E+02  0.65660552313E+02  0.69940318585E+02  0.00000000000E+00 0. -1.
         -5    1    3    3    0  503 -0.48288467110E+01  0.56535228734E+02  0.50326076690E+02  0.75989169251E+02  0.47000000000E+01 0.  1.
         13    1    4    4    0    0 -0.54496661144E+02 -0.14243017318E+02  0.89456418975E+02  0.10571282095E+03  0.00000000000E+00 0. -1.
        -14    1    4    4    0    0 -0.71400654293E+02 -0.41496249812E+02  0.15091607706E+02  0.83950871378E+02  0.00000000000E+00 0.  1.
</event>
<event>
12    1  0.8747122E-002  0.1779101E+03  0.7818608E-02  0.1172498E+00
         21   -1    0    0  503  502  0.00000000000E+00  0.00000000000E+00  0.31289680414E+03  0.31289680414E+03  0.00000000000E+00 0.  1.
         21   -1    0    0  501  503 -0.00000000000E+00 -0.00000000000E+00 -0.23925183925E+03  0.23925183925E+03  0.00000000000E+00 0.  1.
          6    2    1    2  501    0 -0.15778767874E+02  0.36979711210E+01 -0.17684415291E+03  0.25085025842E+03  0.17717040730E+03 0.  0.
         24    2    3    3    0    0 -0.47144411668E+02 -0.29459626211E+02 -0.17991945133E+03  0.20486355021E+03  0.80669697601E+02 0.  0.
         -6    2    1    2    0  502  0.15778767874E+02 -0.36979711210E+01  0.25048911781E+03  0.30129838497E+03  0.16665315520E+03 0.  0.
        -24    2    5    5    0    0  0.69618120817E+01 -0.40515744737E+02  0.60937559752E+02  0.10794593392E+03  0.79050275537E+02 0.  0.
          5    1    3    3  501    0  0.31365643794E+02  0.33157597332E+02  0.30752984145E+01  0.45986708208E+02  0.47000000000E+01 0. -1.
        -13    1    4    4    0    0 -0.29579193911E+02  0.15035734117E+02 -0.13577423273E+03  0.13976996919E+03  0.00000000000E+00 0.  1.
         14    1    4    4    0    0 -0.17565217758E+02 -0.44495360327E+02 -0.44145218596E+02  0.65093581023E+02  0.00000000000E+00 0. -1.
         -5    1    5    5    0  502  0.88169557926E+01  0.36817773616E+02  0.18955155806E+03  0.19335245105E+03  0.47000000000E+01 0.  1.
         13    1    6    6    0    0 -0.10793339947E+02 -0.60564661746E+02  0.48891089993E+02  0.78580615423E+02  0.00000000000E+00 0. -1.
        -14    1    6    6    0    0  0.17755152028E+02  0.20048917009E+02  0.12046469760E+02  0.29365318498E+02  0.00000000000E+00 0.  1.
</event>
<event>
12    1  0.8747122E-002  0.3021482E+03  0.7818608E-02  0.1084912E+00
         21   -1    0    0  501  502  0.00000000000E+00  0.00000000000E+00  0.55421970159E+03  0.55421970159E+03  0.00000000000E+00 0. -1.
         21   -1    0    0  502  503 -0.00000000000E+00 -0.00000000000E+00 -0.23084632962E+03  0.23084632962E+03  0.00000000000E+00 0. -1.
         -6    2    1    2    0  503 -0.20302656311E+03 -0.12779901446E+03 -0.54540522446E+02  0.30121438402E+03  0.17379028491E+03 0.  0.
        -24    2    3    3    0    0 -0.94906763645E+02 -0.33801377036E+01 -0.53026541782E+02  0.13630734940E+03  0.82153272916E+02 0.  0.
          6    2    1    2  501    0  0.20302656311E+03  0.12779901446E+03  0.37791389442E+03  0.48385164718E+03  0.18368759202E+03 0.  0.
         24    2    5    5    0    0  0.11846106780E+03  0.84524541017E-01  0.23048757424E+03  0.27120423052E+03  0.79963623247E+02 0.  0.
          5    1    5    5  501    0  0.84565495306E+02  0.12771448992E+03  0.14742632018E+03  0.21264741666E+03  0.47000000000E+01 0. -1.
        -13    1    6    6    0    0  0.12567910467E+03  0.14756575022E+02  0.20584242784E+03  0.24162801774E+03  0.00000000000E+00 0.  1.
         14    1    6    6    0    0 -0.72180368630E+01 -0.14672050481E+02  0.24645146403E+02  0.29576212785E+02  0.00000000000E+00 0. -1.
         -5    1    3    3    0  503 -0.10811979947E+03 -0.12441887676E+03 -0.15139806633E+01  0.16490703462E+03  0.47000000000E+01 0.  1.
         13    1    4    4    0    0 -0.85511355479E+02 -0.24253422099E+02 -0.65338807719E+02  0.11031582023E+03  0.00000000000E+00 0. -1.
        -14    1    4    4    0    0 -0.93954081654E+01  0.20873284395E+02  0.12312265936E+02  0.25991529168E+02  0.00000000000E+00 0.  1.
</event>
<event>
12    1  0.8747122E-002  0.2341671E+03  0.7818608E-02  0.1123891E+00
         21   -1    0    0  503  502  0.00000000000E+00  0.00000000000E+00  0.56091060879E+02  0.56091060879E+02  0.00000000000E+00 0.  1.
         21   -1    0    0  501  503 -0.00000000000E+00 -0.00000000000E+00 -0.97742423123E+03  0.97742423123E+03  0.00000000000E+00 0.  1.
          6    2    1    2  501    0  0.15780293913E+03 -0.16461318233E+02 -0.43071337321E+03  0.49025323583E+03  0.17222509337E+03 0.  0.
         24    2    3    3    0    0  0.94491935948E+02 -0.94336128387E+01 -0.40093625670E+03  0.41978027339E+03  0.80298673616E+02 0.  0.
         -6    2    1    2    0  502 -0.15780293913E+03  0.16461318233E+02 -0.49061979714E+03  0.54326205628E+03  0.17103547540E+03 0.  0.
        -24    2    5    5    0    0 -0.16376237488E+03 -0.31326707102E+02 -0.38044070262E+03  0.42292613849E+03  0.79573314646E+02 0.  0.
          5    1    3    3  501    0  0.63311003184E+02 -0.70277053939E+01 -0.29777116512E+02  0.70472962440E+02  0.47000000000E+01 0. -1.
        -11    1    4    4    0    0  0.59445462011E+02  0.45431158628E+01 -0.99517612925E+02  0.11600930195E+03  0.00000000000E+00 0.  1.
         12    1    4    4    0    0  0.35046473937E+02 -0.13976728701E+02 -0.30141864377E+03  0.30377097145E+03  0.00000000000E+00 0. -1.
         -5    1    5    5    0  502  0.59594357506E+01  0.47788025335E+02 -0.11017909452E+03  0.12033591779E+03  0.47000000000E+01 0.  1.
         11    1    6    6    0    0  0.44366368666E+01 -0.22045020968E+01  0.97954832414E+00  0.50500585245E+01  0.00000000000E+00 0. -1.
        -12    1    6    6    0    0 -0.16819901175E+03 -0.29122205005E+02 -0.38142025095E+03  0.41787607997E+03  0.00000000000E+00 0.  1.
</event>
<event>
12    1  0.8747122E-002  0.1790583E+03  0.7818608E-02  0.1169487E+00
         21   -1    0    0  501  502  0.00000000000E+00  0.00000000000E+00  0.13358074385E+04  0.13358074385E+04  0.00000000000E+00 0.  1.
         21   -1    0    0  502  503 -0.00000000000E+00 -0.00000000000E+00 -0.25484192621E+02  0.25484192621E+02  0.00000000000E+00 0.  1.
         -6    2    1    2    0  503 -0.10731102516E+02  0.41111587442E+02  0.47466498301E+03  0.50731522127E+03  0.17394415326E+03 0.  0.
        -24    2    3    3    0    0  0.32866037135E+02  0.43565559502E+02  0.44437751183E+03  0.45396586818E+03  0.75069981237E+02 0.  0.
          6    2    1    2  501    0  0.10731102516E+02 -0.41111587442E+02  0.83565826289E+03  0.85397640987E+03  0.17072099196E+03 0.  0.
         24    2    5    5    0    0 -0.15359274826E+02 -0.67228511869E+02  0.77779514409E+03  0.78517937470E+03  0.82375871167E+02 0.  0.
          5    1    5    5  501    0  0.26090377342E+02  0.26116924427E+02  0.57863118803E+02  0.68797035175E+02  0.47000000000E+01 0. -1.
        -11    1    6    6    0    0  0.30989796509E+02 -0.31098690398E+02  0.22301827813E+03  0.22729858867E+03  0.00000000000E+00 0.  1.
         12    1    6    6    0    0 -0.46349071335E+02 -0.36129821471E+02  0.55477686596E+03  0.55788078602E+03  0.00000000000E+00 0. -1.
         -5    1    3    3    0  503 -0.43597139651E+02 -0.24539720590E+01  0.30287471185E+02  0.53349353092E+02  0.47000000000E+01 0.  1.
         13    1    4    4    0    0  0.35768269302E+02  0.12314143222E+02  0.82839221449E+02  0.91067797944E+02  0.00000000000E+00 0. -1.
        -14    1    4    4    0    0 -0.29022321672E+01  0.31251416280E+02  0.36153829038E+03  0.36289807023E+03  0.00000000000E+00 0.  1.
</event>
<event>
12    1  0.8747122E-002  0.2293983E+03  0.7818608E-02  0.1127120E+00
         21   -1    0    0  501  502  0.00000000000E+00  0.00000000000E+00  0.22171206548E+03  0.22171206548E+03  0.00000000000E+00 0. -1.
         21   -1    0    0  502  503 -0.00000000000E+00 -0.00000000000E+00 -0.41924506818E+03  0.41924506818E+03  0.00000000000E+00 0. -1.
         -6    2    1    2    0  503  0.15202669423E+03 -0.56706362496E+01 -0.31008823856E+03  0.38571787863E+03  0.17169535325E+03 0.  0.
        -24    2    3    3    0    0  0.90086680330E+02 -0.11235695531E+02 -0.29833817738E+03  0.32225380104E+03  0.81240343263E+02 0.  0.
          6    2    1    2  501    0 -0.15202669423E+03  0.56706362496E+01  0.11255523586E+03  0.25523925502E+03  0.17127207685E+03 0.  0.
         24    2    5    5    0    0 -0.31299656702E+02  0.25117729938E+02  0.97596863862E+02  0.13195482803E+03  0.79223480981E+02 0.  0.
          5    1    5    5  501    0 -0.12072703753E+03 -0.19447093688E+02  0.14958371996E+02  0.12328442699E+03  0.47000000000E+01 0. -1.
        -13    1    6    6    0    0 -0.42025131757E+01  0.31652459062E+02  0.15749978971E+01  0.31969045967E+02  0.00000000000E+00 0.  1.
         14    1    6    6    0    0 -0.27097143526E+02 -0.65347291244E+01  0.96021865965E+02  0.99985782067E+02  0.00000000000E+00 0. -1.
         -5    1    3    3    0  503  0.61940013905E+02  0.55650592815E+01 -0.11750061179E+02  0.63464077595E+02  0.47000000000E+01 0.  1.
         13    1    4    4    0    0  0.66875637161E+02 -0.27177811028E+02 -0.10837955822E+03  0.13021947972E+03  0.00000000000E+00 0. -1.
        -14    1    4    4    0    0  0.23211043169E+02  0.15942115497E+02 -0.18995861916E+03  0.19203432132E+03  0.00000000000E+00 0.  1.
</event>
<event>
12    1  0.8747122E-002  0.1748554E+03  0.7818608E-02  0.1173333E+00
         21   -1    0    0  503  502  0.00000000000E+00  0.00000000000E+00  0.43044777906E+02  0.43044777906E+02  0.00000000000E+00 0.  1.
         21   -1    0    0  501  503 -0.00000000000E+00 -0.00000000000E+00 -0.18061264508E+04  0.18061264508E+04  0.00000000000E+00 0.  1.
          6    2    1    2  501    0 -0.20793501275E+02 -0.13266995057E+02 -0.16059052446E+04  0.16153965672E+04  0.17310699592E+03 0.  0.
         24    2    3    3    0    0 -0.59686647691E+02  0.14411802350E+02 -0.58630514258E+03  0.59466876284E+03  0.78147433307E+02 0.  0.
         -6    2    1    2    0  502  0.20793501275E+02  0.13266995057E+02 -0.15717642830E+03  0.23377466145E+03  0.17128274831E+03 0.  0.
        -24    2    5    5    0    0  0.44448404173E+01 -0.53931311718E+02 -0.56995489190E+02  0.11195019057E+03  0.79724628502E+02 0.  0.
          5    1    3    3  501    0  0.38893146416E+02 -0.27678797406E+02 -0.10196001020E+04  0.10207278044E+04  0.47000000000E+01 0. -1.
        -13    1    4    4    0    0 -0.43029591463E+02  0.26279653823E+01 -0.55860010756E+03  0.56026112850E+03  0.00000000000E+00 0.  1.
         14    1    4    4    0    0 -0.16657056228E+02  0.11783836967E+02 -0.27705035016E+02  0.34407634343E+02  0.00000000000E+00 0. -1.
         -5    1    5    5    0  502  0.16348660858E+02  0.67198306774E+02 -0.10018093912E+03  0.12182447089E+03  0.47000000000E+01 0.  1.
         11    1    6    6    0    0  0.18738855089E+02 -0.50546756794E+02 -0.72660970314E+02  0.90475056891E+02  0.00000000000E+00 0. -1.
        -12    1    6    6    0    0 -0.14294014672E+02 -0.33845549237E+01  0.15665481125E+02  0.21475133675E+02  0.00000000000E+00 0.  1.
</event>
<event>
12    1  0.8747122E-002  0.2820194E+03  0.7818608E-02  0.1095133E+00
         21   -1    0    0  501  502  0.00000000000E+00  0.00000000000E+00  0.11226559323E+03  0.11226559323E+03  0.00000000000E+00 0. -1.
         21   -1    0    0  502  503 -0.00000000000E+00 -0.00000000000E+00 -0.88531294481E+03  0.88531294481E+03  0.00000000000E+00 0. -1.
         -6    2    1    2    0  503  0.21342976285E+03  0.66257628428E+02 -0.61781198633E+03  0.67913665310E+03  0.17202501602E+03 0.  0.
        -24    2    3    3    0    0  0.94288417042E+02  0.96830716037E+02 -0.31569493920E+03  0.35290640599E+03  0.81321237034E+02 0.  0.
          6    2    1    2  501    0 -0.21342976285E+03 -0.66257628428E+02 -0.15523536525E+03  0.31844188494E+03  0.16542333108E+03 0.  0.
         24    2    5    5    0    0 -0.19370192040E+03 -0.81492637609E+02 -0.17587872129E+03  0.28573819369E+03  0.80941378682E+02 0.  0.
          5    1    5    5  501    0 -0.19727842454E+02  0.15235009182E+02  0.20643356041E+02  0.32703691248E+02  0.47000000000E+01 0. -1.
        -13    1    6    6    0    0 -0.77403999457E+02 -0.36431859436E+01 -0.10010449124E+03  0.12659210521E+03  0.00000000000E+00 0.  1.
         14    1    6    6    0    0 -0.11629792094E+03 -0.77849451666E+02 -0.75774230053E+02  0.15914608848E+03  0.00000000000E+00 0. -1.
         -5    1    3    3    0  503  0.11914134581E+03 -0.30573087609E+02 -0.30211704713E+03  0.32623024712E+03  0.47000000000E+01 0.  1.
         13    1    4    4    0    0  0.86738370606E+02  0.49951737855E+02 -0.26583250846E+03  0.28405218465E+03  0.00000000000E+00 0. -1.
        -14    1    4    4    0    0  0.75500464363E+01  0.46878978182E+02 -0.49862430742E+02  0.68854221338E+02  0.00000000000E+00 0.  1.
</event>
<event>
12    1  0.8747122E-002  0.2011627E+03  0.7818608E-02  0.1148784E+00
         21   -1    0    0  503  502  0.00000000000E+00  0.00000000000E+00  0.12778369529E+04  0.12778369529E+04  0.00000000000E+00 0.  1.
         21   -1    0    0  501  503 -0.00000000000E+00 -0.00000000000E+00 -0.35891376366E+02  0.35891376366E+02  0.00000000000E+00 0. -1.
          6    2    1    2  501    0  0.72936676248E+02  0.76694915046E+02  0.39504768800E+03  0.44326726673E+03  0.17094246174E+03 0.  0.
         24    2    3    3    0    0  0.16651015784E+02  0.60192132824E+02  0.36073096583E+03  0.37514865830E+03  0.81910542233E+02 0.  0.
         -6    2    1    2    0  502 -0.72936676248E+02 -0.76694915046E+02  0.84689788853E+03  0.87046106253E+03  0.17106887224E+03 0.  0.
        -24    2    5    5    0    0 -0.37719449309E+02 -0.14183894405E+02  0.19304647561E+03  0.21266805485E+03  0.79604146196E+02 0.  0.
          5    1    3    3  501    0  0.56285660464E+02  0.16502782222E+02  0.34316722164E+02  0.68118608434E+02  0.47000000000E+01 0. -1.
        -13    1    4    4    0    0 -0.26486762916E+02  0.86341212031E+01  0.50077861241E+02  0.57305225287E+02  0.00000000000E+00 0.  1.
         14    1    4    4    0    0  0.43137778700E+02  0.51558011621E+02  0.31065310459E+03  0.31784343301E+03  0.00000000000E+00 0. -1.
         -5    1    5    5    0  502 -0.35217226939E+02 -0.62511020642E+02  0.65385141292E+03  0.65779300768E+03  0.47000000000E+01 0.  1.
         11    1    6    6    0    0 -0.42819910003E+02  0.22226068976E+02  0.14037598247E+03  0.14843503390E+03  0.00000000000E+00 0. -1.
        -12    1    6    6    0    0  0.51004606942E+01 -0.36409963380E+02  0.52670493142E+02  0.64233020951E+02  0.00000000000E+00 0.  1.
</event>
<event>
12    1  0.8747122E-002  0.3171929E+03  0.7818608E-02  0.1077029E+00
         21   -1    0    0  501  502  0.00000000000E+00  0.00000000000E+00  0.65127442380E+03  0.65127442380E+03  0.00000000000E+00 0. -1.
         21   -1    0    0  502  503 -0.00000000000E+00 -0.00000000000E+00 -0.16087124167E+03  0.16087124167E+03  0.00000000000E+00 0. -1.
         -6    2    1    2    0  503  0.23397543795E+03  0.12558902149E+03  0.32797419188E+03  0.45578277247E+03  0.17220266332E+03 0.  0.
        -24    2    3    3    0    0  0.13722541777E+03  0.10584594203E+03  0.11927281519E+03  0.22485267433E+03  0.79363354166E+02 0.  0.
          6    2    1    2  501    0 -0.23397543795E+03 -0.12558902149E+03  0.16242899025E+03  0.35636289300E+03  0.17347687670E+03 0.  0.
         24    2    5    5    0    0 -0.21560586713E+03 -0.14454041236E+03  0.17813673287E+03  0.32529169209E+03  0.81878987529E+02 0.  0.
          5    1    5    5  501    0 -0.18369570823E+02  0.18951390870E+02 -0.15707742616E+02  0.31071200914E+02  0.47000000000E+01 0. -1.
        -11    1    6    6    0    0 -0.70078781420E+02 -0.29965684986E+02  0.13343748948E+02  0.77375923374E+02  0.00000000000E+00 0.  1.
         12    1    6    6    0    0 -0.14552708571E+03 -0.11457472737E+03  0.16479298392E+03  0.24791576871E+03  0.00000000000E+00 0. -1.
         -5    1    3    3    0  503  0.96750020182E+02  0.19743079457E+02  0.20870137669E+03  0.23093009813E+03  0.47000000000E+01 0.  1.
         13    1    4    4    0    0  0.58072955916E+02  0.59273767361E+02  0.10185478773E+03  0.13137825349E+03  0.00000000000E+00 0. -1.
        -14    1    4    4    0    0  0.79152461856E+02  0.46572174671E+02  0.17418027455E+02  0.93474420843E+02  0.00000000000E+00 0.  1.
</event>
<event>
12    1  0.8747122E-002  0.3549224E+03  0.7818608E-02  0.1060635E+00
         21   -1    0    0  501  502  0.00000000000E+00  0.00000000000E+00  0.71317295808E+03  0.71317295808E+03  0.00000000000E+00 0.  1.
         21   -1    0    0  502  503 -0.00000000000E+00 -0.00000000000E+00 -0.21374568765E+03  0.21374568765E+03  0.00000000000E+00 0.  1.
         -6    2    1    2    0  503  0.30813535737E+03  0.39156292644E+02  0.44305923425E+03  0.56754800596E+03  0.17125606646E+03 0.  0.
        -24    2    3    3    0    0  0.13433557469E+03  0.28090901986E+01  0.30742662795E+03  0.34406248634E+03  0.76249100470E+02 0.  0.
          6    2    1    2  501    0 -0.30813535737E+03 -0.39156292644E+02  0.56368036180E+02  0.35937063976E+03  0.17172445226E+03 0.  0.
         24    2    5    5    0    0 -0.22068880555E+03  0.28520879517E+02  0.22307235701E+01  0.23616334422E+03  0.79064274891E+02 0.  0.
          5    1    5    5  501    0 -0.87446551823E+02 -0.67677172161E+02  0.54137312610E+02  0.12320729554E+03  0.47000000000E+01 0. -1.
        -11    1    6    6    0    0 -0.46754919124E+02  0.53688871280E+01 -0.32627983937E+02  0.57266331706E+02  0.00000000000E+00 0.  1.
         12    1    6    6    0    0 -0.17393388643E+03  0.23151992389E+02  0.34858707507E+02  0.17889701252E+03  0.00000000000E+00 0. -1.
         -5    1    3    3    0  503  0.17379978269E+03  0.36347202445E+02  0.13563260631E+03  0.22348551962E+03  0.47000000000E+01 0.  1.
         11    1    4    4    0    0  0.63557412709E+02 -0.35723435476E+02  0.16560289771E+03  0.18094205781E+03  0.00000000000E+00 0. -1.
        -12    1    4    4    0    0  0.70778161978E+02  0.38532525675E+02  0.14182373023E+03  0.16312042853E+03  0.00000000000E+00 0.  1.
</event>
<event>
12    1  0.8747122E-002  0.2005777E+03  0.7818608E-02  0.1149401E+00
         21   -1    0    0  501  502  0.00000000000E+00  0.00000000000E+00  0.74232364566E+02  0.74232364566E+02  0.00000000000E+00 0. -1.
         21   -1    0    0  502  503 -0.00000000000E+00 -0.00000000000E+00 -0.56458610534E+03  0.56458610534E+03  0.00000000000E+00 0. -1.
         -6    2    1    2    0  503 -0.10334848667E+03  0.20966811348E+01 -0.31216894723E+03  0.37105369971E+03  0.17188976318E+03 0.  0.
        -24    2    3    3    0    0 -0.10940446935E+03  0.13626192547E+01 -0.32719434733E+03  0.35416978958E+03  0.80055632417E+02 0.  0.
          6    2    1    2  501    0  0.10334848667E+03 -0.20966811348E+01 -0.17818479354E+03  0.26776477020E+03  0.17106386451E+03 0.  0.
         24    2    5    5    0    0  0.61600864107E+01  0.38699327114E+02 -0.11475493043E+03  0.14465775590E+03  0.78877041664E+02 0.  0.
          5    1    5    5  501    0  0.97188400256E+02 -0.40796008249E+02 -0.63429863113E+02  0.12310701429E+03  0.47000000000E+01 0. -1.
        -11    1    6    6    0    0  0.16982552990E+02  0.56968580013E+02 -0.10631839927E+03  0.12180898258E+03  0.00000000000E+00 0.  1.
         12    1    6    6    0    0 -0.10822466579E+02 -0.18269252899E+02 -0.84365311624E+01  0.22848773323E+02  0.00000000000E+00 0. -1.
         -5    1    3    3    0  503  0.60559826800E+01  0.73406188009E+00  0.15025400100E+02  0.16883910129E+02  0.47000000000E+01 0.  1.
         11    1    4    4    0    0 -0.40267378887E+02 -0.11523397457E+02 -0.38020461319E+02  0.56566827472E+02  0.00000000000E+00 0. -1.
        -12    1    4    4    0    0 -0.69137090460E+02  0.12886016712E+02 -0.28917388602E+03  0.29760296211E+03  0.00000000000E+00 0.  1.
</event>
<event>
12    1  0.8747122E-002  0.1849127E+03  0.7818608E-02  0.1164746E+00
         21   -1    0    0  503  502  0.00000000000E+00  0.00000000000E+00  0.11029566249E+04  0.11029566249E+04  0.00000000000E+00 0.  1.
         21   -1    0    0  501  503 -0.00000000000E+00 -0.00000000000E+00 -0.35410443485E+02  0.35410443485E+02  0.00000000000E+00 0.  1.
          6    2    1    2  501    0 -0.39325962858E+02 -0.45987408786E+02  0.31717837773E+03  0.36714412945E+03  0.17473212461E+03 0.  0.
         24    2    3    3    0    0  0.92321861909E+01 -0.59686718381E+02  0.88319065558E+02  0.13274225299E+03  0.78565328066E+02 0.  0.
         -6    2    1    2    0  502  0.39325962858E+02  0.45987408786E+02  0.75036780371E+03  0.77122293896E+03  0.16754583733E+03 0.  0.
        -24    2    5    5    0    0  0.59088527475E+02  0.77171002431E+02  0.39453486117E+03  0.41344905999E+03  0.76390777156E+02 0.  0.
          5    1    3    3  501    0 -0.48558149049E+02  0.13699309596E+02  0.22885931217E+03  0.23440187646E+03  0.47000000000E+01 0. -1.
        -11    1    4    4    0    0 -0.28658241520E+02 -0.17345941796E+02  0.81435127779E+01  0.34474531239E+02  0.00000000000E+00 0.  1.
         12    1    4    4    0    0  0.37890427711E+02 -0.42340776586E+02  0.80175552780E+02  0.98267721749E+02  0.00000000000E+00 0. -1.
         -5    1    5    5    0  502 -0.19762564617E+02 -0.31183593646E+02  0.35583294254E+03  0.35777387897E+03  0.47000000000E+01 0.  1.
         13    1    6    6    0    0 -0.13083472282E+02  0.52945127989E+01  0.11634726747E+03  0.11720023789E+03  0.00000000000E+00 0. -1.
        -14    1    6    6    0    0  0.72171999757E+02  0.71876489632E+02  0.27818759370E+03  0.29624882210E+03  0.00000000000E+00 0.  1.
</event>
<event>
12    1  0.8747122E-002  0.1788718E+03  0.7818608E-02  0.1169258E+00
         21   -1    0    0  503  502  0.00000000000E+00  0.00000000000E+00  0.58173419044E+02  0.58173419044E+02  0.00000000000E+00 0. -1.
         21   -1    0    0  501  503 -0.00000000000E+00 -0.00000000000E+00 -0.57189066721E+03  0.57189066721E+03  0.00000000000E+00 0. -1.
          6    2    1    2  501    0  0.46017650963E+02 -0.35324608962E+01 -0.18818743597E+03  0.25862797487E+03  0.17130036733E+03 0.  0.
         24    2    3    3    0    0  0.84450895089E+02  0.66979300121E+01 -0.18469873524E+03  0.21842802232E+03  0.80127162603E+02 0.  0.
         -6    2    1    2    0  502 -0.46017650963E+02  0.35324608962E+01 -0.32552981219E+03  0.37143611138E+03  0.17281499858E+03 0.  0.
        -24    2    5    5    0    0 -0.28005777792E+02 -0.61723425604E+02 -0.24120793644E+03  0.26320013295E+03  0.80615981809E+02 0.  0.
          5    1    3    3  501    0 -0.38433244126E+02 -0.10230390908E+02 -0.34887007326E+01  0.40199952550E+02  0.47000000000E+01 0. -1.
        -11    1    4    4    0    0  0.51817774225E+02 -0.14352576109E+02 -0.16756907732E+03  0.17598429998E+03  0.00000000000E+00 0.  1.
         12    1    4    4    0    0  0.32633120864E+02  0.21050506121E+02 -0.17129657921E+02  0.42443722337E+02  0.00000000000E+00 0. -1.
         -5    1    5    5    0  502 -0.18011873171E+02  0.65255886500E+02 -0.84321875747E+02  0.10823597843E+03  0.47000000000E+01 0.  1.
         11    1    6    6    0    0 -0.29387705965E+01 -0.11233306041E+01 -0.15426670216E+03  0.15429878042E+03  0.00000000000E+00 0. -1.
        -12    1    6    6    0    0 -0.25067007195E+02 -0.60600095000E+02 -0.86941234288E+02  0.10890135253E+03  0.00000000000E+00 0.  1.
</event>
<event>
12    1  0.8747122E-002  0.2300666E+03  0.7818608E-02  0.1126999E+00
         21   -1    0    0  501  502  0.00000000000E+00  0.00000000000E+00  0.20595576824E+04  0.20595576824E+04  0.00000000000E+00 0.  1.
         21   -1    0    0  502  503 -0.00000000000E+00 -0.00000000000E+00 -0.53302037113E+02  0.53302037113E+02  0.00000000000E+00 0. -1.
         -6    2    1    2    0  503  0.82291161447E+02 -0.12680949581E+03  0.23699597236E+03  0.32870434115E+03  0.17037303042E+03 0.  0.
        -24    2    3    3    0    0  0.90987532415E+02 -0.15385638436E+03  0.18267978129E+03  0.26722670569E+03  0.78023661041E+02 0.  0.
          6    2    1    2  501    0 -0.82291161447E+02  0.12680949581E+03  0.17692596729E+04  0.17841553783E+04  0.17343050602E+03 0.  0.
         24    2    5    5    0    0 -0.33253363147E+02  0.12899573539E+03  0.16047990414E+04  0.16124612473E+04  0.83100090133E+02 0.  0.
          5    1    5    5  501    0 -0.49037798301E+02 -0.21862395787E+01  0.16446063147E+03  0.17169413097E+03  0.47000000000E+01 0. -1.
        -13    1    6    6    0    0  0.63396143477E+01  0.79670622908E+02  0.12091417583E+04  0.12117802567E+04  0.00000000000E+00 0.  1.
         14    1    6    6    0    0 -0.39592977494E+02  0.49325112478E+02  0.39565728307E+03  0.40068099061E+03  0.00000000000E+00 0. -1.
         -5    1    3    3    0  503 -0.86963709676E+01  0.27046888551E+02  0.54316191077E+02  0.61477635458E+02  0.47000000000E+01 0.  1.
         13    1    4    4    0    0  0.85319782847E+02 -0.99669120414E+02  0.87964642079E+02  0.15795941620E+03  0.00000000000E+00 0. -1.
        -14    1    4    4    0    0  0.56677495680E+01 -0.54187263945E+02  0.94715139207E+02  0.10926728950E+03  0.00000000000E+00 0.  1.
</event>
<event>
12    1  0.8747122E-002  0.2073347E+03  0.7818608E-02  0.1144021E+00
         21   -1    0    0  503  502  0.00000000000E+00  0.00000000000E+00  0.40566403080E+02  0.40566403080E+02  0.00000000000E+00 0. -1.
         21   -1    0    0  501  503 -0.00000000000E+00 -0.00000000000E+00 -0.12058709756E+04  0.12058709756E+04  0.00000000000E+00 0. -1.
          6    2    1    2  501    0 -0.67233156676E+02  0.92759740110E+02 -0.80767557836E+03  0.83386300740E+03  0.17280916787E+03 0.  0.
         24    2    3    3    0    0  0.15857301409E+02  0.24778130562E+02 -0.20369232257E+03  0.22039468162E+03  0.78853304640E+02 0.  0.
         -6    2    1    2    0  502  0.67233156676E+02 -0.92759740110E+02 -0.35762899417E+03  0.41257437128E+03  0.17086382773E+03 0.  0.
        -24    2    5    5    0    0  0.34822732757E+02 -0.29617282605E+02 -0.31707657763E+03  0.33069644993E+03  0.82053517702E+02 0.  0.
          5    1    3    3  501    0 -0.83090458085E+02  0.67981609548E+02 -0.60398325579E+03  0.61346832578E+03  0.47000000000E+01 0. -1.
        -11    1    4    4    0    0  0.17015002541E+02  0.50529601339E+02 -0.16875230071E+03  0.17697482848E+03  0.00000000000E+00 0.  1.
         12    1    4    4    0    0 -0.11577011322E+01 -0.25751470776E+02 -0.34940021862E+02  0.43419853140E+02  0.00000000000E+00 0. -1.
         -5    1    5    5    0  502  0.32410423919E+02 -0.63142457506E+02 -0.40552416541E+02  0.81877921357E+02  0.47000000000E+01 0.  1.
         11    1    6    6    0    0  0.19638194242E+02 -0.33086687679E+02 -0.49633813548E+02  0.62800501766E+02  0.00000000000E+00 0. -1.
        -12    1    6    6    0    0  0.15184538514E+02  0.34694050747E+01 -0.26744276408E+03  0.26789594816E+03  0.00000000000E+00 0.  1.
</event>
<event>
12    1  0.8747122E-002  0.3059799E+03  0.7818608E-02  0.1082400E+00
         21   -1    0    0  503  502  0.00000000000E+00  0.00000000000E+00  0.22189908864E+03  0.22189908864E+03  0.00000000000E+00 0. -1.
         21   -1    0    0  501  503 -0.00000000000E+00 -0.00000000000E+00 -0.55312378071E+03  0.55312378071E+03  0.00000000000E+00 0.  1.
          6    2    1    2  501    0 -0.10650066686E+03 -0.22927104033E+03  0.23829208402E+02  0.30690636137E+03  0.17238353025E+03 0.  0.
         24    2    3    3    0    0 -0.13199278604E+03 -0.13659978450E+03  0.38635103049E+02  0.20954561818E+03  0.79593330250E+02 0.  0.
         -6    2    1    2    0  502  0.10650066686E+03  0.22927104033E+03 -0.35505390047E+03  0.46811650798E+03  0.17076940835E+03 0.  0.
        -24    2    5    5    0    0  0.61265852843E+02  0.12988052008E+03 -0.30720691665E+03  0.34880143024E+03  0.81632676539E+02 0.  0.
          5    1    3    3  501    0  0.25492119177E+02 -0.92671255836E+02 -0.14805894647E+02  0.97360743191E+02  0.47000000000E+01 0. -1.
        -11    1    4    4    0    0 -0.63555319237E+02 -0.32712870434E+02  0.45869992729E+02  0.84932130130E+02  0.00000000000E+00 0.  1.
         12    1    4    4    0    0 -0.68437466800E+02 -0.10388691406E+03 -0.72348896798E+01  0.12461348805E+03  0.00000000000E+00 0. -1.
         -5    1    5    5    0  502  0.45234814017E+02  0.99390520254E+02 -0.47846983816E+02  0.11931507774E+03  0.47000000000E+01 0.  1.
         11    1    6    6    0    0 -0.13188084919E+02  0.72348098998E+01 -0.69841427671E+02  0.71442935811E+02  0.00000000000E+00 0. -1.
        -12    1    6    6    0    0  0.74453937762E+02  0.12264571018E+03 -0.23736548898E+03  0.27735849443E+03  0.00000000000E+00 0.  1.
</event>
<event>
12    1  0.8747122E-002  0.2123313E+03  0.7818608E-02  0.1139925E+00
         21   -1    0    0  501  502  0.00000000000E+00  0.00000000000E+00  0.29887033418E+02  0.29887033418E+02  0.00000000000E+00 0.  1.
         21   -1    0    0  502  503 -0.00000000000E+00 -0.00000000000E+00 -0.19891384300E+04  0.19891384300E+04  0.00000000000E+00 0. -1.
         -6    2    1    2    0  503 -0.42012348963E+02 -0.11660749689E+03 -0.14777263461E+04  0.14927641558E+04  0.17119382356E+03 0.  0.
        -24    2    3    3    0    0 -0.23618747460E+02 -0.13225133971E+03 -0.83258366476E+03  0.84715264442E+03  0.80148499929E+02 0.  0.
          6    2    1    2  501    0  0.42012348963E+02  0.11660749689E+03 -0.48152505052E+03  0.52626130761E+03  0.17240140316E+03 0.  0.
         24    2    5    5    0    0 -0.40724360493E+01  0.11995088094E+03 -0.23879561181E+03  0.27912843638E+03  0.80526649009E+02 0.  0.
          5    1    5    5  501    0  0.46084785013E+02 -0.33433840559E+01 -0.24272943871E+03  0.24713287123E+03  0.47000000000E+01 0. -1.
        -13    1    6    6    0    0  0.22978698928E+02  0.19334005572E+02 -0.10694054725E+03  0.11107702293E+03  0.00000000000E+00 0.  1.
         14    1    6    6    0    0 -0.27051134978E+02  0.10061687537E+03 -0.13185506456E+03  0.16805141345E+03  0.00000000000E+00 0. -1.
         -5    1    3    3    0  503 -0.18393601504E+02  0.15643842826E+02 -0.64514268131E+03  0.64561151139E+03  0.47000000000E+01 0.  1.
         13    1    4    4    0    0 -0.11577319711E+00 -0.62841549102E+02 -0.60038445135E+03  0.60366428015E+03  0.00000000000E+00 0. -1.
        -14    1    4    4    0    0 -0.23502974263E+02 -0.69409790611E+02 -0.23219921340E+03  0.24348836427E+03  0.00000000000E+00 0.  1.
</event>
<event>
12    1  0.8747122E-002  0.2540170E+03  0.7818608E-02  0.1111095E+00
         21   -1    0    0  501  502  0.00000000000E+00  0.00000000000E+00  0.49422414734E+03  0.49422414734E+03  0.00000000000E+00 0. -1.
         21   -1    0    0  502  503 -0.00000000000E+00 -0.00000000000E+00 -0.40616644171E+03  0.40616644171E+03  0.00000000000E+00 0.  1.
         -6    2    1    2    0  503  0.16955759166E+03 -0.76687439088E+02 -0.32754328948E+03  0.41330864894E+03  0.17002556454E+03 0.  0.
        -24    2    3    3    0    0  0.11764175177E+03 -0.72384116548E+02 -0.32336602005E+03  0.36083663167E+03  0.80984256155E+02 0.  0.
          6    2    1    2  501    0 -0.16955759166E+03  0.76687439088E+02  0.41560099511E+03  0.48708194012E+03  0.17289849348E+03 0.  0.
         24    2    5    5    0    0 -0.11153080657E+03 -0.17720813399E+02  0.18106937392E+03  0.22764563336E+03  0.79267068668E+02 0.  0.
          5    1    5    5  501    0 -0.58026785091E+02  0.94408252487E+02  0.23453162119E+03  0.25943630676E+03  0.47000000000E+01 0. -1.
        -11    1    6    6    0    0  0.41944669194E+01 -0.12763400638E+02  0.91388307552E+00  0.13465999067E+02  0.00000000000E+00 0.  1.
         12    1    6    6    0    0 -0.11572527349E+03 -0.49574127613E+01  0.18015549085E+03  0.21417963430E+03  0.00000000000E+00 0. -1.
         -5    1    3    3    0  503  0.51915839885E+02 -0.43033225396E+01 -0.41772694320E+01  0.52472017264E+02  0.47000000000E+01 0. -1.
         13    1    4    4    0    0  0.33372519468E+01 -0.85816767063E+01 -0.11089501556E+03  0.11127662334E+03  0.00000000000E+00 0. -1.
        -14    1    4    4    0    0  0.11430449983E+03 -0.63802439842E+02 -0.21247100449E+03  0.24956000833E+03  0.00000000000E+00 0.  1.
</event>
<event>
12    1  0.8747122E-002  0.1796855E+03  0.7818608E-02  0.1168396E+00
         21   -1    0    0  501  502  0.00000000000E+00  0.00000000000E+00  0.53331543361E+03  0.53331543361E+03  0.00000000000E+00 0. -1.
         21   -1    0    0  502  503 -0.00000000000E+00 -0.00000000000E+00 -0.63679059792E+02  0.63679059792E+02  0.00000000000E+00 0. -1.
         -6    2    1    2    0  503 -0.61458276542E+01 -0.45055213427E+02  0.16520227479E+03  0.24408746019E+03  0.17383657030E+03 0.  0.
        -24    2    3    3    0    0  0.63943730828E+02 -0.19554668656E+02  0.10205999097E+03  0.14625156700E+03  0.80635558621E+02 0.  0.
          6    2    1    2  501    0  0.61458276542E+01  0.45055213427E+02  0.30443409903E+03  0.35290703321E+03  0.17261375953E+03 0.  0.
         24    2    5    5    0    0  0.41128470894E+02  0.84256146066E+02  0.18544951460E+03  0.22275358616E+03  0.80230844514E+02 0.  0.
          5    1    5    5  501    0 -0.34982643240E+02 -0.39200932639E+02  0.11898458443E+03  0.13015344705E+03  0.47000000000E+01 0. -1.
        -13    1    6    6    0    0 -0.48345083049E+01 -0.57378233198E+01 -0.36525736143E+01  0.83448415807E+01  0.00000000000E+00 0.  1.
         14    1    6    6    0    0  0.45962979199E+02  0.89993969386E+02  0.18910208822E+03  0.21440874458E+03  0.00000000000E+00 0. -1.
         -5    1    3    3    0  503 -0.70089558482E+02 -0.25500544771E+02  0.63142283814E+02  0.97835893194E+02  0.47000000000E+01 0.  1.
         13    1    4    4    0    0  0.11941759035E+02 -0.32808912921E+02  0.49006158021E+01  0.35256863320E+02  0.00000000000E+00 0. -1.
        -14    1    4    4    0    0  0.52001971793E+02  0.13254244265E+02  0.97159375172E+02  0.11099470368E+03  0.00000000000E+00 0.  1.
</event>
<event>
12    1  0.8747122E-002  0.2236942E+03  0.7818608E-02  0.1131600E+00
         21   -1    0    0  501  502  0.00000000000E+00  0.00000000000E+00  0.29437964024E+03  0.29437964024E+03  0.00000000000E+00 0. -1.
         21   -1    0    0  502  503 -0.00000000000E+00 -0.00000000000E+00 -0.35966966467E+03  0.35966966467E+03  0.00000000000E+00 0. -1.
         -6    2    1    2    0  503  0.12588226799E+03 -0.65162418664E+02 -0.27135593086E+03  0.35167191587E+03  0.17305088557E+03 0.  0.
        -24    2    3    3    0    0  0.84715685059E+02  0.26184967415E+02 -0.11435020063E+03  0.16536055868E+03  0.80035905487E+02 0.  0.
          6    2    1    2  501    0 -0.12588226799E+03  0.65162418664E+02  0.20606590643E+03  0.30237738905E+03  0.16993069592E+03 0.  0.
         24    2    5    5    0    0 -0.89779910868E+02  0.37670182898E+02  0.38353438708E+02  0.12857070032E+03  0.74699154249E+02 0.  0.
          5    1    5    5  501    0 -0.36102357119E+02  0.27492235767E+02  0.16771246773E+03  0.17380668873E+03  0.47000000000E+01 0. -1.
        -13    1    6    6    0    0 -0.69056044877E+02  0.57499888117E+02  0.42821286266E+02  0.99542136932E+02  0.00000000000E+00 0.  1.
         14    1    6    6    0    0 -0.20723865991E+02 -0.19829705219E+02 -0.44678475574E+01  0.29028563390E+02  0.00000000000E+00 0. -1.
         -5    1    3    3    0  503  0.41166582928E+02 -0.91347386079E+02 -0.15700573023E+03  0.18631135719E+03  0.47000000000E+01 0.  1.
         13    1    4    4    0    0  0.48823150113E+02 -0.96100679352E+01 -0.10153857577E+03  0.11307579653E+03  0.00000000000E+00 0. -1.
        -14    1    4    4    0    0  0.35892534946E+02  0.35795035350E+02 -0.12811624865E+02  0.52284762142E+02  0.00000000000E+00 0.  1.
</event>
<event>
12    1  0.8747122E-002  0.1804366E+03  0.7818608E-02  0.1167464E+00
         21   -1    0    0  501  502  0.00000000000E+00  0.00000000000E+00  0.12115127026E+03  0.12115127026E+03  0.00000000000E+00 0. -1.
         21   -1    0    0  502  503 -0.00000000000E+00 -0.00000000000E+00 -0.29774918964E+03  0.29774918964E+03  0.00000000000E+00 0. -1.
         -6    2    1    2    0  503  0.23582228048E+02  0.40619877507E+02 -0.15418280169E+03  0.23707694873E+03  0.17385927457E+03 0.  0.
        -24    2    3    3    0    0  0.67971973161E+02  0.11477376563E+02 -0.15028086320E+03  0.18362556936E+03  0.79888000172E+02 0.  0.
          6    2    1    2  501    0 -0.23582228048E+02 -0.40619877507E+02 -0.22415117695E+02  0.18182351117E+03  0.17421611804E+03 0.  0.
         24    2    5    5    0    0  0.14318824047E+02 -0.36676822099E+02  0.58393662257E+02  0.92357392703E+02  0.59748223352E+02 0.  0.
          5    1    5    5  501    0 -0.37901052094E+02 -0.39430554086E+01 -0.80808779952E+02  0.89466118465E+02  0.47000000000E+01 0. -1.
        -13    1    6    6    0    0  0.24362663045E+02 -0.46629623293E+02  0.29813563664E+02  0.60470734223E+02  0.00000000000E+00 0.  1.
         14    1    6    6    0    0 -0.10043838998E+02  0.99528011941E+01  0.28580098593E+02  0.31886658480E+02  0.00000000000E+00 0. -1.
         -5    1    3    3    0  503 -0.44389745114E+02  0.29142500945E+02 -0.39019384914E+01  0.53451379370E+02  0.47000000000E+01 0.  1.
         11    1    4    4    0    0  0.22103399624E+02  0.14977462789E+02 -0.13108952283E+03  0.13378096898E+03  0.00000000000E+00 0. -1.
        -12    1    4    4    0    0  0.45868573538E+02 -0.35000862258E+01 -0.19191340374E+02  0.49844600383E+02  0.00000000000E+00 0.  1.
</event>
<event>
12    1  0.8747122E-002  0.1786783E+03  0.7818608E-02  0.1169689E+00
         21   -1    0    0  503  502  0.00000000000E+00  0.00000000000E+00  0.19246891224E+03  0.19246891224E+03  0.00000000000E+00 0. -1.
         21   -1    0    0  501  503 -0.00000000000E+00 -0.00000000000E+00 -0.27503678539E+03  0.27503678539E+03  0.00000000000E+00 0. -1.
          6    2    1    2  501    0 -0.39041360417E+02  0.28464437548E+02 -0.19022885738E+03  0.26098456629E+03  0.17202172431E+03 0.  0.
         24    2    3    3    0    0 -0.93212554698E+02  0.20928615181E+02 -0.14069862635E+03  0.18704783189E+03  0.77872977795E+02 0.  0.
         -6    2    1    2    0  502  0.39041360417E+02 -0.28464437548E+02  0.10766098422E+03  0.20652113134E+03  0.16948639514E+03 0.  0.
        -24    2    5    5    0    0 -0.39335303038E+02 -0.24396398230E+02  0.84021633604E+02  0.12442144062E+03  0.79237678294E+02 0.  0.
          5    1    3    3  501    0  0.54171194281E+02  0.75358223671E+01 -0.49530231028E+02  0.73936734404E+02  0.47000000000E+01 0. -1.
        -13    1    4    4    0    0 -0.54826063310E+02 -0.27310326689E+02 -0.77176956027E+02  0.98529354527E+02  0.00000000000E+00 0.  1.
         14    1    4    4    0    0 -0.38386491388E+02  0.48238941869E+02 -0.63521670320E+02  0.88518477360E+02  0.00000000000E+00 0. -1.
         -5    1    5    5    0  502  0.78376663455E+02 -0.40680393182E+01  0.23639350615E+02  0.82099690716E+02  0.47000000000E+01 0.  1.
         13    1    6    6    0    0 -0.42721141713E+02 -0.42472384450E+02  0.86970310484E+02  0.10579619226E+03  0.00000000000E+00 0. -1.
        -14    1    6    6    0    0  0.33858386757E+01  0.18075986220E+02 -0.29486768798E+01  0.18625248367E+02  0.00000000000E+00 0.  1.
</event>
<event>
12    1  0.8747122E-002  0.1793558E+03  0.7818608E-02  0.1168772E+00
         21   -1    0    0  503  502  0.00000000000E+00  0.00000000000E+00  0.40033933132E+02  0.40033933132E+02  0.00000000000E+00 0.  1.
         21   -1    0    0  501  503 -0.00000000000E+00 -0.00000000000E+00 -0.10208141098E+04  0.10208141098E+04  0.00000000000E+00 0.  1.
          6    2    1    2  501    0 -0.88394234459E+01 -0.46557984923E+02 -0.73711765226E+03  0.75829237833E+03  0.17152001748E+03 0.  0.
         24    2    3    3    0    0  0.18523944972E+02 -0.87819278526E+02 -0.60015686794E+03  0.61258172422E+03  0.83742107039E+02 0.  0.
         -6    2    1    2    0  502  0.88394234459E+01  0.46557984923E+02 -0.24366252444E+03  0.30255566463E+03  0.17298185748E+03 0.  0.
        -24    2    5    5    0    0  0.16480883466E+02 -0.34155762963E+02 -0.80968707271E+02  0.12071928446E+03  0.81110901980E+02 0.  0.
          5    1    3    3  501    0 -0.27363368417E+02  0.41261293603E+02 -0.13696078432E+03  0.14571065411E+03  0.47000000000E+01 0. -1.
        -11    1    4    4    0    0 -0.68760739556E+01 -0.90151577433E+02 -0.36439730077E+03  0.37544637449E+03  0.00000000000E+00 0.  1.
         12    1    4    4    0    0  0.25400018927E+02  0.23322989070E+01 -0.23575956717E+03  0.23713534973E+03  0.00000000000E+00 0. -1.
         -5    1    5    5    0  502 -0.76414600204E+01  0.80713747886E+02 -0.16269381717E+03  0.18183638017E+03  0.47000000000E+01 0.  1.
         13    1    6    6    0    0 -0.25588470521E+02 -0.31338705518E+02 -0.63031314003E+02  0.74898803943E+02  0.00000000000E+00 0. -1.
        -14    1    6    6    0    0  0.42069353987E+02 -0.28170574447E+01 -0.17937393268E+02  0.45820480517E+02  0.00000000000E+00 0.  1.
</event>
<event>
12    1  0.8747122E-002  0.2401580E+03  0.7818608E-02  0.1120055E+00
         21   -1    0    0  503  502  0.00000000000E+00  0.00000000000E+00  0.61505707365E+03  0.61505707365E+03  0.00000000000E+00 0. -1.
         21   -1    0    0  501  503 -0.00000000000E+00 -0.00000000000E+00 -0.23026672869E+03  0.23026672869E+03  0.00000000000E+00 0.  1.
          6    2    1    2  501    0 -0.12494367107E+03  0.10945457988E+03 -0.13439105304E+03  0.27328780475E+03  0.17039378829E+03 0.  0.
         24    2    3    3    0    0 -0.36938250829E+02  0.12063635718E+03 -0.85604622606E+02  0.17193598222E+03  0.79474936432E+02 0.  0.
         -6    2    1    2    0  502  0.12494367107E+03 -0.10945457988E+03  0.51918139801E+03  0.57203599759E+03  0.17344922169E+03 0.  0.
        -24    2    5    5    0    0  0.13446826886E+03 -0.13127837695E+03  0.50224494716E+03  0.54243989229E+03  0.81702645095E+02 0.  0.
          5    1    3    3  501    0 -0.88005420241E+02 -0.11181777305E+02 -0.48786430437E+02  0.10135182253E+03  0.47000000000E+01 0. -1.
        -13    1    4    4    0    0 -0.38997985050E+02  0.86829876916E+02 -0.97288873172E+02  0.13610802771E+03  0.00000000000E+00 0.  1.
         14    1    4    4    0    0  0.20597342208E+01  0.33806480266E+02  0.11684250567E+02  0.35827954510E+02  0.00000000000E+00 0. -1.
         -5    1    5    5    0  502 -0.95245977885E+01  0.21823797072E+02  0.16936450855E+02  0.29596105305E+02  0.47000000000E+01 0.  1.
         13    1    6    6    0    0  0.11593155274E+03 -0.13337414055E+03  0.38373281415E+03  0.42246853012E+03  0.00000000000E+00 0. -1.
        -14    1    6    6    0    0  0.18536716118E+02  0.20957636035E+01  0.11851213301E+03  0.11997136217E+03  0.00000000000E+00 0.  1.
</event>
<event>
12    1  0.8747122E-002  0.1735205E+03  0.7818608E-02  0.1174763E+00
         21   -1    0    0  501  502  0.00000000000E+00  0.00000000000E+00  0.10353862284E+03  0.10353862284E+03  0.00000000000E+00 0. -1.
         21   -1    0    0  502  503 -0.00000000000E+00 -0.00000000000E+00 -0.71916467818E+03  0.71916467818E+03  0.00000000000E+00 0. -1.
         -6    2    1    2    0  503  0.13310436376E+02  0.98495258368E+01 -0.62583213273E+03  0.64888292221E+03  0.17061362052E+03 0.  0.
        -24    2    3    3    0    0  0.35897172470E+02 -0.51473152140E+02 -0.29086618860E+03  0.30756942232E+03  0.77831340048E+02 0.  0.
          6    2    1    2  501    0 -0.13310436376E+02 -0.98495258368E+01  0.10206077383E+02  0.17382037881E+03  0.17272862877E+03 0.  0.
         24    2    5    5    0    0 -0.69755630024E+02  0.29054219168E+02  0.18656120344E+02  0.10458848957E+03  0.69862048016E+02 0.  0.
          5    1    5    5  501    0  0.56445193648E+02 -0.38903745005E+02 -0.84500429608E+01  0.69231889238E+02  0.47000000000E+01 0. -1.
        -11    1    6    6    0    0 -0.73571565726E+02  0.28885015829E+02 -0.63490000573E+01  0.79293311348E+02  0.00000000000E+00 0.  1.
         12    1    6    6    0    0  0.38159357022E+01  0.16920333897E+00  0.25005120401E+02  0.25295178223E+02  0.00000000000E+00 0. -1.
         -5    1    3    3    0  503 -0.22586736094E+02  0.61322677977E+02 -0.33496594412E+03  0.34131349989E+03  0.47000000000E+01 0.  1.
         13    1    4    4    0    0  0.15480417979E+02 -0.76972962793E+01 -0.22617377970E+03  0.22683357409E+03  0.00000000000E+00 0. -1.
        -14    1    4    4    0    0  0.20416754490E+02 -0.43775855861E+02 -0.64692408901E+02  0.80735848232E+02  0.00000000000E+00 0.  1.
</event>
<event>
12    1  0.8747122E-002  0.2021899E+03  0.7818608E-02  0.1148110E+00
         21   -1    0    0  503  502  0.00000000000E+00  0.00000000000E+00  0.69679316063E+03  0.69679316063E+03  0.00000000000E+00 0. -1.
         21   -1    0    0  501  503 -0.00000000000E+00 -0.00000000000E+00 -0.11940363117E+03  0.11940363117E+03  0.00000000000E+00 0. -1.
          6    2    1    2  501    0 -0.23719932474E+02 -0.10033314672E+03 -0.33863775524E+01  0.20123224099E+03  0.17278186171E+03 0.  0.
         24    2    3    3    0    0  0.23797628471E+02 -0.35623721924E+02 -0.54028787212E+02  0.10619555381E+03  0.80765147903E+02 0.  0.
         -6    2    1    2    0  502  0.23719932474E+02  0.10033314672E+03  0.58077590701E+03  0.61496455081E+03  0.17392920705E+03 0.  0.
        -24    2    5    5    0    0  0.60888606050E+02  0.25186931168E+02  0.18878926105E+03  0.21408541114E+03  0.76481202461E+02 0.  0.
          5    1    3    3  501    0 -0.47517560945E+02 -0.64709424794E+02  0.50642409659E+02  0.95036687186E+02  0.47000000000E+01 0. -1.
        -13    1    4    4    0    0  0.37720078824E+02 -0.50230748476E+02 -0.18753402331E+02  0.65556254758E+02  0.00000000000E+00 0.  1.
         14    1    4    4    0    0 -0.13922450354E+02  0.14607026552E+02 -0.35275384881E+02  0.40639299047E+02  0.00000000000E+00 0. -1.
         -5    1    5    5    0  502 -0.37168673576E+02  0.75146215550E+02  0.39198664597E+03  0.40087913967E+03  0.47000000000E+01 0.  1.
         13    1    6    6    0    0  0.35571233979E+02  0.48956602028E+02  0.15145448526E+03  0.16309666666E+03  0.00000000000E+00 0. -1.
        -14    1    6    6    0    0  0.25317372071E+02 -0.23769670860E+02  0.37334775783E+02  0.50988744485E+02  0.00000000000E+00 0.  1.
</event>
<event>
12    1  0.8747122E-002  0.2652599E+03  0.7818608E-02  0.1104033E+00
         21   -1    0    0  503  502  0.00000000000E+00  0.00000000000E+00  0.83580140256E+03  0.83580140256E+03  0.00000000000E+00 0.  1.
         21   -1    0    0  501  503 -0.00000000000E+00 -0.00000000000E+00 -0.42609907424E+03  0.42609907424E+03  0.00000000000E+00 0. -1.
          6    2    1    2  501    0 -0.10511046683E+03  0.17188285964E+03 -0.36035464214E+03  0.44745757590E+03  0.17254241926E+03 0.  0.
         24    2    3    3    0    0 -0.52913358331E+02  0.73425876117E+02 -0.78430396945E+02  0.14427168281E+03  0.80447551374E+02 0.  0.
         -6    2    1    2    0  502  0.10511046683E+03 -0.17188285964E+03  0.77005697046E+03  0.81444290091E+03  0.17244585647E+03 0.  0.
        -24    2    5    5    0    0  0.24388216308E+02 -0.11606158536E+02  0.21737221825E+03  0.23333428114E+03  0.80403466825E+02 0.  0.
          5    1    3    3  501    0 -0.52197108499E+02  0.98456983518E+02 -0.28192424519E+03  0.30318589309E+03  0.47000000000E+01 0. -1.
        -11    1    4    4    0    0  0.15345825932E+02 -0.58892892324E+01 -0.11302500809E+02  0.19948048168E+02  0.00000000000E+00 0.  1.
         12    1    4    4    0    0 -0.68259184263E+02  0.79315165350E+02 -0.67127896136E+02  0.12432363464E+03  0.00000000000E+00 0. -1.
         -5    1    5    5    0  502  0.80722250523E+02 -0.16027670110E+03  0.55268475221E+03  0.58110861977E+03  0.47000000000E+01 0.  1.
         11    1    6    6    0    0  0.44370868485E+02  0.17399147095E+02  0.99743725649E+02  0.11054553404E+03  0.00000000000E+00 0. -1.
        -12    1    6    6    0    0 -0.19982652178E+02 -0.29005305631E+02  0.11762849260E+03  0.12278874710E+03  0.00000000000E+00 0.  1.
</event>
<event>
12    1  0.8747122E-002  0.2176183E+03  0.7818608E-02  0.1135863E+00
         21   -1    0    0  501  502  0.00000000000E+00  0.00000000000E+00  0.46587911875E+02  0.46587911875E+02  0.00000000000E+00 0. -1.
         21   -1    0    0  502  503 -0.00000000000E+00 -0.00000000000E+00 -0.13356354041E+04  0.13356354041E+04  0.00000000000E+00 0. -1.
         -6    2    1    2    0  503  0.10779679065E+03 -0.75418423680E+02 -0.98368508842E+03  0.10072514108E+04  0.17207836769E+03 0.  0.
        -24    2    3    3    0    0  0.73062834838E+02 -0.11179261406E+03 -0.85499385337E+03  0.86900144372E+03  0.79455984617E+02 0.  0.
          6    2    1    2  501    0 -0.10779679065E+03  0.75418423680E+02 -0.30536240379E+03  0.37497190518E+03  0.17334833522E+03 0.  0.
         24    2    5    5    0    0 -0.51970339059E+02  0.44200121300E+02 -0.60230737573E+02  0.12158919290E+03  0.80632643618E+02 0.  0.
          5    1    5    5  501    0 -0.55826451594E+02  0.31218302379E+02 -0.24513166621E+03  0.25338271228E+03  0.47000000000E+01 0. -1.
        -13    1    6    6    0    0 -0.34701166823E+02  0.18398930218E+02 -0.76900199365E+02  0.86350056597E+02  0.00000000000E+00 0.  1.
         14    1    6    6    0    0 -0.17269172237E+02  0.25801191082E+02  0.16669461792E+02  0.35239136304E+02  0.00000000000E+00 0. -1.
         -5    1    3    3    0  503  0.34733955815E+02  0.36374190383E+02 -0.12869123504E+03  0.13824996705E+03  0.47000000000E+01 0.  1.
         13    1    4    4    0    0  0.30899899135E+02  0.39629451815E+01 -0.13535223288E+03  0.13889109275E+03  0.00000000000E+00 0. -1.
        -14    1    4    4    0    0  0.42162935703E+02 -0.11575555924E+03 -0.71964162050E+03  0.73011035097E+03  0.00000000000E+00 0.  1.
</event>
<event>
12    1  0.8747122E-002  0.2051949E+03  0.7818608E-02  0.1145689E+00
         21   -1    0    0  501  502  0.00000000000E+00  0.00000000000E+00  0.35511654482E+03  0.35511654482E+03  0.00000000000E+00 0.  1.
         21   -1    0    0  502  503 -0.00000000000E+00 -0.00000000000E+00 -0.16760834267E+03  0.16760834267E+03  0.00000000000E+00 0. -1.
         -6    2    1    2    0  503 -0.10392670431E+03  0.36194644172E+02 -0.48883175527E+02  0.20969802838E+03  0.17167669067E+03 0.  0.
        -24    2    3    3    0    0  0.11168712021E+02  0.25255105901E+02 -0.21150072660E+02  0.90711292340E+02  0.83777398397E+02 0.  0.
          6    2    1    2  501    0  0.10392670431E+03 -0.36194644172E+02  0.23639137768E+03  0.31302685911E+03  0.17318810279E+03 0.  0.
         24    2    5    5    0    0  0.18849245457E+02  0.38789142679E+02  0.11931757405E+03  0.14996519043E+03  0.79956133103E+02 0.  0.
          5    1    5    5  501    0  0.85077458852E+02 -0.74983786852E+02  0.11707380363E+03  0.16306166868E+03  0.47000000000E+01 0. -1.
        -13    1    6    6    0    0  0.25378019241E+02  0.90043594696E+01  0.11624002618E+03  0.11931833907E+03  0.00000000000E+00 0.  1.
         14    1    6    6    0    0 -0.65287737844E+01  0.29784783210E+02  0.30775478663E+01  0.30646851369E+02  0.00000000000E+00 0. -1.
         -5    1    3    3    0  503 -0.11509541633E+03  0.10939538272E+02 -0.27733102867E+02  0.11898673604E+03  0.47000000000E+01 0.  1.
         11    1    4    4    0    0 -0.55463678754E+01  0.52695787586E+02 -0.24556272684E+02  0.58400503029E+02  0.00000000000E+00 0. -1.
        -12    1    4    4    0    0  0.16715079897E+02 -0.27440681685E+02  0.34062000240E+01  0.32310789311E+02  0.00000000000E+00 0.  1.
</event>
<event>
12    1  0.8747122E-002  0.1749279E+03  0.7818608E-02  0.1173305E+00
         21   -1    0    0  503  502  0.00000000000E+00  0.00000000000E+00  0.25680331566E+03  0.25680331566E+03  0.00000000000E+00 0. -1.
         21   -1    0    0  501  503 -0.00000000000E+00 -0.00000000000E+00 -0.20157912524E+03  0.20157912524E+03  0.00000000000E+00 0. -1.
          6    2    1    2  501    0  0.13206610173E+02  0.17165834798E+02 -0.12022360033E+03  0.21062916435E+03  0.17158627673E+03 0.  0.
         24    2    3    3    0    0 -0.18801522620E+01  0.20885048168E+00 -0.15018667064E+03  0.17274743656E+03  0.85334999919E+02 0.  0.
         -6    2    1    2    0  502 -0.13206610173E+02 -0.17165834798E+02  0.17544779075E+03  0.24775327655E+03  0.17358190668E+03 0.  0.
        -24    2    5    5    0    0  0.33035704578E+02  0.20126933621E+02  0.16537486506E+03  0.18731606879E+03  0.79006407350E+02 0.  0.
          5    1    3    3  501    0  0.15086762435E+02  0.16956984316E+02  0.29963070309E+02  0.37881727788E+02  0.47000000000E+01 0. -1.
        -13    1    4    4    0    0  0.33328445719E+02 -0.12657394128E+02 -0.29188447440E+02  0.46075594235E+02  0.00000000000E+00 0.  1.
         14    1    4    4    0    0 -0.35208597980E+02  0.12866244610E+02 -0.12099822320E+03  0.12667184233E+03  0.00000000000E+00 0. -1.
         -5    1    5    5    0  502 -0.46242314751E+02 -0.37292768419E+02  0.10072925694E+02  0.60437207761E+02  0.47000000000E+01 0.  1.
         13    1    6    6    0    0  0.19279339761E+02 -0.19464557745E+02  0.15051179741E+02  0.31258598200E+02  0.00000000000E+00 0. -1.
        -14    1    6    6    0    0  0.13756364817E+02  0.39591491366E+02  0.15032368532E+03  0.15605747059E+03  0.00000000000E+00 0.  1.
</event>
<event>
12    1  0.8747122E-002  0.2079603E+03  0.7818608E-02  0.1144152E+00
         21   -1    0    0  503  502  0.00000000000E+00  0.00000000000E+00  0.36373176847E+02  0.36373176847E+02  0.00000000000E+00 0.  1.
         21   -1    0    0  501  503 -0.00000000000E+00 -0.00000000000E+00 -0.13693737961E+04  0.13693737961E+04  0.00000000000E+00 0.  1.
          6    2    1    2  501    0  0.17181083768E+02  0.10898083194E+03 -0.94644378246E+03  0.96902183467E+03  0.17628236255E+03 0.  0.
         24    2    3    3    0    0  0.62923856979E+02  0.68805098372E+02 -0.81459730722E+03  0.82372189007E+03  0.79091250517E+02 0.  0.
         -6    2    1    2    0  502 -0.17181083768E+02 -0.10898083194E+03 -0.38655683682E+03  0.43672513830E+03  0.17067702529E+03 0.  0.
        -24    2    5    5    0    0  0.20584156475E+02 -0.12879779961E+03 -0.24870173550E+03  0.29234700790E+03  0.81250471410E+02 0.  0.
          5    1    3    3  501    0 -0.45742773211E+02  0.40175733570E+02 -0.13184647524E+03  0.14529994460E+03  0.47000000000E+01 0. -1.
        -13    1    4    4    0    0  0.15109215286E+02  0.63057041527E+02 -0.61446378536E+03  0.61787557193E+03  0.00000000000E+00 0.  1.
         14    1    4    4    0    0  0.47814641693E+02  0.57480568452E+01 -0.20013352186E+03  0.20584631814E+03  0.00000000000E+00 0. -1.
         -5    1    5    5    0  502 -0.37765240244E+02  0.19816967668E+02 -0.13785510133E+03  0.14437813041E+03  0.47000000000E+01 0.  1.
         11    1    6    6    0    0 -0.11267145169E+02 -0.13569005157E+02 -0.14338667887E+01  0.17695265897E+02  0.00000000000E+00 0. -1.
        -12    1    6    6    0    0  0.31851301644E+02 -0.11522879445E+03 -0.24726786871E+03  0.27465174200E+03  0.00000000000E+00 0.  1.
</event>
<event>
12    1  0.8747122E-002  0.1987900E+03  0.7818608E-02  0.1150941E+00
         21   -1    0    0  501  502  0.00000000000E+00  0.00000000000E+00  0.81360556856E+03  0.81360556856E+03  0.00000000000E+00 0. -1.
         21   -1    0    0  502  503 -0.00000000000E+00 -0.00000000000E+00 -0.85919041196E+02  0.85919041196E+02  0.00000000000E+00 0. -1.
         -6    2    1    2    0  503  0.72731440715E+02  0.65264173006E+02  0.66077366483E+02  0.20869602004E+03  0.17215846094E+03 0.  0.
        -24    2    3    3    0    0  0.21061985757E+02  0.10300651698E+02  0.96751239226E+02  0.12712581887E+03  0.79059856192E+02 0.  0.
          6    2    1    2  501    0 -0.72731440715E+02 -0.65264173006E+02  0.66160916088E+03  0.69082858972E+03  0.17311321112E+03 0.  0.
         24    2    5    5    0    0 -0.28180687950E+02  0.32494325869E+02  0.27183327895E+03  0.28649107995E+03  0.79585017160E+02 0.  0.
          5    1    5    5  501    0 -0.44550752765E+02 -0.97758498875E+02  0.38977588193E+03  0.40433750977E+03  0.47000000000E+01 0. -1.
        -11    1    6    6    0    0 -0.13062503162E+02  0.41634197737E+02  0.61446243492E+02  0.75363626832E+02  0.00000000000E+00 0.  1.
         12    1    6    6    0    0 -0.15118184788E+02 -0.91398718681E+01  0.21038703546E+03  0.21112745312E+03  0.00000000000E+00 0. -1.
         -5    1    3    3    0  503  0.51669454959E+02  0.54963521309E+02 -0.30673872743E+02  0.81570201173E+02  0.47000000000E+01 0.  1.
         11    1    4    4    0    0  0.25224605268E+02 -0.11711754403E+02 -0.40218435980E-02  0.27810895676E+02  0.00000000000E+00 0. -1.
        -12    1    4    4    0    0 -0.41626195111E+01  0.22012406101E+02  0.96755261069E+02  0.99314923189E+02  0.00000000000E+00 0.  1.
</event>
<event>
12    1  0.8747122E-002  0.2185281E+03  0.7818608E-02  0.1135145E+00
         21   -1    0    0  501  502  0.00000000000E+00  0.00000000000E+00  0.15397204459E+04  0.15397204459E+04  0.00000000000E+00 0.  1.
         21   -1    0    0  502  503 -0.00000000000E+00 -0.00000000000E+00 -0.33619921564E+02  0.33619921564E+02  0.00000000000E+00 0. -1.
         -6    2    1    2    0  503  0.13331470099E+03  0.85363913211E+01  0.97836118464E+03  0.10024695173E+04  0.17294174185E+03 0.  0.
        -24    2    3    3    0    0  0.14418243932E+03  0.31440024639E+01  0.97522828310E+03  0.98908704124E+03  0.80153043774E+02 0.  0.
          6    2    1    2  501    0 -0.13331470099E+03 -0.85363913211E+01  0.52773933964E+03  0.57087085009E+03  0.17186924507E+03 0.  0.
         24    2    5    5    0    0 -0.12459033619E+03  0.32958654736E+01  0.53399503806E+03  0.55421730378E+03  0.80451877146E+02 0.  0.
          5    1    5    5  501    0 -0.87243647990E+01 -0.11832256795E+02 -0.62556984167E+01  0.16653546309E+02  0.47000000000E+01 0. -1.
        -13    1    6    6    0    0 -0.11591126933E+03 -0.99049457206E+01  0.33554424804E+03  0.35513866686E+03  0.00000000000E+00 0.  1.
         14    1    6    6    0    0 -0.86790668549E+01  0.13200811194E+02  0.19845079002E+03  0.19907863692E+03  0.00000000000E+00 0. -1.
         -5    1    3    3    0  503 -0.10867738336E+02  0.53923888571E+01  0.31329015432E+01  0.13382476087E+02  0.47000000000E+01 0.  1.
         11    1    4    4    0    0  0.51548892949E+02 -0.44231572977E+01  0.15063857431E+03  0.15927596414E+03  0.00000000000E+00 0. -1.
        -12    1    4    4    0    0  0.92633546374E+02  0.75671597617E+01  0.82458970879E+03  0.82981107709E+03  0.00000000000E+00 0.  1.
</event>
<event>
12    1  0.8747122E-002  0.2006881E+03  0.7818608E-02  0.1149189E+00
         21   -1    0    0  501  502  0.00000000000E+00  0.00000000000E+00  0.17634967215E+03  0.17634967215E+03  0.00000000000E+00 0.  1.
         21   -1    0    0  502  503 -0.00000000000E+00 -0.00000000000E+00 -0.29217884047E+03  0.29217884047E+03  0.00000000000E+00 0. -1.
         -6    2    1    2    0  503  0.87981888336E+02  0.51528236798E+02 -0.16749983835E+03  0.26129534666E+03  0.17269363184E+03 0.  0.
        -24    2    3    3    0    0  0.68465863273E+02 -0.34844361072E+02 -0.83004138281E+02  0.13880977924E+03  0.80478344340E+02 0.  0.
          6    2    1    2  501    0 -0.87981888336E+02 -0.51528236798E+02  0.51670670035E+02  0.20723316595E+03  0.17285761501E+03 0.  0.
         24    2    5    5    0    0 -0.45856734236E+02 -0.37470960611E+02 -0.38178355611E+02  0.10689836127E+03  0.80391292068E+02 0.  0.
          5    1    5    5  501    0 -0.42125154099E+02 -0.14057276187E+02  0.89849025647E+02  0.10033480469E+03  0.47000000000E+01 0. -1.
        -13    1    6    6    0    0 -0.10688982229E+02 -0.18354000038E+02  0.24565095994E+02  0.32474106603E+02  0.00000000000E+00 0.  1.
         14    1    6    6    0    0 -0.35167752008E+02 -0.19116960573E+02 -0.62743451605E+02  0.74424254663E+02  0.00000000000E+00 0. -1.
         -5    1    3    3    0  503  0.19516025063E+02  0.86372597871E+02 -0.84495700071E+02  0.12248556743E+03  0.47000000000E+01 0.  1.
         13    1    4    4    0    0  0.12774018563E+02 -0.12660612423E+02 -0.76413006671E+02  0.78501046144E+02  0.00000000000E+00 0. -1.
        -14    1    4    4    0    0  0.55691844710E+02 -0.22183748649E+02 -0.65911316093E+01  0.60308733092E+02  0.00000000000E+00 0.  1.
</event>
<event>
12    1  0.8747122E-002  0.2368224E+03  0.7818608E-02  0.1121978E+00
         21   -1    0    0  501  502  0.00000000000E+00  0.00000000000E+00  0.18094749790E+03  0.18094749790E+03  0.00000000000E+00 0.  1.
         21   -1    0    0  502  503 -0.00000000000E+00 -0.00000000000E+00 -0.57271201809E+03  0.57271201809E+03  0.00000000000E+00 0.  1.
         -6    2    1    2    0  503 -0.15766019576E+03 -0.33665253785E+02 -0.45138056508E+03  0.50973452396E+03  0.17347848208E+03 0.  0.
        -24    2    3    3    0    0 -0.11094661179E+03 -0.56261386860E+02 -0.17953677752E+03  0.23294240161E+03  0.80958098231E+02 0.  0.
          6    2    1    2  501    0  0.15766019576E+03  0.33665253785E+02  0.59616044880E+02  0.24392499203E+03  0.17307582815E+03 0.  0.
         24    2    5    5    0    0  0.15343770795E+02  0.10390381866E+02 -0.92499600052E+01  0.84049099204E+02  0.81457338401E+02 0.  0.
          5    1    5    5  501    0  0.14231642497E+03  0.23274871919E+02  0.68866004885E+02  0.15987589283E+03  0.47000000000E+01 0. -1.
        -11    1    6    6    0    0 -0.17343668428E+02 -0.13474435305E+02  0.23367940751E+02  0.32069048883E+02  0.00000000000E+00 0.  1.
         12    1    6    6    0    0  0.32687439223E+02  0.23864817171E+02 -0.32617900756E+02  0.51980050320E+02  0.00000000000E+00 0. -1.
         -5    1    3    3    0  503 -0.46713583974E+02  0.22596133075E+02 -0.27184378756E+03  0.27679212234E+03  0.47000000000E+01 0.  1.
         11    1    4    4    0    0 -0.56194632390E+02 -0.19804347889E+02 -0.24305183063E+02  0.64348976903E+02  0.00000000000E+00 0. -1.
        -12    1    4    4    0    0 -0.54751979398E+02 -0.36457038971E+02 -0.15523159445E+03  0.16859342471E+03  0.00000000000E+00 0.  1.
</event>
<event>
12    1  0.8747122E-002  0.2265882E+03  0.7818608E-02  0.1129157E+00
         21   -1    0    0  503  502  0.00000000000E+00  0.00000000000E+00  0.41189578179E+03  0.41189578179E+03  0.00000000000E+00 0. -1.
         21   -1    0    0  501  503 -0.00000000000E+00 -0.00000000000E+00 -0.15410367981E+03  0.15410367981E+03  0.00000000000E+00 0.  1.
          6    2    1    2  501    0  0.88486321765E+01  0.14700865738E+03  0.44585337278E+01  0.22611697807E+03  0.17152016095E+03 0.  0.
         24    2    3    3    0    0  0.38235635778E+02  0.15280698687E+03 -0.30223055601E+02  0.18005051257E+03  0.81809626001E+02 0.  0.
         -6    2    1    2    0  502 -0.88486321765E+01 -0.14700865738E+03  0.25333356826E+03  0.33988248353E+03  0.17219861255E+03 0.  0.
        -24    2    5    5    0    0  0.14709214706E+02 -0.17100993340E+03  0.18928148916E+03  0.26738564058E+03  0.78783502907E+02 0.  0.
          5    1    3    3  501    0 -0.29387003601E+02 -0.57983294888E+01  0.34681589329E+02  0.46066465503E+02  0.47000000000E+01 0. -1.
        -13    1    4    4    0    0 -0.30909643514E+01  0.19638237784E+02 -0.35312371296E+02  0.40523795608E+02  0.00000000000E+00 0.  1.
         14    1    4    4    0    0  0.41326600129E+02  0.13316874909E+03  0.50893156952E+01  0.13952671696E+03  0.00000000000E+00 0. -1.
         -5    1    5    5    0  502 -0.23557846882E+02  0.24001276019E+02  0.64052079098E+02  0.72496842946E+02  0.47000000000E+01 0.  1.
         13    1    6    6    0    0 -0.61399233118E+01 -0.16753734927E+03  0.17037060288E+03  0.23902427572E+03  0.00000000000E+00 0. -1.
        -14    1    6    6    0    0  0.20849138018E+02 -0.34725841295E+01  0.18910886284E+02  0.28361364859E+02  0.00000000000E+00 0.  1.
</event>
<event>
12    1  0.8747122E-002  0.2150222E+03  0.7818608E-02  0.1138079E+00
         21   -1    0    0  503  502  0.00000000000E+00  0.00000000000E+00  0.98990894872E+02  0.98990894872E+02  0.00000000000E+00 0.  1.
         21   -1    0    0  501  503 -0.00000000000E+00 -0.00000000000E+00 -0.47053890132E+03  0.47053890132E+03  0.00000000000E+00 0. -1.
          6    2    1    2  501    0 -0.89491574864E+02  0.92511682595E+02 -0.14889690611E+03  0.26154317696E+03  0.17224224621E+03 0.  0.
         24    2    3    3    0    0 -0.50168962824E+02 -0.12426693577E+02 -0.36769379875E+02  0.10294619481E+03  0.81083809633E+02 0.  0.
         -6    2    1    2    0  502  0.89491574864E+02 -0.92511682595E+02 -0.22265110034E+03  0.30798661923E+03  0.16945527950E+03 0.  0.
        -24    2    5    5    0    0  0.66558492671E+02  0.11543277143E+01 -0.15685694473E+03  0.19115251180E+03  0.86624570635E+02 0.  0.
          5    1    3    3  501    0 -0.39322612039E+02  0.10493837617E+03 -0.11212752623E+03  0.15859698216E+03  0.47000000000E+01 0. -1.
        -11    1    4    4    0    0 -0.64419973238E+02  0.13620883397E+02 -0.19843319518E+02  0.68769315440E+02  0.00000000000E+00 0.  1.
         12    1    4    4    0    0  0.14251010414E+02 -0.26047576974E+02 -0.16926060356E+02  0.34176879367E+02  0.00000000000E+00 0. -1.
         -5    1    5    5    0  502  0.22933082193E+02 -0.93666010309E+02 -0.65794155613E+02  0.11683410743E+03  0.47000000000E+01 0.  1.
         11    1    6    6    0    0 -0.11671287643E+02  0.15961191024E+02 -0.61511347537E+01  0.20707849548E+02  0.00000000000E+00 0. -1.
        -12    1    6    6    0    0  0.78229780314E+02 -0.14806863310E+02 -0.15070580997E+03  0.17044466225E+03  0.00000000000E+00 0.  1.
</event>
<event>
12    1  0.8747122E-002  0.2006597E+03  0.7818608E-02  0.1149310E+00
         21   -1    0    0  503  502  0.00000000000E+00  0.00000000000E+00  0.10230525045E+03  0.10230525045E+03  0.00000000000E+00 0.  1.
         21   -1    0    0  501  503 -0.00000000000E+00 -0.00000000000E+00 -0.12887230437E+04  0.12887230437E+04  0.00000000000E+00 0. -1.
          6    2    1    2  501    0 -0.10202986561E+03 -0.16720392009E+02 -0.11729805171E+04  0.11899192044E+04  0.17127391600E+03 0.  0.
         24    2    3    3    0    0 -0.11416489496E+03 -0.39686533187E+02 -0.64150347361E+03  0.65778703996E+03  0.80922426601E+02 0.  0.
         -6    2    1    2    0  502  0.10202986561E+03  0.16720392009E+02 -0.13437276127E+02  0.20110908983E+03  0.17197279039E+03 0.  0.
        -24    2    5    5    0    0  0.59890774220E+02 -0.44310972678E+02 -0.47789450869E+02  0.11923911726E+03  0.79898487680E+02 0.  0.
          5    1    3    3  501    0  0.12135029351E+02  0.22966141179E+02 -0.53147704354E+03  0.53213216440E+03  0.47000000000E+01 0. -1.
        -13    1    4    4    0    0 -0.77315710505E+02 -0.64466908862E+02 -0.42252020831E+03  0.43434666783E+03  0.00000000000E+00 0.  1.
         14    1    4    4    0    0 -0.36849184456E+02  0.24780375674E+02 -0.21898326530E+03  0.22344037213E+03  0.00000000000E+00 0. -1.
         -5    1    5    5    0  502  0.42139091390E+02  0.61031364687E+02  0.34352174743E+02  0.81869972568E+02  0.47000000000E+01 0.  1.
         11    1    6    6    0    0  0.13574030939E+02 -0.13291937900E+00 -0.53293858846E+02  0.54995521401E+02  0.00000000000E+00 0. -1.
        -12    1    6    6    0    0  0.46316743280E+02 -0.44178053299E+02  0.55044079763E+01  0.64243595856E+02  0.00000000000E+00 0.  1.
</event>
<event>
12    1  0.8747122E-002  0.2104733E+03  0.7818608E-02  0.1141467E+00
         21   -1    0    0  503  502  0.00000000000E+00  0.00000000000E+00  0.87356590829E+03  0.87356590829E+03  0.00000000000E+00 0. -1.
         21   -1    0    0  501  503 -0.00000000000E+00 -0.00000000000E+00 -0.91398303935E+02  0.91398303935E+02  0.00000000000E+00 0.  1.
          6    2    1    2  501    0  0.38287861069E+02 -0.11252038030E+03  0.67134105983E+02  0.21959723548E+03  0.17201500328E+03 0.  0.
         24    2    3    3    0    0  0.57935016680E+02 -0.11149443136E+02  0.60457072021E+02  0.11601755403E+03  0.79525084381E+02 0.  0.
         -6    2    1    2    0  502 -0.38287861069E+02  0.11252038030E+03  0.71503349838E+03  0.74536697675E+03  0.17370155424E+03 0.  0.
        -24    2    5    5    0    0 -0.69396752540E+02  0.33150857342E+02  0.56748781480E+03  0.57489966890E+03  0.50520498351E+02 0.  0.
          5    1    3    3  501    0 -0.19647155611E+02 -0.10137093717E+03  0.66770339614E+01  0.10357968145E+03  0.47000000000E+01 0. -1.
        -13    1    4    4    0    0 -0.10264164022E+02 -0.20998135532E+02 -0.14068185551E+01  0.23414822172E+02  0.00000000000E+00 0.  1.
         14    1    4    4    0    0  0.68199180702E+02  0.98486923960E+01  0.61863890576E+02  0.92602731858E+02  0.00000000000E+00 0. -1.
         -5    1    5    5    0  502  0.31108891471E+02  0.79369522961E+02  0.14754568358E+03  0.17046730785E+03  0.47000000000E+01 0.  1.
         11    1    6    6    0    0 -0.57409514634E+02  0.11647960487E+02  0.26429511988E+03  0.27070913865E+03  0.00000000000E+00 0. -1.
        -12    1    6    6    0    0 -0.11987237906E+02  0.21502896856E+02  0.30319269492E+03  0.30419053025E+03  0.00000000000E+00 0.  1.
</event>
<event>
12    1  0.8747122E-002  0.1779002E+03  0.7818608E-02  0.1172721E+00
         21   -1    0    0  501  502  0.00000000000E+00  0.00000000000E+00  0.32379145152E+03  0.32379145152E+03  0.00000000000E+00 0. -1.
         21   -1    0    0  502  503 -0.00000000000E+00 -0.00000000000E+00 -0.13772635894E+03  0.13772635894E+03  0.00000000000E+00 0. -1.
         -6    2    1    2    0  503  0.18763207008E+02 -0.43831973721E+02 -0.42426669908E+02  0.17193716540E+03  0.15965295696E+03 0.  0.
        -24    2    3    3    0    0  0.41928103602E+02 -0.60117416811E+02  0.12910846733E+02  0.10959810189E+03  0.80454858763E+02 0.  0.
          6    2    1    2  501    0 -0.18763207008E+02  0.43831973721E+02  0.22849176249E+03  0.28958064506E+03  0.17139184523E+03 0.  0.
         24    2    5    5    0    0 -0.27425965874E+02  0.87080152369E+02  0.20742046864E+03  0.24047323450E+03  0.80430026470E+02 0.  0.
          5    1    5    5  501    0  0.86627588650E+01 -0.43248178648E+02  0.21071293845E+02  0.49107410559E+02  0.47000000000E+01 0. -1.
        -13    1    6    6    0    0  0.94310974003E+01  0.79367845174E+02  0.16751901358E+03  0.18560932185E+03  0.00000000000E+00 0.  1.
         14    1    6    6    0    0 -0.36857063274E+02  0.77123071949E+01  0.39901455065E+02  0.54863912655E+02  0.00000000000E+00 0. -1.
         -5    1    3    3    0  503 -0.23164896594E+02  0.16285443090E+02 -0.55337516641E+02  0.62339063506E+02  0.47000000000E+01 0.  1.
         13    1    4    4    0    0  0.96163334904E+01  0.16752399243E+02 -0.11792032661E+02  0.22631146335E+02  0.00000000000E+00 0. -1.
        -14    1    4    4    0    0  0.32311770112E+02 -0.76869816053E+02  0.24702879394E+02  0.86966955553E+02  0.00000000000E+00 0.  1.
</event>
<event>
12    1  0.8747122E-002  0.1942824E+03  0.7818608E-02  0.1155883E+00
         21   -1    0    0  503  502  0.00000000000E+00  0.00000000000E+00  0.55509814213E+02  0.55509814213E+02  0.00000000000E+00 0.  1.
         21   -1    0    0  501  503 -0.00000000000E+00 -0.00000000000E+00 -0.67611280895E+03  0.67611280895E+03  0.00000000000E+00 0. -1.
          6    2    1    2  501    0  0.87735555378E+02  0.50416804061E+01 -0.25961078055E+03  0.32425825884E+03  0.17327064042E+03 0.  0.
         24    2    3    3    0    0 -0.55932278090E+01 -0.33611156009E+02 -0.77961190207E+02  0.11635691877E+03  0.79372484908E+02 0.  0.
         -6    2    1    2    0  502 -0.87735555378E+02 -0.50416804061E+01 -0.36099221419E+03  0.40736436432E+03  0.16705508192E+03 0.  0.
        -24    2    5    5    0    0 -0.17773396319E+02 -0.51369549934E+02 -0.25232337962E+03  0.26998903611E+03  0.79197647940E+02 0.  0.
          5    1    3    3  501    0  0.93328783187E+02  0.38652836415E+02 -0.18164959034E+03  0.20790134008E+03  0.47000000000E+01 0. -1.
        -13    1    4    4    0    0  0.28106371273E+02  0.79294593018E+01 -0.44615526667E+02  0.53323443725E+02  0.00000000000E+00 0.  1.
         14    1    4    4    0    0 -0.33699599082E+02 -0.41540615311E+02 -0.33345663541E+02  0.63033475040E+02  0.00000000000E+00 0. -1.
         -5    1    5    5    0  502 -0.69962159059E+02  0.46327869528E+02 -0.10866883457E+03  0.13737532822E+03  0.47000000000E+01 0.  1.
         11    1    6    6    0    0 -0.17440614086E+02 -0.37405703355E+02 -0.25266840756E+03  0.25601696398E+03  0.00000000000E+00 0. -1.
        -12    1    6    6    0    0 -0.33278223302E+00 -0.13963846579E+02  0.34502794725E+00  0.13972072129E+02  0.00000000000E+00 0.  1.
</event>
<event>
12    1  0.8747122E-002  0.2195449E+03  0.7818608E-02  0.1136679E+00
         21   -1    0    0  501  502  0.00000000000E+00  0.00000000000E+00  0.19862093742E+03  0.19862093742E+03  0.00000000000E+00 0. -1.
         21   -1    0    0  502  503 -0.00000000000E+00 -0.00000000000E+00 -0.25224996059E+03  0.25224996059E+03  0.00000000000E+00 0. -1.
         -6    2    1    2    0  503 -0.13776766215E+03  0.48718748497E+01 -0.96240477191E+02  0.23971272583E+03  0.17086924116E+03 0.  0.
        -24    2    3    3    0    0 -0.14780733289E+03 -0.40242698068E+02 -0.85801011476E+02  0.19209768490E+03  0.77930896126E+02 0.  0.
          6    2    1    2  501    0  0.13776766215E+03 -0.48718748497E+01  0.42611454018E+02  0.21115817218E+03  0.15416995092E+03 0.  0.
         24    2    5    5    0    0  0.23029547113E+02  0.16724508816E+02  0.41496979313E+02  0.94305397784E+02  0.79758632911E+02 0.  0.
          5    1    5    5  501    0  0.11473811504E+03 -0.21596383666E+02  0.11144747057E+01  0.11685277439E+03  0.47000000000E+01 0. -1.
        -11    1    6    6    0    0  0.16377608547E+02 -0.24105483717E+02  0.44095467378E+02  0.52855564042E+02  0.00000000000E+00 0.  1.
         12    1    6    6    0    0  0.66519385660E+01  0.40829992534E+02 -0.25984880651E+01  0.41449833742E+02  0.00000000000E+00 0. -1.
         -5    1    3    3    0  503  0.10039670739E+02  0.45114572917E+02 -0.10439465715E+02  0.47615040927E+02  0.47000000000E+01 0.  1.
         13    1    4    4    0    0 -0.90531859119E+02  0.12684343442E+02 -0.62378507612E+02  0.11067062978E+03  0.00000000000E+00 0. -1.
        -14    1    4    4    0    0 -0.57275473769E+02 -0.52927041510E+02 -0.23422503864E+02  0.81427055121E+02  0.00000000000E+00 0.  1.
</event>
<event>
12    1  0.8747122E-002  0.3492886E+03  0.7818608E-02  0.1062983E+00
         21   -1    0    0  501  502  0.00000000000E+00  0.00000000000E+00  0.16970088550E+03  0.16970088550E+03  0.00000000000E+00 0. -1.
         21   -1    0    0  502  503 -0.00000000000E+00 -0.00000000000E+00 -0.74992282340E+03  0.74992282340E+03  0.00000000000E+00 0.  1.
         -6    2    1    2    0  503 -0.30318495266E+03 -0.28911490520E+01 -0.19466099178E+03  0.39986928709E+03  0.17341588962E+03 0.  0.
        -24    2    3    3    0    0 -0.62956498838E+02 -0.26655123597E+01 -0.24364690647E+02  0.10536515958E+03  0.80855135903E+02 0.  0.
          6    2    1    2  501    0  0.30318495266E+03  0.28911490520E+01 -0.38556094611E+03  0.51975442181E+03  0.17192423202E+03 0.  0.
         24    2    5    5    0    0  0.17868819888E+03  0.67453057309E+02 -0.21589572839E+03  0.29958163101E+03  0.81601475139E+02 0.  0.
          5    1    5    5  501    0  0.12449675378E+03 -0.64561908257E+02 -0.16966521773E+03  0.22017279079E+03  0.47000000000E+01 0. -1.
        -13    1    6    6    0    0  0.18048124249E+03  0.46634432669E+02 -0.19937125740E+03  0.27294165581E+03  0.00000000000E+00 0.  1.
         14    1    6    6    0    0 -0.17930436078E+01  0.20818624640E+02 -0.16524470991E+02  0.26639975203E+02  0.00000000000E+00 0. -1.
         -5    1    3    3    0  503 -0.24022845382E+03 -0.22563669233E+00 -0.17029630114E+03  0.29450412751E+03  0.47000000000E+01 0.  1.
         13    1    4    4    0    0 -0.38649868800E+02  0.38162127229E+02 -0.19023981354E+02  0.57550605378E+02  0.00000000000E+00 0. -1.
        -14    1    4    4    0    0 -0.24306630039E+02 -0.40827639588E+02 -0.53407092925E+01  0.47814554206E+02  0.00000000000E+00 0.  1.
</event>
<event>
12    1  0.8747122E-002  0.1758992E+03  0.7818608E-02  0.1172047E+00
         21   -1    0    0  501  502  0.00000000000E+00  0.00000000000E+00  0.23284163206E+03  0.23284163206E+03  0.00000000000E+00 0.  1.
         21   -1    0    0  502  503 -0.00000000000E+00 -0.00000000000E+00 -0.14278115394E+03  0.14278115394E+03  0.00000000000E+00 0.  1.
         -6    2    1    2    0  503  0.10814289129E+02  0.29697113305E+02 -0.59129011510E+01  0.17599860097E+03  0.17303663703E+03 0.  0.
        -24    2    3    3    0    0  0.42374095473E+02  0.55646887699E+02  0.39087077258E+02  0.11503549554E+03  0.82542265216E+02 0.  0.
          6    2    1    2  501    0 -0.10814289129E+02 -0.29697113305E+02  0.95973379273E+02  0.19962418502E+03  0.17216288314E+03 0.  0.
         24    2    5    5    0    0  0.21688352594E+02  0.16858364719E+02 -0.71565794236E+00  0.87398099952E+02  0.82965815911E+02 0.  0.
          5    1    5    5  501    0 -0.32502641722E+02 -0.46555478024E+02  0.96689037215E+02  0.11222608507E+03  0.47000000000E+01 0. -1.
        -13    1    6    6    0    0  0.41687829726E+02  0.19248713792E+02  0.26900700617E+02  0.53216875365E+02  0.00000000000E+00 0.  1.
         14    1    6    6    0    0 -0.19999477132E+02 -0.23903490725E+01 -0.27616358559E+02  0.34181224588E+02  0.00000000000E+00 0. -1.
         -5    1    3    3    0  503 -0.31559806344E+02 -0.25949774394E+02 -0.44999978409E+02  0.60963105436E+02  0.47000000000E+01 0.  1.
         11    1    4    4    0    0  0.28077120752E+00  0.57400336806E+02 -0.24168053916E+00  0.57401532274E+02  0.00000000000E+00 0. -1.
        -12    1    4    4    0    0  0.42093324265E+02 -0.17534491073E+01  0.39328757797E+02  0.57633963262E+02  0.00000000000E+00 0.  1.
</event>
<event>
12    1  0.8747122E-002  0.2215358E+03  0.7818608E-02  0.1132764E+00
         21   -1    0    0  503  502  0.00000000000E+00  0.00000000000E+00  0.58552980484E+02  0.58552980484E+02  0.00000000000E+00 0. -1.
         21   -1    0    0  501  503 -0.00000000000E+00 -0.00000000000E+00 -0.95223469009E+03  0.95223469009E+03  0.00000000000E+00 0.  1.
          6    2    1    2  501    0  0.13250461817E+03  0.43303291741E+02 -0.62218100411E+03  0.66044479373E+03  0.17217861302E+03 0.  0.
         24    2    3    3    0    0  0.13333486480E+03 -0.35125172877E+01 -0.56757867067E+03  0.58836210440E+03  0.78955015943E+02 0.  0.
         -6    2    1    2    0  502 -0.13250461817E+03 -0.43303291741E+02 -0.27150070550E+03  0.35034287684E+03  0.17203153594E+03 0.  0.
        -24    2    5    5    0    0 -0.38954443212E+02 -0.69808835923E+02 -0.90621980586E+02  0.14493259903E+03  0.80014952832E+02 0.  0.
          5    1    3    3  501    0 -0.83024663363E+00  0.46815809029E+02 -0.54602333434E+02  0.72082689329E+02  0.47000000000E+01 0. -1.
        -11    1    4    4    0    0  0.16263862142E+02  0.28416441715E+02 -0.14862424065E+03  0.15218795051E+03  0.00000000000E+00 0.  1.
         12    1    4    4    0    0  0.11707100266E+03 -0.31928959003E+02 -0.41895443002E+03  0.43617415389E+03  0.00000000000E+00 0. -1.
         -5    1    5    5    0  502 -0.93550174956E+02  0.26505544181E+02 -0.18087872491E+03  0.20541027781E+03  0.47000000000E+01 0.  1.
         11    1    6    6    0    0 -0.44666764277E+02 -0.89744803803E+01 -0.15555166384E+02  0.48141710920E+02  0.00000000000E+00 0. -1.
        -12    1    6    6    0    0  0.57123210651E+01 -0.60834355542E+02 -0.75066814203E+02  0.96790888108E+02  0.00000000000E+00 0.  1.
</event>
<event>
12    1  0.8747122E-002  0.2031750E+03  0.7818608E-02  0.1147372E+00
         21   -1    0    0  503  502  0.00000000000E+00  0.00000000000E+00  0.84722855772E+02  0.84722855772E+02  0.00000000000E+00 0. -1.
         21   -1    0    0  501  503 -0.00000000000E+00 -0.00000000000E+00 -0.98473763908E+03  0.98473763908E+03  0.00000000000E+00 0. -1.
          6    2    1    2  501    0  0.57862804159E+00  0.10761714121E+03 -0.83208135984E+03  0.85652756676E+03  0.17233194518E+03 0.  0.
         24    2    3    3    0    0 -0.13314672053E+02  0.58761712130E+02 -0.21054402124E+03  0.23290057086E+03  0.79269614121E+02 0.  0.
         -6    2    1    2    0  502 -0.57862804159E+00 -0.10761714121E+03 -0.67933423474E+02  0.21293292810E+03  0.17071525401E+03 0.  0.
        -24    2    5    5    0    0  0.40942487153E+02 -0.12725057967E+03 -0.47872935930E+02  0.16259419477E+03  0.79221568384E+02 0.  0.
          5    1    3    3  501    0  0.13893300094E+02  0.48855429082E+02 -0.62153733860E+03  0.62362699590E+03  0.47000000000E+01 0. -1.
        -11    1    4    4    0    0  0.11985000406E+02  0.59982917049E+02 -0.84378805421E+02  0.10421791294E+03  0.00000000000E+00 0.  1.
         12    1    4    4    0    0 -0.25299672458E+02 -0.12212049190E+01 -0.12616521582E+03  0.12868265792E+03  0.00000000000E+00 0. -1.
         -5    1    5    5    0  502 -0.41521115194E+02  0.19633438460E+02 -0.20060487544E+02  0.50338733330E+02  0.47000000000E+01 0.  1.
         13    1    6    6    0    0 -0.18171553219E+02 -0.72411982749E+02 -0.25874445039E+02  0.79013843712E+02  0.00000000000E+00 0. -1.
        -14    1    6    6    0    0  0.59114040372E+02 -0.54838596923E+02 -0.21998490891E+02  0.83580351058E+02  0.00000000000E+00 0.  1.
</event>
<event>
12    1  0.8747122E-002  0.1910412E+03  0.7818608E-02  0.1157526E+00
         21   -1    0    0  503  502  0.00000000000E+00  0.00000000000E+00  0.28544686226E+03  0.28544686226E+03  0.00000000000E+00 0.  1.
         21   -1    0    0  501  503 -0.00000000000E+00 -0.00000000000E+00 -0.14827255557E+03  0.14827255557E+03  0.00000000000E+00 0.  1.
          6    2    1    2  501    0  0.80432210383E+02 -0.19129755022E+02 -0.11879800703E+02  0.19141019778E+03  0.17222498702E+03 0.  0.
         24    2    3    3    0    0  0.62417108196E+02  0.46379688617E+02  0.24024180953E+02  0.11442177650E+03  0.80425187314E+02 0.  0.
         -6    2    1    2    0  502 -0.80432210383E+02  0.19129755022E+02  0.14905410740E+03  0.24230922005E+03  0.17222468811E+03 0.  0.
        -24    2    5    5    0    0 -0.44536448566E+02 -0.20739508436E+02  0.16234410593E+03  0.18684050863E+03  0.78359073989E+02 0.  0.
          5    1    3    3  501    0  0.18015102187E+02 -0.65509443638E+02 -0.35903981656E+02  0.76988421281E+02  0.47000000000E+01 0. -1.
        -13    1    4    4    0    0  0.51924456411E+02 -0.10171879363E+02  0.23720218273E+01  0.52964542771E+02  0.00000000000E+00 0.  1.
         14    1    4    4    0    0  0.10492651785E+02  0.56551567980E+02  0.21652159126E+02  0.61457233726E+02  0.00000000000E+00 0. -1.
         -5    1    5    5    0  502 -0.35895761817E+02  0.39869263457E+02 -0.13289998531E+02  0.55468711415E+02  0.47000000000E+01 0.  1.
         11    1    6    6    0    0 -0.22576329774E+01  0.91665800933E+01 -0.56795259624E+01  0.11017264289E+02  0.00000000000E+00 0. -1.
        -12    1    6    6    0    0 -0.42278815589E+02 -0.29906088529E+02  0.16802363189E+03  0.17582324434E+03  0.00000000000E+00 0.  1.
</event>
<event>
12    1  0.8747122E-002  0.1907080E+03  0.7818608E-02  0.1157852E+00
         21   -1    0    0  501  502  0.00000000000E+00  0.00000000000E+00  0.13261200193E+03  0.13261200193E+03  0.00000000000E+00 0.  1.
         21   -1    0    0  502  503 -0.00000000000E+00 -0.00000000000E+00 -0.27703705687E+03  0.27703705687E+03  0.00000000000E+00 0.  1.
         -6    2    1    2    0  503  0.82046510787E+02  0.13476634767E+02 -0.51068042197E+02  0.19742714524E+03  0.17162832845E+03 0.  0.
        -24    2    3    3    0    0  0.95829628377E+02  0.40874780927E+02 -0.81078733032E+02  0.15426044154E+03  0.79802615771E+02 0.  0.
          6    2    1    2  501    0 -0.82046510787E+02 -0.13476634767E+02 -0.93357012740E+02  0.21222191356E+03  0.17149157166E+03 0.  0.
         24    2    5    5    0    0 -0.19849905329E+02 -0.68966608433E+02 -0.51679073861E+02  0.11891223830E+03  0.79492024268E+02 0.  0.
          5    1    5    5  501    0 -0.62196605458E+02  0.55489973665E+02 -0.41677938879E+02  0.93309675260E+02  0.47000000000E+01 0. -1.
        -13    1    6    6    0    0 -0.44136304922E+02 -0.23525791236E+02 -0.44395381604E+02  0.66876200350E+02  0.00000000000E+00 0.  1.
         14    1    6    6    0    0  0.24286399593E+02 -0.45440817197E+02 -0.72836922571E+01  0.52036037951E+02  0.00000000000E+00 0. -1.
         -5    1    3    3    0  503 -0.13783117590E+02 -0.27398146159E+02  0.30010690836E+02  0.43166703695E+02  0.47000000000E+01 0.  1.
         11    1    4    4    0    0 -0.12798109830E+02  0.10485878410E+02 -0.23661830524E+01  0.16713589784E+02  0.00000000000E+00 0. -1.
        -12    1    4    4    0    0  0.10862773821E+03  0.30388902517E+02 -0.78712549980E+02  0.13754685176E+03  0.00000000000E+00 0.  1.
</event>
<event>
12    1  0.8747122E-002  0.1820491E+03  0.7818608E-02  0.1166306E+00
         21   -1    0    0  503  502  0.00000000000E+00  0.00000000000E+00  0.35518996376E+03  0.35518996376E+03  0.00000000000E+00 0. -1.
         21   -1    0    0  501  503 -0.00000000000E+00 -0.00000000000E+00 -0.93383073865E+02  0.93383073865E+02  0.00000000000E+00 0. -1.
          6    2    1    2  501    0  0.53966527305E+02  0.18264720661E+01  0.15432124758E+03  0.23716100817E+03  0.17179806248E+03 0.  0.
         24    2    3    3    0    0 -0.32850807585E+02 -0.23824067853E+02  0.72223237400E+02  0.11486066839E+03  0.79561393618E+02 0.  0.
         -6    2    1    2    0  502 -0.53966527305E+02 -0.18264720661E+01  0.10748564231E+03  0.21141202945E+03  0.17385672499E+03 0.  0.
        -24    2    5    5    0    0 -0.17243389084E+02 -0.63923308606E+02  0.88845958138E+02  0.13675190746E+03  0.80149585567E+02 0.  0.
          5    1    3    3  501    0  0.86817334890E+02  0.25650539919E+02  0.82098010182E+02  0.12230033978E+03  0.47000000000E+01 0. -1.
        -13    1    4    4    0    0 -0.72494636324E+01 -0.39868068233E+02  0.74241357906E+02  0.84580120662E+02  0.00000000000E+00 0.  1.
         14    1    4    4    0    0 -0.25601343952E+02  0.16044000380E+02 -0.20181205054E+01  0.30280547728E+02  0.00000000000E+00 0. -1.
         -5    1    5    5    0  502 -0.36723138221E+02  0.62096836540E+02  0.18639684172E+02  0.74660121987E+02  0.47000000000E+01 0.  1.
         11    1    6    6    0    0 -0.38976956492E+02 -0.53726073659E+02  0.29311467881E+02  0.72559329363E+02  0.00000000000E+00 0. -1.
        -12    1    6    6    0    0  0.21733567408E+02 -0.10197234947E+02  0.59534490257E+02  0.64192578099E+02  0.00000000000E+00 0.  1.
</event>
<event>
12    1  0.8747122E-002  0.1944481E+03  0.7818608E-02  0.1154708E+00
         21   -1    0    0  503  502  0.00000000000E+00  0.00000000000E+00  0.66148158090E+02  0.66148158090E+02  0.00000000000E+00 0.  1.
         21   -1    0    0  501  503 -0.00000000000E+00 -0.00000000000E+00 -0.20127468392E+04  0.20127468392E+04  0.00000000000E+00 0.  1.
          6    2    1    2  501    0 -0.90298289426E+02  0.11633023644E+02 -0.18530218249E+04  0.18631018452E+04  0.17079078959E+03 0.  0.
         24    2    3    3    0    0 -0.12941902970E+03 -0.16447752084E+00 -0.14413387962E+04  0.14493692994E+04  0.80402290500E+02 0.  0.
         -6    2    1    2    0  502  0.90298289426E+02 -0.11633023644E+02 -0.93576856214E+02  0.21579315207E+03  0.17181661197E+03 0.  0.
        -24    2    5    5    0    0  0.42832628781E+02 -0.68095439602E+02 -0.35065727613E+02  0.12152419893E+03  0.84064871909E+02 0.  0.
          5    1    3    3  501    0  0.39120740270E+02  0.11797501165E+02 -0.41168302875E+03  0.41373254587E+03  0.47000000000E+01 0. -1.
        -13    1    4    4    0    0  0.10861451880E+01  0.18455561322E+02 -0.27088797126E+03  0.27151810331E+03  0.00000000000E+00 0.  1.
         14    1    4    4    0    0 -0.13050517488E+03 -0.18620038843E+02 -0.11704508249E+04  0.11778511960E+04  0.00000000000E+00 0. -1.
         -5    1    5    5    0  502  0.47465660645E+02  0.56462415958E+02 -0.58511128602E+02  0.94268953142E+02  0.47000000000E+01 0.  1.
         11    1    6    6    0    0  0.56935498006E+02 -0.72770123144E+02 -0.45867575746E+02  0.10315510778E+03  0.00000000000E+00 0. -1.
        -12    1    6    6    0    0 -0.14102869226E+02  0.46746835417E+01  0.10801848133E+02  0.18369091151E+02  0.00000000000E+00 0.  1.
</event>
<event>
12    1  0.8747122E-002  0.2278311E+03  0.7818608E-02  0.1128226E+00
         21   -1    0    0  501  502  0.00000000000E+00  0.00000000000E+00  0.14791086134E+03  0.14791086134E+03  0.00000000000E+00 0.  1.
         21   -1    0    0  502  503 -0.00000000000E+00 -0.00000000000E+00 -0.51900568781E+03  0.51900568781E+03  0.00000000000E+00 0.  1.
         -6    2    1    2    0  503 -0.11259988538E+03  0.97224845812E+02 -0.37562674102E+03  0.43932045943E+03  0.17255611456E+03 0.  0.
        -24    2    3    3    0    0 -0.13747570718E+03  0.77476807512E+02 -0.36478131226E+03  0.40543086143E+03  0.80040938682E+02 0.  0.
          6    2    1    2  501    0  0.11259988538E+03 -0.97224845812E+02  0.45319145515E+01  0.22759608972E+03  0.17218605337E+03 0.  0.
         24    2    5    5    0    0  0.52971758237E+02 -0.58597074625E+02 -0.60373399232E+02  0.13125083550E+03  0.85686697677E+02 0.  0.
          5    1    5    5  501    0  0.59628127141E+02 -0.38627771186E+02  0.64905313783E+02  0.96345254219E+02  0.47000000000E+01 0. -1.
        -13    1    6    6    0    0  0.35423296984E+02 -0.80219574299E+02 -0.52919807628E+02  0.10242312292E+03  0.00000000000E+00 0.  1.
         14    1    6    6    0    0  0.17548461253E+02  0.21622499674E+02 -0.74535916033E+01  0.28827712574E+02  0.00000000000E+00 0. -1.
         -5    1    3    3    0  503  0.24875821804E+02  0.19748038299E+02 -0.10845428769E+02  0.33889597995E+02  0.47000000000E+01 0.  1.
         13    1    4    4    0    0 -0.86190843681E+02  0.28283117016E+02 -0.11930400087E+03  0.14987408337E+03  0.00000000000E+00 0. -1.
        -14    1    4    4    0    0 -0.51284863501E+02  0.49193690496E+02 -0.24547731139E+03  0.25555677807E+03  0.00000000000E+00 0.  1.
</event>
<event>
12    1  0.8747122E-002  0.1844641E+03  0.7818608E-02  0.1163891E+00
         21   -1    0    0  501  502  0.00000000000E+00  0.00000000000E+00  0.12405604519E+03  0.12405604519E+03  0.00000000000E+00 0.  1.
         21   -1    0    0  502  503 -0.00000000000E+00 -0.00000000000E+00 -0.42900043771E+03  0.42900043771E+03  0.00000000000E+00 0.  1.
         -6    2    1    2    0  503 -0.78657816013E+01 -0.68370009279E+02 -0.32006020442E+03  0.36941244638E+03  0.17114523773E+03 0.  0.
        -24    2    3    3    0    0 -0.29985610644E+02 -0.10300080536E+03 -0.28063977933E+03  0.31227542871E+03  0.85140794471E+02 0.  0.
          6    2    1    2  501    0  0.78657816013E+01  0.68370009279E+02  0.15115811899E+02  0.18364403652E+03  0.16958866616E+03 0.  0.
         24    2    5    5    0    0  0.15550761957E+02  0.48155959094E+02  0.74355237998E+02  0.12040586488E+03  0.80050285980E+02 0.  0.
          5    1    5    5  501    0 -0.76849803555E+01  0.20214050185E+02 -0.59239426099E+02  0.63238171641E+02  0.47000000000E+01 0. -1.
        -13    1    6    6    0    0 -0.49538739200E+01 -0.21279929279E+02  0.12443795985E+02  0.25144071179E+02  0.00000000000E+00 0.  1.
         14    1    6    6    0    0  0.20504635877E+02  0.69435888372E+02  0.61911442013E+02  0.95261793698E+02  0.00000000000E+00 0. -1.
         -5    1    3    3    0  503  0.22119829043E+02  0.34630796080E+02 -0.39420425091E+02  0.57137017671E+02  0.47000000000E+01 0.  1.
         11    1    4    4    0    0 -0.41388233811E+02 -0.10986044444E+03 -0.21178927664E+03  0.24215078123E+03  0.00000000000E+00 0. -1.
        -12    1    4    4    0    0  0.11402623167E+02  0.68596390816E+01 -0.68850502694E+02  0.70124647483E+02  0.00000000000E+00 0.  1.
</event>
<event>
12    1  0.8747122E-002  0.2539878E+03  0.7818608E-02  0.1110830E+00
         21   -1    0    0  501  502  0.00000000000E+00  0.00000000000E+00  0.92391412205E+02  0.92391412205E+02  0.00000000000E+00 0. -1.
         21   -1    0    0  502  503 -0.00000000000E+00 -0.00000000000E+00 -0.69793772482E+03  0.69793772482E+03  0.00000000000E+00 0.  1.
         -6    2    1    2    0  503  0.14506485450E+03 -0.11674721642E+03 -0.30660744355E+03  0.39806104557E+03  0.17254201520E+03 0.  0.
        -24    2    3    3    0    0  0.13059293378E+03 -0.21188795674E+02 -0.21813344886E+03  0.26694817053E+03  0.78585271028E+02 0.  0.
          6    2    1    2  501    0 -0.14506485450E+03  0.11674721642E+03 -0.29893886906E+03  0.39226809146E+03  0.17273124669E+03 0.  0.
         24    2    5    5    0    0 -0.11501496730E+03  0.14460502375E+03 -0.19403693953E+03  0.27954915795E+03  0.79739213781E+02 0.  0.
          5    1    5    5  501    0 -0.30049887197E+02 -0.27857807327E+02 -0.10490192954E+03  0.11271893350E+03  0.47000000000E+01 0. -1.
        -13    1    6    6    0    0 -0.72273370144E+02  0.48217318141E+02 -0.12944395380E+03  0.15589768111E+03  0.00000000000E+00 0.  1.
         14    1    6    6    0    0 -0.42741597157E+02  0.96387705605E+02 -0.64592985726E+02  0.12365147684E+03  0.00000000000E+00 0. -1.
         -5    1    3    3    0  503  0.14471920714E+02 -0.95558420745E+02 -0.88473994696E+02  0.13111287504E+03  0.47000000000E+01 0.  1.
         11    1    4    4    0    0  0.56323134272E+02 -0.11073348636E+02 -0.30727451806E+02  0.65108300537E+02  0.00000000000E+00 0. -1.
        -12    1    4    4    0    0  0.74269799512E+02 -0.10115447038E+02 -0.18740599705E+03  0.20183986999E+03  0.00000000000E+00 0.  1.
</event>
<event>
12    1  0.8747122E-002  0.1738199E+03  0.7818608E-02  0.1173974E+00
         21   -1    0    0  503  502  0.00000000000E+00  0.00000000000E+00  0.17054172690E+03  0.17054172690E+03  0.00000000000E+00 0.  1.
         21   -1    0    0  501  503 -0.00000000000E+00 -0.00000000000E+00 -0.18590255958E+03  0.18590255958E+03  0.00000000000E+00 0.  1.
          6    2    1    2  501    0  0.87692384047E+01  0.18454984554E+02  0.31433792136E+02  0.17643566315E+03  0.17240642084E+03 0.  0.
         24    2    3    3    0    0  0.27503542613E+02  0.33536491292E+02  0.80785800868E+02  0.12133451284E+03  0.79464314511E+02 0.  0.
         -6    2    1    2    0  502 -0.87692384047E+01 -0.18454984554E+02 -0.46794624818E+02  0.18000862333E+03  0.17261483587E+03 0.  0.
        -24    2    5    5    0    0  0.40190049219E+02  0.39538887264E+02 -0.20048329930E+02  0.99399968064E+02  0.79371622485E+02 0.  0.
          5    1    3    3  501    0 -0.18734304208E+02 -0.15081506739E+02 -0.49352008732E+02  0.55101150310E+02  0.47000000000E+01 0. -1.
        -11    1    4    4    0    0  0.24669976069E+02  0.12227211587E+02 -0.90340457276E+01  0.28978033139E+02  0.00000000000E+00 0.  1.
         12    1    4    4    0    0  0.28335665440E+01  0.21309279705E+02  0.89819846595E+02  0.92356479704E+02  0.00000000000E+00 0. -1.
         -5    1    5    5    0  502 -0.48959287624E+02 -0.57993871817E+02 -0.26746294888E+02  0.80608655263E+02  0.47000000000E+01 0.  1.
         13    1    6    6    0    0  0.21274697400E+02  0.25001107465E+02 -0.50797270708E+02  0.60481657016E+02  0.00000000000E+00 0. -1.
        -14    1    6    6    0    0  0.18915351819E+02  0.14537779799E+02  0.30748940778E+02  0.38918311049E+02  0.00000000000E+00 0.  1.
</event>
<event>
12    1  0.8747122E-002  0.2922911E+03  0.7818608E-02  0.1089285E+00
         21   -1    0    0  503  502  0.00000000000E+00  0.00000000000E+00  0.30396229763E+03  0.30396229763E+03  0.00000000000E+00 0. -1.
         21   -1    0    0  501  503 -0.00000000000E+00 -0.00000000000E+00 -0.28673264104E+03  0.28673264104E+03  0.00000000000E+00 0.  1.
          6    2    1    2  501    0  0.20344026779E+03 -0.11955169579E+03  0.53446236991E+02  0.29713736850E+03  0.17249221717E+03 0.  0.
         24    2    3    3    0    0  0.42241974697E+02 -0.83967877748E+02 -0.52963151458E+01  0.12185509548E+03  0.77366817308E+02 0.  0.
         -6    2    1    2    0  502 -0.20344026779E+03  0.11955169579E+03 -0.36216580401E+02  0.29355757017E+03  0.17083282992E+03 0.  0.
        -24    2    5    5    0    0 -0.18980466424E+03  0.11570588187E+03  0.20819535130E+02  0.23460056512E+03  0.72043809200E+02 0.  0.
          5    1    3    3  501    0  0.16119829310E+03 -0.35583818041E+02  0.58742552137E+02  0.17528227302E+03  0.47000000000E+01 0. -1.
        -13    1    4    4    0    0 -0.15493699799E+02 -0.96624735789E+01  0.17220604774E+02  0.25099150541E+02  0.00000000000E+00 0.  1.
         14    1    4    4    0    0  0.57735674496E+02 -0.74305404169E+02 -0.22516919920E+02  0.96755944938E+02  0.00000000000E+00 0. -1.
         -5    1    5    5    0  502 -0.13635603550E+02  0.38458139178E+01 -0.57036115531E+02  0.58957005044E+02  0.47000000000E+01 0.  1.
         13    1    6    6    0    0 -0.37090171594E+02  0.32786516677E+01  0.25120686132E+02  0.44916358461E+02  0.00000000000E+00 0. -1.
        -14    1    6    6    0    0 -0.15271449265E+03  0.11242723020E+03 -0.43011510025E+01  0.18968420666E+03  0.00000000000E+00 0.  1.
</event>
<event>
12    1  0.8747122E-002  0.1854054E+03  0.7818608E-02  0.1162806E+00
         21   -1    0    0  501  502  0.00000000000E+00  0.00000000000E+00  0.24326736228E+02  0.24326736228E+02  0.00000000000E+00 0.  1.
         21   -1    0    0  502  503 -0.00000000000E+00 -0.00000000000E+00 -0.14113060598E+04  0.14113060598E+04  0.00000000000E+00 0. -1.
         -6    2    1    2    0  503  0.21488199573E+02 -0.63942420522E+02 -0.66151379652E+03  0.68685019966E+03  0.17208229987E+03 0.  0.
        -24    2    3    3    0    0  0.89562024423E+01  0.33531523326E+02 -0.32368409530E+03  0.33498485936E+03  0.78986618044E+02 0.  0.
          6    2    1    2  501    0 -0.21488199573E+02  0.63942420522E+02 -0.72546552703E+03  0.74878259634E+03  0.17269849395E+03 0.  0.
         24    2    5    5    0    0 -0.23267438837E+01 -0.26416527880E+02 -0.46505810920E+03  0.47243858211E+03  0.78841120314E+02 0.  0.
          5    1    5    5  501    0 -0.19161455689E+02  0.90358948402E+02 -0.26040741783E+03  0.27634401423E+03  0.47000000000E+01 0. -1.
        -13    1    6    6    0    0 -0.32390546700E+02 -0.38557403486E+02 -0.30506755263E+03  0.30919578352E+03  0.00000000000E+00 0.  1.
         14    1    6    6    0    0  0.30063802816E+02  0.12140875606E+02 -0.15999055657E+03  0.16324279859E+03  0.00000000000E+00 0. -1.
         -5    1    3    3    0  503  0.12531997131E+02 -0.97473943848E+02 -0.33782970122E+03  0.35186534030E+03  0.47000000000E+01 0.  1.
         11    1    4    4    0    0  0.43014635688E+02  0.11971832062E+02 -0.14074179571E+03  0.14765445035E+03  0.00000000000E+00 0. -1.
        -12    1    4    4    0    0 -0.34058433245E+02  0.21559691264E+02 -0.18294229959E+03  0.18733040902E+03  0.00000000000E+00 0.  1.
</event>
<event>
12    1  0.8747122E-002  0.2537304E+03  0.7818608E-02  0.1111636E+00
         21   -1    0    0  503  502  0.00000000000E+00  0.00000000000E+00  0.16304439516E+03  0.16304439516E+03  0.00000000000E+00 0. -1.
         21   -1    0    0  501  503 -0.00000000000E+00 -0.00000000000E+00 -0.43243479664E+03  0.43243479664E+03  0.00000000000E+00 0.  1.
          6    2    1    2  501    0 -0.14397175519E+03  0.11832449184E+03 -0.22883236677E+03  0.33852766106E+03  0.16585588190E+03 0.  0.
         24    2    3    3    0    0 -0.51643058168E+02  0.91843433184E+02 -0.19658924560E+03  0.23710013213E+03  0.80417159221E+02 0.  0.
         -6    2    1    2    0  502  0.14397175519E+03 -0.11832449184E+03 -0.40558034721E+02  0.25695153074E+03  0.17219344734E+03 0.  0.
        -24    2    5    5    0    0  0.13865163118E+03 -0.10477905173E+03  0.22635646064E+02  0.19193373349E+03  0.78251268802E+02 0.  0.
          5    1    3    3  501    0 -0.92328697024E+02  0.26481058656E+02 -0.32243121167E+02  0.10142752893E+03  0.47000000000E+01 0. -1.
        -11    1    4    4    0    0 -0.48830696861E+02  0.39711189555E+02 -0.16373345078E+03  0.17541396306E+03  0.00000000000E+00 0.  1.
         12    1    4    4    0    0 -0.28123613071E+01  0.52132243629E+02 -0.32855794817E+02  0.61686169074E+02  0.00000000000E+00 0. -1.
         -5    1    5    5    0  502  0.53201240097E+01 -0.13545440112E+02 -0.63193680785E+02  0.65017797244E+02  0.47000000000E+01 0.  1.
         11    1    6    6    0    0  0.14687360505E+03 -0.93930739563E+02  0.12173514877E+02  0.17476565497E+03  0.00000000000E+00 0. -1.
        -12    1    6    6    0    0 -0.82219738634E+01 -0.10848312165E+02  0.10462131187E+02  0.17168078519E+02  0.00000000000E+00 0.  1.
</event>
<event>
12    1  0.8747122E-002  0.2034953E+03  0.7818608E-02  0.1147081E+00
         21   -1    0    0  503  502  0.00000000000E+00  0.00000000000E+00  0.14816665124E+03  0.14816665124E+03  0.00000000000E+00 0. -1.
         21   -1    0    0  501  503 -0.00000000000E+00 -0.00000000000E+00 -0.27779712267E+03  0.27779712267E+03  0.00000000000E+00 0. -1.
          6    2    1    2  501    0  0.48858246825E+02  0.95560238145E+02 -0.66511344347E+02  0.21290427068E+03  0.17142223353E+03 0.  0.
         24    2    3    3    0    0 -0.13029367873E+02  0.38162086573E+02 -0.88273521133E+02  0.12560990090E+03  0.79746619934E+02 0.  0.
         -6    2    1    2    0  502 -0.48858246825E+02 -0.95560238145E+02 -0.63119127079E+02  0.21305950323E+03  0.17289141193E+03 0.  0.
        -24    2    5    5    0    0 -0.21495182676E+02 -0.12943785249E+03 -0.25807039122E+02  0.15552071683E+03  0.79400815846E+02 0.  0.
          5    1    3    3  501    0  0.61887614699E+02  0.57398151572E+02  0.21762176786E+02  0.87294369781E+02  0.47000000000E+01 0. -1.
        -11    1    4    4    0    0 -0.78095529851E+01 -0.24882501883E+02 -0.24487575945E+02  0.35773864671E+02  0.00000000000E+00 0.  1.
         12    1    4    4    0    0 -0.52198148881E+01  0.63044588456E+02 -0.63785945188E+02  0.89836036225E+02  0.00000000000E+00 0. -1.
         -5    1    5    5    0  502 -0.27363064150E+02  0.33877614350E+02 -0.37312087957E+02  0.57538786409E+02  0.47000000000E+01 0.  1.
         13    1    6    6    0    0 -0.32052035879E+02 -0.40053035456E+02 -0.39149482924E+02  0.64531082948E+02  0.00000000000E+00 0. -1.
        -14    1    6    6    0    0  0.10556853203E+02 -0.89384817039E+02  0.13342443802E+02  0.90989633878E+02  0.00000000000E+00 0.  1.
</event>
<event>
12    1  0.8747122E-002  0.2221680E+03  0.7818608E-02  0.1132462E+00
         21   -1    0    0  503  502  0.00000000000E+00  0.00000000000E+00  0.40454422269E+03  0.40454422269E+03  0.00000000000E+00 0.  1.
         21   -1    0    0  501  503 -0.00000000000E+00 -0.00000000000E+00 -0.23274948560E+03  0.23274948560E+03  0.00000000000E+00 0.  1.
          6    2    1    2  501    0 -0.10555903333E+03  0.94237518056E+02 -0.13454243814E+03  0.25887452400E+03  0.16997332787E+03 0.  0.
         24    2    3    3    0    0 -0.88562233103E+02 -0.21161537068E+01 -0.10274739236E+03  0.15588939781E+03  0.76790171726E+02 0.  0.
         -6    2    1    2    0  502  0.10555903333E+03 -0.94237518056E+02  0.30633717523E+03  0.37841918428E+03  0.17127520188E+03 0.  0.
        -24    2    5    5    0    0  0.46542464737E+02  0.17928366181E+02  0.96733642843E+02  0.13342965033E+03  0.77190974816E+02 0.  0.
          5    1    3    3  501    0 -0.16996800226E+02  0.96353671763E+02 -0.31795045780E+02  0.10298512619E+03  0.47000000000E+01 0. -1.
        -13    1    4    4    0    0 -0.45387254707E+02 -0.29268004207E+01 -0.11503906198E+01  0.45496070700E+02  0.00000000000E+00 0.  1.
         14    1    4    4    0    0 -0.43174978396E+02  0.81064671386E+00 -0.10159700174E+03  0.11039332711E+03  0.00000000000E+00 0. -1.
         -5    1    5    5    0  502  0.59016568592E+02 -0.11216588424E+03  0.20960353239E+03  0.24498953395E+03  0.47000000000E+01 0.  1.
         13    1    6    6    0    0  0.27863562008E+02  0.27501564339E+02  0.51684212138E+01  0.39489577191E+02  0.00000000000E+00 0. -1.
        -14    1    6    6    0    0  0.18678902728E+02 -0.95731981587E+01  0.91565221629E+02  0.93940073143E+02  0.00000000000E+00 0.  1.
</event>
<event>
12    1  0.8747122E-002  0.1722836E+03  0.7818608E-02  0.1175577E+00
         21   -1    0    0  503  502  0.00000000000E+00  0.00000000000E+00  0.17079609364E+03  0.17079609364E+03  0.00000000000E+00 0. -1.
         21   -1    0    0  501  503 -0.00000000000E+00 -0.00000000000E+00 -0.17817614681E+03  0.17817614681E+03  0.00000000000E+00 0. -1.
          6    2    1    2  501    0 -0.43681601594E+01 -0.44405193833E+01  0.24777355579E+02  0.17405618923E+03  0.17217096336E+03 0.  0.
         24    2    3    3    0    0 -0.33469232652E+02 -0.14382612154E+02  0.67473419592E+02  0.12122853065E+03  0.93896992631E+02 0.  0.
         -6    2    1    2    0  502  0.43681601594E+01  0.44405193833E+01 -0.32157408742E+02  0.17491605122E+03  0.17182178850E+03 0.  0.
        -24    2    5    5    0    0 -0.54229994491E+02  0.63977186607E+01 -0.50866559413E+02  0.11319331087E+03  0.85108728416E+02 0.  0.
          5    1    3    3  501    0  0.29101072493E+02  0.99420927705E+01 -0.42696064013E+02  0.52827658581E+02  0.47000000000E+01 0. -1.
        -13    1    4    4    0    0 -0.28381105135E+02 -0.21362064472E+02 -0.14815202148E+02  0.38487857070E+02  0.00000000000E+00 0.  1.
         14    1    4    4    0    0 -0.50881275172E+01  0.69794523180E+01  0.82288621740E+02  0.82740673578E+02  0.00000000000E+00 0. -1.
         -5    1    5    5    0  502  0.58598154651E+02 -0.19571992774E+01  0.18709150672E+02  0.61722740350E+02  0.47000000000E+01 0.  1.
         11    1    6    6    0    0 -0.27593543929E+02  0.24462674026E+02  0.15058138073E+02  0.39831816545E+02  0.00000000000E+00 0. -1.
        -12    1    6    6    0    0 -0.26636450562E+02 -0.18064955365E+02 -0.65924697486E+02  0.73361494325E+02  0.00000000000E+00 0.  1.
</event>
<event>
12    1  0.8747122E-002  0.1828789E+03  0.7818608E-02  0.1165243E+00
         21   -1    0    0  501  502  0.00000000000E+00  0.00000000000E+00  0.56086828096E+02  0.56086828096E+02  0.00000000000E+00 0. -1.
         21   -1    0    0  502  503 -0.00000000000E+00 -0.00000000000E+00 -0.91606829525E+03  0.91606829525E+03  0.00000000000E+00 0. -1.
         -6    2    1    2    0  503 -0.58911214067E+02  0.16126365691E+02 -0.71901532649E+03  0.74190816216E+03  0.17237775537E+03 0.  0.
        -24    2    3    3    0    0 -0.10213256545E+03  0.37251342101E+02 -0.49375225380E+03  0.51151742502E+03  0.77717852241E+02 0.  0.
          6    2    1    2  501    0  0.58911214067E+02 -0.16126365691E+02 -0.14096614067E+03  0.23024696118E+03  0.17149816182E+03 0.  0.
         24    2    5    5    0    0  0.59028366360E+02 -0.68742665728E+02 -0.13037832419E+03  0.17637043000E+03  0.76799212460E+02 0.  0.
          5    1    5    5  501    0 -0.11715229315E+00  0.52616300037E+02 -0.10587816479E+02  0.53876531181E+02  0.47000000000E+01 0. -1.
        -13    1    6    6    0    0  0.36432158894E+02  0.80903453801E+01 -0.54450514060E+02  0.66012228954E+02  0.00000000000E+00 0.  1.
         14    1    6    6    0    0  0.22596207466E+02 -0.76833011108E+02 -0.75927810128E+02  0.11035820105E+03  0.00000000000E+00 0. -1.
         -5    1    3    3    0  503  0.43221351378E+02 -0.21124976410E+02 -0.22526307268E+03  0.23039073714E+03  0.47000000000E+01 0.  1.
         13    1    4    4    0    0 -0.22989116428E+02 -0.20853007463E+02 -0.18331424113E+03  0.18592325942E+03  0.00000000000E+00 0. -1.
        -14    1    4    4    0    0 -0.79143449017E+02  0.58104349564E+02 -0.31043801267E+03  0.32559416560E+03  0.00000000000E+00 0.  1.
</event>
<event>
12    1  0.8747122E-002  0.2615241E+03  0.7818608E-02  0.1106298E+00
         21   -1    0    0  503  502  0.00000000000E+00  0.00000000000E+00  0.51051127819E+03  0.51051127819E+03  0.00000000000E+00 0.  1.
         21   -1    0    0  501  503 -0.00000000000E+00 -0.00000000000E+00 -0.21384326533E+03  0.21384326533E+03  0.00000000000E+00 0. -1.
          6    2    1    2  501    0  0.23878083953E+02  0.19494389377E+03 -0.73409044997E+02  0.27119687273E+03  0.17200456761E+03 0.  0.
         24    2    3    3    0    0  0.16688586803E+02  0.68618336896E+02 -0.92108387564E+02  0.14320628479E+03  0.83887423704E+02 0.  0.
         -6    2    1    2    0  502 -0.23878083953E+02 -0.19494389377E+03  0.37007705786E+03  0.45315767079E+03  0.17268920417E+03 0.  0.
        -24    2    5    5    0    0  0.51595050398E+02 -0.13111808377E+03  0.25017857460E+03  0.29769814449E+03  0.78618477018E+02 0.  0.
          5    1    3    3  501    0  0.71894971501E+01  0.12632555687E+03  0.18699342567E+02  0.12799058794E+03  0.47000000000E+01 0. -1.
        -13    1    4    4    0    0 -0.31219625549E+02  0.12506254730E+02 -0.42938155456E+02  0.54541329473E+02  0.00000000000E+00 0.  1.
         14    1    4    4    0    0  0.47908212351E+02  0.56112082166E+02 -0.49170232108E+02  0.88664955316E+02  0.00000000000E+00 0. -1.
         -5    1    5    5    0  502 -0.75473134351E+02 -0.63825809996E+02  0.11989848326E+03  0.15545952630E+03  0.47000000000E+01 0.  1.
         11    1    6    6    0    0  0.30834553293E+02 -0.54608581644E+02  0.43459896537E+02  0.76299603360E+02  0.00000000000E+00 0. -1.
        -12    1    6    6    0    0  0.20760497105E+02 -0.76509502126E+02  0.20671867806E+03  0.22139854113E+03  0.00000000000E+00 0.  1.
</event>
<event>
12    1  0.8747122E-002  0.2756215E+03  0.7818608E-02  0.1098176E+00
         21   -1    0    0  501  502  0.00000000000E+00  0.00000000000E+00  0.15077272797E+03  0.15077272797E+03  0.00000000000E+00 0.  1.
         21   -1    0    0  502  503 -0.00000000000E+00 -0.00000000000E+00 -0.50478317246E+03  0.50478317246E+03  0.00000000000E+00 0. -1.
         -6    2    1    2    0  503  0.17603058512E+03 -0.12328658674E+03 -0.19673820030E+03  0.33822043638E+03  0.17175795399E+03 0.  0.
        -24    2    3    3    0    0  0.11551598247E+03 -0.49358355001E+02 -0.37336677833E+02  0.15232171141E+03  0.77638179007E+02 0.  0.
          6    2    1    2  501    0 -0.17603058512E+03  0.12328658674E+03 -0.15727224419E+03  0.31733546405E+03  0.17257140141E+03 0.  0.
         24    2    5    5    0    0 -0.17042630065E+02  0.21364957190E+02 -0.48004014193E+02  0.99099755450E+02  0.82276749549E+02 0.  0.
          5    1    5    5  501    0 -0.15898795505E+03  0.10192162955E+03 -0.10926823000E+03  0.21823570860E+03  0.47000000000E+01 0. -1.
        -13    1    6    6    0    0  0.11771576417E+02 -0.26252977486E+02 -0.27458956854E+02  0.39771637504E+02  0.00000000000E+00 0.  1.
         14    1    6    6    0    0 -0.28814206481E+02  0.47617934676E+02 -0.20545057339E+02  0.59328117947E+02  0.00000000000E+00 0. -1.
         -5    1    3    3    0  503  0.60514602648E+02 -0.73928231737E+02 -0.15940152247E+03  0.18589872497E+03  0.47000000000E+01 0.  1.
         13    1    4    4    0    0  0.18478223599E+02  0.20871174801E+02 -0.62301117175E+01  0.28563350240E+02  0.00000000000E+00 0. -1.
        -14    1    4    4    0    0  0.97037758871E+02 -0.70229529802E+02 -0.31106566115E+02  0.12375836117E+03  0.00000000000E+00 0.  1.
</event>
<event>
12    1  0.8747122E-002  0.2369652E+03  0.7818608E-02  0.1121869E+00
         21   -1    0    0  503  502  0.00000000000E+00  0.00000000000E+00  0.10888294333E+04  0.10888294333E+04  0.00000000000E+00 0. -1.
         21   -1    0    0  501  503 -0.00000000000E+00 -0.00000000000E+00 -0.51816852064E+02  0.51816852064E+02  0.00000000000E+00 0.  1.
          6    2    1    2  501    0 -0.15976471393E+03 -0.30925414528E+02  0.56122179780E+03  0.60911135718E+03  0.17194648597E+03 0.  0.
         24    2    3    3    0    0 -0.99010060549E+02 -0.57872767624E+02  0.21469074328E+03  0.25623297942E+03  0.80068565412E+02 0.  0.
         -6    2    1    2    0  502  0.15976471393E+03  0.30925414528E+02  0.47579078345E+03  0.53153492820E+03  0.17225378138E+03 0.  0.
        -24    2    5    5    0    0  0.35988404240E+01  0.22407826496E+02  0.15692842746E+03  0.17635100201E+03  0.77188614609E+02 0.  0.
          5    1    3    3  501    0 -0.60754653382E+02  0.26947353096E+02  0.34653105452E+03  0.35287837776E+03  0.47000000000E+01 0. -1.
        -13    1    4    4    0    0 -0.69770354619E+02  0.40074353210E+01  0.12741620004E+03  0.14532326020E+03  0.00000000000E+00 0.  1.
         14    1    4    4    0    0 -0.29239705930E+02 -0.61880202945E+02  0.87274543244E+02  0.11090971922E+03  0.00000000000E+00 0. -1.
         -5    1    5    5    0  502  0.15616587351E+03  0.85175880323E+01  0.31886235599E+03  0.35518392619E+03  0.47000000000E+01 0.  1.
         11    1    6    6    0    0  0.17287819433E+02  0.27339855882E+02  0.15845296445E+03  0.16172098925E+03  0.00000000000E+00 0. -1.
        -12    1    6    6    0    0 -0.13688979009E+02 -0.49320293858E+01 -0.15245369995E+01  0.14630012756E+02  0.00000000000E+00 0.  1.
</event>
<event>
12    1  0.8747122E-002  0.2696487E+03  0.7818608E-02  0.1102160E+00
         21   -1    0    0  503  502  0.00000000000E+00  0.00000000000E+00  0.16316781081E+04  0.16316781081E+04  0.00000000000E+00 0.  1.
         21   -1    0    0  501  503 -0.00000000000E+00 -0.00000000000E+00 -0.44535949738E+02  0.44535949738E+02  0.00000000000E+00 0.  1.
          6    2    1    2  501    0 -0.87609371356E+02  0.18848522936E+03  0.67823798581E+03  0.72815434679E+03  0.16431647426E+03 0.  0.
         24    2    3    3    0    0 -0.49375735853E+02  0.11684235185E+03  0.24314487581E+03  0.28552287801E+03  0.79459327697E+02 0.  0.
         -6    2    1    2    0  502  0.87609371356E+02 -0.18848522936E+03  0.90890417251E+03  0.94805971101E+03  0.17177990918E+03 0.  0.
        -24    2    5    5    0    0 -0.12067410273E+02 -0.59495897741E+02  0.23999607394E+03  0.25955855430E+03  0.78020147154E+02 0.  0.
          5    1    3    3  501    0 -0.38233635503E+02  0.71642877507E+02  0.43509311000E+03  0.44263146878E+03  0.47000000000E+01 0. -1.
        -11    1    4    4    0    0 -0.14907402643E+02  0.11289013412E+03  0.20016156355E+03  0.23028474669E+03  0.00000000000E+00 0.  1.
         12    1    4    4    0    0 -0.34468333209E+02  0.39522177353E+01  0.42983312259E+02  0.55238131322E+02  0.00000000000E+00 0. -1.
         -5    1    5    5    0  502  0.99676781628E+02 -0.12898933162E+03  0.66890809857E+03  0.68850115672E+03  0.47000000000E+01 0.  1.
         13    1    6    6    0    0  0.29201461270E+02 -0.45079082720E+02  0.11006938795E+03  0.12247497378E+03  0.00000000000E+00 0. -1.
        -14    1    6    6    0    0 -0.41268871542E+02 -0.14416815021E+02  0.12992668599E+03  0.13708358051E+03  0.00000000000E+00 0.  1.
</event>
<event>
12    1  0.8747122E-002  0.2678721E+03  0.7818608E-02  0.1102819E+00
         21   -1    0    0  501  502  0.00000000000E+00  0.00000000000E+00  0.13846994798E+03  0.13846994798E+03  0.00000000000E+00 0. -1.
         21   -1    0    0  502  503 -0.00000000000E+00 -0.00000000000E+00 -0.79227156149E+03  0.79227156149E+03  0.00000000000E+00 0.  1.
         -6    2    1    2    0  503  0.15941656082E+02 -0.20165460324E+03 -0.60355998821E+03  0.66033332970E+03  0.17560390528E+03 0.  0.
        -24    2    3    3    0    0  0.22044145117E+02 -0.21804589492E+03 -0.45860611846E+03  0.51425243030E+03  0.78141113098E+02 0.  0.
          6    2    1    2  501    0 -0.15941656082E+02  0.20165460324E+03 -0.50241625310E+02  0.27040817977E+03  0.17227201562E+03 0.  0.
         24    2    5    5    0    0  0.41357178092E+02  0.14617847198E+03 -0.74314345435E+02  0.18696752186E+03  0.79722458852E+02 0.  0.
          5    1    5    5  501    0 -0.57298834174E+02  0.55476131261E+02  0.24072720124E+02  0.83440657905E+02  0.47000000000E+01 0. -1.
        -13    1    6    6    0    0  0.47896854288E+02  0.99459091294E+02 -0.84114214116E+02  0.13878551981E+03  0.00000000000E+00 0.  1.
         14    1    6    6    0    0 -0.65396761962E+01  0.46719380681E+02  0.97998686809E+01  0.48182002056E+02  0.00000000000E+00 0. -1.
         -5    1    3    3    0  503 -0.61024890353E+01  0.16391291687E+02 -0.14495386974E+03  0.14608089940E+03  0.47000000000E+01 0.  1.
         11    1    4    4    0    0  0.50937389769E+01 -0.19009564156E+03 -0.43235732838E+03  0.47232950207E+03  0.00000000000E+00 0. -1.
        -12    1    4    4    0    0  0.16950406140E+02 -0.27950253362E+02 -0.26248790081E+02  0.41922928238E+02  0.00000000000E+00 0.  1.
</event>
<event>
12    1  0.8747122E-002  0.2088146E+03  0.7818608E-02  0.1142552E+00
         21   -1    0    0  503  502  0.00000000000E+00  0.00000000000E+00  0.13343474926E+03  0.13343474926E+03  0.00000000000E+00 0.  1.
         21   -1    0    0  501  503 -0.00000000000E+00 -0.00000000000E+00 -0.33491871095E+03  0.33491871095E+03  0.00000000000E+00 0.  1.
          6    2    1    2  501    0 -0.86011843079E+02  0.82268505042E+02 -0.63526498348E+02  0.21826397925E+03  0.17157332128E+03 0.  0.
         24    2    3    3    0    0 -0.76649624172E+01  0.97251060212E+02 -0.61065456451E+02  0.13832114095E+03  0.76728271846E+02 0.  0.
         -6    2    1    2    0  502  0.86011843079E+02 -0.82268505042E+02 -0.13795746334E+03  0.25008948096E+03  0.17130774275E+03 0.  0.
        -24    2    5    5    0    0 -0.14851866498E+02 -0.35688778279E+02 -0.28542008947E+02  0.94086306267E+02  0.80890790073E+02 0.  0.
          5    1    3    3  501    0 -0.78346880662E+02 -0.14982555169E+02 -0.24610418974E+01  0.79942838304E+02  0.47000000000E+01 0. -1.
        -11    1    4    4    0    0 -0.33583444870E+02  0.64789776798E+02 -0.11872397252E+02  0.73935896311E+02  0.00000000000E+00 0.  1.
         12    1    4    4    0    0  0.25918482453E+02  0.32461283414E+02 -0.49193059200E+02  0.64385244637E+02  0.00000000000E+00 0. -1.
         -5    1    5    5    0  502  0.10086370958E+03 -0.46579726763E+02 -0.10941545439E+03  0.15600317470E+03  0.47000000000E+01 0.  1.
         11    1    6    6    0    0 -0.22768224956E+02  0.20646251882E+02 -0.19720424360E+02  0.36517871260E+02  0.00000000000E+00 0. -1.
        -12    1    6    6    0    0  0.79163584582E+01 -0.56335030161E+02 -0.88215845875E+01  0.57568435007E+02  0.00000000000E+00 0.  1.
</event>
<event>
12    1  0.8747122E-002  0.2214352E+03  0.7818608E-02  0.1133587E+00
         21   -1    0    0  503  502  0.00000000000E+00  0.00000000000E+00  0.15546510498E+03  0.15546510498E+03  0.00000000000E+00 0.  1.
         21   -1    0    0  501  503 -0.00000000000E+00 -0.00000000000E+00 -0.39137061378E+03  0.39137061378E+03  0.00000000000E+00 0. -1.
          6    2    1    2  501    0 -0.20593391307E+02 -0.13800837337E+03 -0.24383770568E+03  0.32937878132E+03  0.17193939625E+03 0.  0.
         24    2    3    3    0    0 -0.60785823910E+02 -0.39869955320E+02 -0.16239311798E+03  0.19558083065E+03  0.81214572747E+02 0.  0.
         -6    2    1    2    0  502  0.20593391307E+02  0.13800837337E+03  0.79321968830E+01  0.21745693745E+03  0.16659592135E+03 0.  0.
        -24    2    5    5    0    0  0.16349785447E+02  0.71855552287E+02  0.68277539419E+02  0.12769138562E+03  0.78820883622E+02 0.  0.
          5    1    3    3  501    0  0.40192432602E+02 -0.98138418050E+02 -0.81444587704E+02  0.13379795067E+03  0.47000000000E+01 0. -1.
        -13    1    4    4    0    0 -0.80210181730E+02 -0.39106404791E+02 -0.13880678453E+03  0.16501608280E+03  0.00000000000E+00 0.  1.
         14    1    4    4    0    0  0.19424357821E+02 -0.76355052914E+00 -0.23586333442E+02  0.30564747855E+02  0.00000000000E+00 0. -1.
         -5    1    5    5    0  502  0.42436058609E+01  0.66152821083E+02 -0.60345342536E+02  0.89765551822E+02  0.47000000000E+01 0.  1.
         13    1    6    6    0    0 -0.31186292597E+02  0.20419126860E+02  0.17481758808E+02  0.41172047298E+02  0.00000000000E+00 0. -1.
        -14    1    6    6    0    0  0.47536078044E+02  0.51436425427E+02  0.50795780611E+02  0.86519338326E+02  0.00000000000E+00 0.  1.
</event>
<event>
12    1  0.8747122E-002  0.1773572E+03  0.7818608E-02  0.1170404E+00
         21   -1    0    0  501  502  0.00000000000E+00  0.00000000000E+00  0.18198062294E+04  0.18198062294E+04  0.00000000000E+00 0. -1.
         21   -1    0    0  502  503 -0.00000000000E+00 -0.00000000000E+00 -0.18673084798E+02  0.18673084798E+02  0.00000000000E+00 0. -1.
         -6    2    1    2    0  503 -0.45156533798E+02  0.77586431998E-01  0.64910967006E+03  0.67288347963E+03  0.17143422890E+03 0.  0.
        -24    2    3    3    0    0 -0.96646256071E+02 -0.14019656148E+01  0.43089014456E+03  0.44861749496E+03  0.79049831016E+02 0.  0.
          6    2    1    2  501    0  0.45156533798E+02 -0.77586431998E-01  0.11520234746E+04  0.11655958346E+04  0.17151223015E+03 0.  0.
         24    2    5    5    0    0  0.10677277206E+02 -0.43920457444E+02  0.31450873205E+03  0.32621269775E+03  0.73864543640E+02 0.  0.
          5    1    5    5  501    0  0.34479256592E+02  0.43842871012E+02  0.83751474252E+03  0.83938313684E+03  0.47000000000E+01 0. -1.
        -11    1    6    6    0    0  0.27096425023E+01 -0.15371895272E+02  0.28117255953E+03  0.28160547857E+03  0.00000000000E+00 0.  1.
         12    1    6    6    0    0  0.79676347041E+01 -0.28548562172E+02  0.33336172518E+02  0.44607219181E+02  0.00000000000E+00 0. -1.
         -5    1    3    3    0  503  0.51489722273E+02  0.14795520468E+01  0.21821952550E+03  0.22426598467E+03  0.47000000000E+01 0.  1.
         11    1    4    4    0    0 -0.28207450243E+02 -0.15185210787E+02  0.28596474958E+03  0.28775352105E+03  0.00000000000E+00 0. -1.
        -12    1    4    4    0    0 -0.68438805828E+02  0.13783245173E+02  0.14492539498E+03  0.16086397391E+03  0.00000000000E+00 0.  1.
</event>
<event>
12    1  0.8747122E-002  0.2821102E+03  0.7818608E-02  0.1094606E+00
         21   -1    0    0  503  502  0.00000000000E+00  0.00000000000E+00  0.44247613529E+03  0.44247613529E+03  0.00000000000E+00 0.  1.
         21   -1    0    0  501  503 -0.00000000000E+00 -0.00000000000E+00 -0.27960997709E+03  0.27960997709E+03  0.00000000000E+00 0.  1.
          6    2    1    2  501    0 -0.10630466950E+03  0.19616074012E+03  0.29735493053E+03  0.40955867047E+03  0.17186806314E+03 0.  0.
         24    2    3    3    0    0  0.20079413413E+01  0.70634041099E+02  0.13444268722E+03  0.17706982589E+03  0.91025751879E+02 0.  0.
         -6    2    1    2    0  502  0.10630466950E+03 -0.19616074012E+03 -0.13448877233E+03  0.31252744191E+03  0.17264545560E+03 0.  0.
        -24    2    5    5    0    0  0.78386900650E+02 -0.15576790927E+03 -0.26393656891E+02  0.19370982291E+03  0.80116930901E+02 0.  0.
          5    1    3    3  501    0 -0.10831261084E+03  0.12552669902E+03  0.16291224331E+03  0.23248884458E+03  0.47000000000E+01 0. -1.
        -13    1    4    4    0    0 -0.30325828507E+01  0.82232019714E+02  0.14067256713E+03  0.16297261355E+03  0.00000000000E+00 0.  1.
         14    1    4    4    0    0  0.50405241921E+01 -0.11597978615E+02 -0.62298799120E+01  0.14097212341E+02  0.00000000000E+00 0. -1.
         -5    1    5    5    0  502  0.27917768845E+02 -0.40392830856E+02 -0.10809511544E+03  0.11881761900E+03  0.47000000000E+01 0.  1.
         13    1    6    6    0    0  0.25751778921E+02 -0.18316921184E+02  0.22302534226E+02  0.38679022120E+02  0.00000000000E+00 0. -1.
        -14    1    6    6    0    0  0.52635121730E+02 -0.13745098808E+03 -0.48696191118E+02  0.15503080079E+03  0.00000000000E+00 0.  1.
</event>
<event>
12    1  0.8747122E-002  0.1997548E+03  0.7818608E-02  0.1151688E+00
         21   -1    0    0  501  502  0.00000000000E+00  0.00000000000E+00  0.33247340341E+03  0.33247340341E+03  0.00000000000E+00 0.  1.
         21   -1    0    0  502  503 -0.00000000000E+00 -0.00000000000E+00 -0.16831709190E+03  0.16831709190E+03  0.00000000000E+00 0.  1.
         -6    2    1    2    0  503  0.54081515640E+02  0.68081026501E+02 -0.59698888616E+02  0.20076859695E+03  0.17083394193E+03 0.  0.
        -24    2    3    3    0    0 -0.69258839128E-01  0.86022874870E+02  0.14563834236E+01  0.11700539741E+03  0.79298185176E+02 0.  0.
          6    2    1    2  501    0 -0.54081515640E+02 -0.68081026501E+02  0.22385520013E+03  0.30002189836E+03  0.17983924035E+03 0.  0.
         24    2    5    5    0    0 -0.50069829845E+02  0.16488031200E+02  0.54661137596E+02  0.11076878758E+03  0.80641436655E+02 0.  0.
          5    1    5    5  501    0 -0.40116857953E+01 -0.84569057701E+02  0.16919406253E+03  0.18925311078E+03  0.47000000000E+01 0. -1.
        -13    1    6    6    0    0 -0.32037008763E+02 -0.28891988301E+02  0.42252227282E+02  0.60385160667E+02  0.00000000000E+00 0.  1.
         14    1    6    6    0    0 -0.18032821082E+02  0.45380019500E+02  0.12408910314E+02  0.50383626916E+02  0.00000000000E+00 0. -1.
         -5    1    3    3    0  503  0.54150774479E+02 -0.17941848369E+02 -0.61155272040E+02  0.83763199544E+02  0.47000000000E+01 0.  1.
         13    1    4    4    0    0 -0.35343593602E+02  0.65048457140E+02  0.11075454737E+02  0.74854105316E+02  0.00000000000E+00 0. -1.
        -14    1    4    4    0    0  0.35274334763E+02  0.20974417730E+02 -0.96190713139E+01  0.42151292092E+02  0.00000000000E+00 0.  1.
</event>
<event>
12    1  0.8747122E-002  0.3184388E+03  0.7818608E-02  0.1076440E+00
         21   -1    0    0  503  502  0.00000000000E+00  0.00000000000E+00  0.72137808616E+03  0.72137808616E+03  0.00000000000E+00 0.  1.
         21   -1    0    0  501  503 -0.00000000000E+00 -0.00000000000E+00 -0.15644771963E+03  0.15644771963E+03  0.00000000000E+00 0. -1.
          6    2    1    2  501    0 -0.26786051836E+03  0.20295438179E+02  0.14171188730E+03  0.34854774932E+03  0.17100325274E+03 0.  0.
         24    2    3    3    0    0 -0.21827938795E+03  0.36745885523E+02  0.46717355279E+02  0.24003527619E+03  0.80238838644E+02 0.  0.
         -6    2    1    2    0  502  0.26786051836E+03 -0.20295438179E+02  0.42321847924E+03  0.52927805647E+03  0.16988295319E+03 0.  0.
        -24    2    5    5    0    0  0.16405955281E+03  0.52976425279E+02  0.22807089182E+03  0.29636588998E+03  0.78066449542E+02 0.  0.
          5    1    3    3  501    0 -0.49581130408E+02 -0.16450447343E+02  0.94994532021E+02  0.10851247313E+03  0.47000000000E+01 0. -1.
        -11    1    4    4    0    0 -0.30145615998E+02 -0.81197492353E+01  0.34072557418E+02  0.46212851682E+02  0.00000000000E+00 0.  1.
         12    1    4    4    0    0 -0.18813377195E+03  0.44865634758E+02  0.12644797861E+02  0.19382242451E+03  0.00000000000E+00 0. -1.
         -5    1    5    5    0  502  0.10380096555E+03 -0.73271863459E+02  0.19514758742E+03  0.23291216649E+03  0.47000000000E+01 0.  1.
         11    1    6    6    0    0  0.44227794718E+02  0.31124919007E+01  0.14869037652E+02  0.46764021556E+02  0.00000000000E+00 0. -1.
        -12    1    6    6    0    0  0.11983175809E+03  0.49863933379E+02  0.21320185417E+03  0.24960186842E+03  0.00000000000E+00 0.  1.
</event>
<event>
12    1  0.8747122E-002  0.1860161E+03  0.7818608E-02  0.1162366E+00
         21   -1    0    0  503  502  0.00000000000E+00  0.00000000000E+00  0.91226929933E+02  0.91226929933E+02  0.00000000000E+00 0. -1.
         21   -1    0    0  501  503 -0.00000000000E+00 -0.00000000000E+00 -0.37814427843E+03  0.37814427843E+03  0.00000000000E+00 0. -1.
          6    2    1    2  501    0  0.22860377212E+02 -0.65043770337E+02 -0.13100569732E+03  0.22751806200E+03  0.17276772528E+03 0.  0.
         24    2    3    3    0    0  0.60155828963E+01 -0.61968801609E+02 -0.75312981815E+01  0.10277344379E+03  0.81420763237E+02 0.  0.
         -6    2    1    2    0  502 -0.22860377212E+02  0.65043770337E+02 -0.15591165117E+03  0.24185314636E+03  0.17155527543E+03 0.  0.
        -24    2    5    5    0    0 -0.93660144111E+01  0.76158984213E+02 -0.17963052661E+03  0.21201490146E+03  0.82433483767E+02 0.  0.
          5    1    3    3  501    0  0.16844794315E+02 -0.30749687277E+01 -0.12347439914E+03  0.12474461820E+03  0.47000000000E+01 0. -1.
        -13    1    4    4    0    0  0.68315255171E+01  0.18490954531E+02 -0.10341399075E+02  0.22260495843E+02  0.00000000000E+00 0.  1.
         14    1    4    4    0    0 -0.81594262078E+00 -0.80459756139E+02  0.28101008935E+01  0.80512947949E+02  0.00000000000E+00 0. -1.
         -5    1    5    5    0  502 -0.13494362801E+02 -0.11115213876E+02  0.23718875441E+02  0.29838244906E+02  0.47000000000E+01 0.  1.
         11    1    6    6    0    0 -0.44443735955E+02  0.53335619353E+02 -0.95709377332E+02  0.11823797557E+03  0.00000000000E+00 0. -1.
        -12    1    6    6    0    0  0.35077721544E+02  0.22823364860E+02 -0.83921149281E+02  0.93776925887E+02  0.00000000000E+00 0.  1.
</event>
<event>
12    1  0.8747122E-002  0.1866785E+03  0.7818608E-02  0.1161531E+00
         21   -1    0    0  501  502  0.00000000000E+00  0.00000000000E+00  0.55732401105E+02  0.55732401105E+02  0.00000000000E+00 0.  1.
         21   -1    0    0  502  503 -0.00000000000E+00 -0.00000000000E+00 -0.72666727622E+03  0.72666727622E+03  0.00000000000E+00 0.  1.
         -6    2    1    2    0  503  0.43754520635E+02  0.57569820368E+02 -0.48186513748E+03  0.51670017709E+03  0.17191951603E+03 0.  0.
        -24    2    3    3    0    0  0.42129919782E+02  0.23084895487E+02 -0.47161675501E+03  0.48038256821E+03  0.77699457437E+02 0.  0.
          6    2    1    2  501    0 -0.43754520635E+02 -0.57569820368E+02 -0.18906973764E+03  0.26569950023E+03  0.17210495763E+03 0.  0.
         24    2    5    5    0    0 -0.16394374072E+02 -0.84028671560E+02 -0.19348758637E+03  0.22709566864E+03  0.82494869478E+02 0.  0.
          5    1    5    5  501    0 -0.27360146563E+02  0.26458851192E+02  0.44178487352E+01  0.38603831595E+02  0.47000000000E+01 0. -1.
        -13    1    6    6    0    0 -0.86857708583E+01 -0.40632123118E+02 -0.16506578441E+02  0.44708826604E+02  0.00000000000E+00 0.  1.
         14    1    6    6    0    0 -0.77086032135E+01 -0.43396548442E+02 -0.17698100793E+03  0.18238684204E+03  0.00000000000E+00 0. -1.
         -5    1    3    3    0  503  0.16246008528E+01  0.34484924881E+02 -0.10248382468E+02  0.36317608885E+02  0.47000000000E+01 0.  1.
         11    1    4    4    0    0  0.37635783463E+02 -0.10551359615E+02 -0.39053000480E+03  0.39248116902E+03  0.00000000000E+00 0. -1.
        -12    1    4    4    0    0  0.44941363189E+01  0.33636255102E+02 -0.81086750214E+02  0.87901399185E+02  0.00000000000E+00 0.  1.
</event>
<event>
12    1  0.8747122E-002  0.2081550E+03  0.7818608E-02  0.1143326E+00
         21   -1    0    0  503  502  0.00000000000E+00  0.00000000000E+00  0.85206211306E+02  0.85206211306E+02  0.00000000000E+00 0. -1.
         21   -1    0    0  501  503 -0.00000000000E+00 -0.00000000000E+00 -0.56507981370E+03  0.56507981370E+03  0.00000000000E+00 0.  1.
          6    2    1    2  501    0  0.39862733054E+02 -0.11189905187E+03 -0.34671642394E+03  0.40440173525E+03  0.17093288024E+03 0.  0.
         24    2    3    3    0    0  0.25503126719E+02 -0.12053050353E+03 -0.35577230049E+03  0.38478543714E+03  0.79422232897E+02 0.  0.
         -6    2    1    2    0  502 -0.39862733054E+02  0.11189905187E+03 -0.13315717845E+03  0.24588428975E+03  0.16916800666E+03 0.  0.
        -24    2    5    5    0    0  0.60677955805E+00  0.60459355920E+02 -0.42545334456E+01  0.10124057001E+03  0.81091615240E+02 0.  0.
          5    1    3    3  501    0  0.14359606334E+02  0.86314516562E+01  0.90558765505E+01  0.19616298118E+02  0.47000000000E+01 0. -1.
        -13    1    4    4    0    0 -0.28135336577E+02 -0.28834476862E+02 -0.10288322497E+03  0.11048973799E+03  0.00000000000E+00 0.  1.
         14    1    4    4    0    0  0.53638463296E+02 -0.91696026668E+02 -0.25288907552E+03  0.27429569915E+03  0.00000000000E+00 0. -1.
         -5    1    5    5    0  502 -0.40469512612E+02  0.51439695953E+02 -0.12890264500E+03  0.14464371974E+03  0.47000000000E+01 0.  1.
         13    1    6    6    0    0  0.13854519968E+01  0.71508669098E+02  0.20262933814E+02  0.74337041374E+02  0.00000000000E+00 0. -1.
        -14    1    6    6    0    0 -0.77867243871E+00 -0.11049313178E+02 -0.24517467260E+02  0.26903528641E+02  0.00000000000E+00 0.  1.
</event>
<event>
12    1  0.8747122E-002  0.2503374E+03  0.7818608E-02  0.1113209E+00
         21   -1    0    0  503  502  0.00000000000E+00  0.00000000000E+00  0.52242874523E+03  0.52242874523E+03  0.00000000000E+00 0. -1.
         21   -1    0    0  501  503 -0.00000000000E+00 -0.00000000000E+00 -0.13478440597E+03  0.13478440597E+03  0.00000000000E+00 0.  1.
          6    2    1    2  501    0 -0.64323296648E+02  0.17002759641E+03  0.83789804721E+02  0.26398779661E+03  0.17211029995E+03 0.  0.
         24    2    3    3    0    0 -0.96520083411E+02  0.69534325400E+02  0.34564887041E+02  0.14745147987E+03  0.79975362398E+02 0.  0.
         -6    2    1    2    0  502  0.64323296648E+02 -0.17002759641E+03  0.30385453454E+03  0.39322535460E+03  0.17103137519E+03 0.  0.
        -24    2    5    5    0    0  0.16946608421E+02 -0.33570125249E+02  0.18686348999E+03  0.20728400220E+03  0.81452764421E+02 0.  0.
          5    1    3    3  501    0  0.32196786762E+02  0.10049327101E+03  0.49224917680E+02  0.11653631673E+03  0.47000000000E+01 0. -1.
        -13    1    4    4    0    0 -0.47306905217E+02  0.34713166074E+02 -0.24006459118E+02  0.63397612412E+02  0.00000000000E+00 0.  1.
         14    1    4    4    0    0 -0.49213178194E+02  0.34821159326E+02  0.58571346159E+02  0.84053867463E+02  0.00000000000E+00 0. -1.
         -5    1    5    5    0  502  0.47376688228E+02 -0.13645747117E+03  0.11699104455E+03  0.18594135239E+03  0.47000000000E+01 0.  1.
         13    1    6    6    0    0 -0.10819385155E+02 -0.49320632785E+02  0.15125969296E+03  0.15946497618E+03  0.00000000000E+00 0. -1.
        -14    1    6    6    0    0  0.27765993576E+02  0.15750507536E+02  0.35603797028E+02  0.47819026022E+02  0.00000000000E+00 0.  1.
</event>
<event>
12    1  0.8747122E-002  0.2044581E+03  0.7818608E-02  0.1146408E+00
         21   -1    0    0  501  502  0.00000000000E+00  0.00000000000E+00  0.20169279355E+03  0.20169279355E+03  0.00000000000E+00 0.  1.
         21   -1    0    0  502  503 -0.00000000000E+00 -0.00000000000E+00 -0.65597277650E+03  0.65597277650E+03  0.00000000000E+00 0. -1.
         -6    2    1    2    0  503 -0.10689672387E+03  0.24409116228E+02 -0.58286114881E+03  0.61768134491E+03  0.17257001630E+03 0.  0.
        -24    2    3    3    0    0  0.17870320587E+00  0.54476147445E+01 -0.36896718325E+03  0.37768675304E+03  0.80503370517E+02 0.  0.
          6    2    1    2  501    0  0.10689672387E+03 -0.24409116228E+02  0.12858116586E+03  0.23998422514E+03  0.17040128396E+03 0.  0.
         24    2    5    5    0    0  0.44088189596E+02 -0.97686166249E+01  0.85089281630E+01  0.10360721655E+03  0.92859351337E+02 0.  0.
          5    1    5    5  501    0  0.62808534278E+02 -0.14640499603E+02  0.12007223770E+03  0.13637700859E+03  0.47000000000E+01 0. -1.
        -13    1    6    6    0    0  0.68360848421E+02 -0.23442580713E+02  0.17455133967E+02  0.74346767845E+02  0.00000000000E+00 0.  1.
         14    1    6    6    0    0 -0.24272658825E+02  0.13673964088E+02 -0.89462058036E+01  0.29260448708E+02  0.00000000000E+00 0. -1.
         -5    1    3    3    0  503 -0.10707542708E+03  0.18961501483E+02 -0.21389396556E+03  0.23999459186E+03  0.47000000000E+01 0.  1.
         11    1    4    4    0    0  0.55037268434E+01  0.32840713994E+02 -0.31661732299E+03  0.31836352292E+03  0.00000000000E+00 0. -1.
        -12    1    4    4    0    0 -0.53250236375E+01 -0.27393099250E+02 -0.52349860261E+02  0.59323230127E+02  0.00000000000E+00 0.  1.
</event>
<event>
12    1  0.8747122E-002  0.1760523E+03  0.7818608E-02  0.1172224E+00
         21   -1    0    0  503  502  0.00000000000E+00  0.00000000000E+00  0.22881776501E+03  0.22881776501E+03  0.00000000000E+00 0. -1.
         21   -1    0    0  501  503 -0.00000000000E+00 -0.00000000000E+00 -0.13644416272E+03  0.13644416272E+03  0.00000000000E+00 0. -1.
          6    2    1    2  501    0  0.31912426948E+02 -0.28642800205E-01  0.20992065291E+02  0.17729944193E+03  0.17313584692E+03 0.  0.
         24    2    3    3    0    0  0.44751342670E+02 -0.49523257405E+02  0.53168379211E+02  0.11670274393E+03  0.79607902857E+02 0.  0.
         -6    2    1    2    0  502 -0.31912426948E+02  0.28642800205E-01  0.71381537000E+02  0.18796248579E+03  0.17092737764E+03 0.  0.
        -24    2    5    5    0    0 -0.23935637603E+02  0.65669835236E+02  0.52748141250E+02  0.11910256458E+03  0.80731731530E+02 0.  0.
          5    1    3    3  501    0 -0.12838915723E+02  0.49494614605E+02 -0.32176313920E+02  0.60596698006E+02  0.47000000000E+01 0. -1.
        -11    1    4    4    0    0 -0.20473152055E+02 -0.26088167869E+02  0.84520055703E+01  0.34222490500E+02  0.00000000000E+00 0.  1.
         12    1    4    4    0    0  0.65224494726E+02 -0.23435089536E+02  0.44716373641E+02  0.82480253427E+02  0.00000000000E+00 0. -1.
         -5    1    5    5    0  502 -0.79767893444E+01 -0.65641192436E+02  0.18633395750E+02  0.68859921216E+02  0.47000000000E+01 0.  1.
         11    1    6    6    0    0 -0.37166714272E+02 -0.12469887544E+00  0.31463924730E+02  0.48696599050E+02  0.00000000000E+00 0. -1.
        -12    1    6    6    0    0  0.13231076669E+02  0.65794534111E+02  0.21284216519E+02  0.70405965526E+02  0.00000000000E+00 0.  1.
</event>
<event>
12    1  0.8747122E-002  0.1797017E+03  0.7818608E-02  0.1168449E+00
         21   -1    0    0  503  502  0.00000000000E+00  0.00000000000E+00  0.30984726863E+04  0.30984726863E+04  0.00000000000E+00 0.  1.
         21   -1    0    0  501  503 -0.00000000000E+00 -0.00000000000E+00 -0.21973614390E+03  0.21973614390E+03  0.00000000000E+00 0.  1.
          6    2    1    2  501    0 -0.29121442435E+02  0.29766999595E+02 -0.17996253925E+03  0.25432106664E+03  0.17481005901E+03 0.  0.
         24    2    3    3    0    0 -0.14214943086E+01 -0.15187483950E+02 -0.18254797648E+03  0.20124595758E+03  0.83327614918E+02 0.  0.
         -6    2    1    2    0  502  0.29121442435E+02 -0.29766999595E+02  0.30586990817E+04  0.30638877636E+04  0.17330326847E+03 0.  0.
        -24    2    5    5    0    0  0.42930464231E+02  0.40628537164E+02  0.13442421581E+04  0.13479242286E+04  0.80118933800E+02 0.  0.
          5    1    3    3  501    0 -0.27699948126E+02  0.44954483545E+02  0.25854372310E+01  0.53075109069E+02  0.47000000000E+01 0. -1.
        -13    1    4    4    0    0 -0.23224897337E+02 -0.38638030843E+02 -0.14526768074E+03  0.15210191436E+03  0.00000000000E+00 0.  1.
         14    1    4    4    0    0  0.21803403028E+02  0.23450546894E+02 -0.37280295745E+02  0.49144043221E+02  0.00000000000E+00 0. -1.
         -5    1    5    5    0  502 -0.13809021796E+02 -0.70395536759E+02  0.17144569236E+04  0.17159635350E+04  0.47000000000E+01 0.  1.
         11    1    6    6    0    0 -0.84019398730E+01  0.40574268175E+02  0.85337277996E+03  0.85437811618E+03  0.00000000000E+00 0. -1.
        -12    1    6    6    0    0  0.51332404104E+02  0.54268989225E-01  0.49086937814E+03  0.49354611239E+03  0.00000000000E+00 0.  1.
</event>
<event>
12    1  0.8747122E-002  0.2118789E+03  0.7818608E-02  0.1140181E+00
         21   -1    0    0  501  502  0.00000000000E+00  0.00000000000E+00  0.78466872666E+02  0.78466872666E+02  0.00000000000E+00 0.  1.
         21   -1    0    0  502  503 -0.00000000000E+00 -0.00000000000E+00 -0.57157224243E+03  0.57157224243E+03  0.00000000000E+00 0. -1.
         -6    2    1    2    0  503 -0.98153787300E+02  0.75010210681E+02 -0.25801375900E+03  0.33355729869E+03  0.17154787672E+03 0.  0.
        -24    2    3    3    0    0 -0.94828620323E+02  0.10478054187E+03 -0.14770480109E+03  0.21915674996E+03  0.79003440445E+02 0.  0.
          6    2    1    2  501    0  0.98153787300E+02 -0.75010210681E+02 -0.23509161077E+03  0.31648181641E+03  0.17213941152E+03 0.  0.
         24    2    5    5    0    0  0.58819600328E+02  0.24599774705E+02 -0.91793432170E+02  0.13752432022E+03  0.80137445456E+02 0.  0.
          5    1    5    5  501    0  0.39334186972E+02 -0.99609985386E+02 -0.14329817860E+03  0.17895749619E+03  0.47000000000E+01 0. -1.
        -11    1    6    6    0    0  0.10215289835E+02  0.47079665602E+02 -0.51399244507E+02  0.70446642188E+02  0.00000000000E+00 0.  1.
         12    1    6    6    0    0  0.48604310493E+02 -0.22479890897E+02 -0.40394187664E+02  0.67077678033E+02  0.00000000000E+00 0. -1.
         -5    1    3    3    0  503 -0.33251669766E+01 -0.29770331184E+02 -0.11030895791E+03  0.11440054873E+03  0.47000000000E+01 0.  1.
         13    1    4    4    0    0 -0.10913079554E+02  0.11108917723E+02 -0.69138052544E+02  0.70870118301E+02  0.00000000000E+00 0. -1.
        -14    1    4    4    0    0 -0.83915540769E+02  0.93671624143E+02 -0.78566748549E+02  0.14828663166E+03  0.00000000000E+00 0.  1.
</event>
<event>
12    1  0.8747122E-002  0.1836843E+03  0.7818608E-02  0.1164787E+00
         21   -1    0    0  503  502  0.00000000000E+00  0.00000000000E+00  0.10295607250E+03  0.10295607250E+03  0.00000000000E+00 0. -1.
         21   -1    0    0  501  503 -0.00000000000E+00 -0.00000000000E+00 -0.32408451973E+03  0.32408451973E+03  0.00000000000E+00 0. -1.
          6    2    1    2  501    0 -0.63442122411E+02  0.47874324741E+01 -0.10540561687E+03  0.20994221824E+03  0.17005166429E+03 0.  0.
         24    2    3    3    0    0 -0.89343882776E+02 -0.33011730958E+02 -0.36472402453E+02  0.12703530661E+03  0.75733937008E+02 0.  0.
         -6    2    1    2    0  502  0.63442122411E+02 -0.47874324741E+01 -0.11572283036E+03  0.21709837399E+03  0.17231398120E+03 0.  0.
        -24    2    5    5    0    0  0.41574240056E+02 -0.26601250964E+02  0.39539438927E+01  0.93410592652E+02  0.79207708957E+02 0.  0.
          5    1    3    3  501    0  0.25901760364E+02  0.37799163433E+02 -0.68933214417E+02  0.82906911630E+02  0.47000000000E+01 0. -1.
        -13    1    4    4    0    0 -0.18562290559E+02 -0.13549735836E+02  0.23033733782E+02  0.32537775953E+02  0.00000000000E+00 0.  1.
         14    1    4    4    0    0 -0.70781592217E+02 -0.19461995123E+02 -0.59506136235E+02  0.94497530658E+02  0.00000000000E+00 0. -1.
         -5    1    5    5    0  502  0.21867882355E+02  0.21813818490E+02 -0.11967677425E+03  0.12368778134E+03  0.47000000000E+01 0.  1.
         13    1    6    6    0    0  0.63356576640E+02 -0.24345793226E+02  0.14024830153E+02  0.69307065384E+02  0.00000000000E+00 0. -1.
        -14    1    6    6    0    0 -0.21782336584E+02 -0.22554577384E+01 -0.10070886261E+02  0.24103527268E+02  0.00000000000E+00 0.  1.
</event>
<event>
12    1  0.8747122E-002  0.2133431E+03  0.7818608E-02  0.1139170E+00
         21   -1    0    0  501  502  0.00000000000E+00  0.00000000000E+00  0.11552221983E+04  0.11552221983E+04  0.00000000000E+00 0. -1.
         21   -1    0    0  502  503 -0.00000000000E+00 -0.00000000000E+00 -0.43274282646E+02  0.43274282646E+02  0.00000000000E+00 0.  1.
         -6    2    1    2    0  503  0.49935276242E+02  0.11431757220E+03  0.37043195157E+03  0.42689994485E+03  0.17164408829E+03 0.  0.
        -24    2    3    3    0    0 -0.25123450264E+02  0.95711111873E+02  0.26777547289E+03  0.29829024302E+03  0.86496014421E+02 0.  0.
          6    2    1    2  501    0 -0.49935276242E+02 -0.11431757220E+03  0.74151596408E+03  0.77159653609E+03  0.17307007364E+03 0.  0.
         24    2    5    5    0    0  0.69484521104E+01 -0.12987068232E+03  0.51126940720E+03  0.53387143278E+03  0.81900090903E+02 0.  0.
          5    1    5    5  501    0 -0.56883728353E+02  0.15553110118E+02  0.23024655688E+03  0.23772510330E+03  0.47000000000E+01 0. -1.
        -13    1    6    6    0    0 -0.93675240191E+01  0.82685280017E+01  0.22997323945E+02  0.26172427671E+02  0.00000000000E+00 0.  1.
         14    1    6    6    0    0  0.16315976130E+02 -0.13813921032E+03  0.48827208325E+03  0.50769900511E+03  0.00000000000E+00 0. -1.
         -5    1    3    3    0  503  0.75058726506E+02  0.18606460331E+02  0.10265647868E+03  0.12860970183E+03  0.47000000000E+01 0.  1.
         11    1    4    4    0    0 -0.31317280902E+02 -0.24832757845E+01  0.46397625404E+02  0.56032833097E+02  0.00000000000E+00 0. -1.
        -12    1    4    4    0    0  0.61938306381E+01  0.98194387657E+02  0.22137784749E+03  0.24225740993E+03  0.00000000000E+00 0.  1.
</event>
<event>
12    1  0.8747122E-002  0.2875945E+03  0.7818608E-02  0.1093292E+00
         21   -1    0    0  501  502  0.00000000000E+00  0.00000000000E+00  0.10389885987E+03  0.10389885987E+03  0.00000000000E+00 0.  1.
         21   -1    0    0  502  503 -0.00000000000E+00 -0.00000000000E+00 -0.77419048028E+03  0.77419048028E+03  0.00000000000E+00 0. -1.
         -6    2    1    2    0  503  0.13217422136E+03 -0.18192921370E+03 -0.28737833539E+03  0.40656718539E+03  0.17928275153E+03 0.  0.
        -24    2    3    3    0    0  0.46620485996E+02 -0.12133070304E+03 -0.25446276765E+03  0.29658016012E+03  0.79459939843E+02 0.  0.
          6    2    1    2  501    0 -0.13217422136E+03  0.18192921370E+03 -0.38291328502E+03  0.47152215475E+03  0.15856322080E+03 0.  0.
         24    2    5    5    0    0 -0.85713135793E+02  0.71946201437E+02 -0.28565124332E+03  0.31745434431E+03  0.81594303499E+02 0.  0.
          5    1    5    5  501    0 -0.46461085566E+02  0.10998301226E+03 -0.97262041696E+02  0.15406781044E+03  0.47000000000E+01 0. -1.
        -11    1    6    6    0    0  0.87494740183E+01  0.35902387610E+02 -0.65728960049E+02  0.75404448946E+02  0.00000000000E+00 0.  1.
         12    1    6    6    0    0 -0.94462609812E+02  0.36043813828E+02 -0.21992228327E+03  0.24204989537E+03  0.00000000000E+00 0. -1.
         -5    1    3    3    0  503  0.85553735364E+02 -0.60598510659E+02 -0.32915567733E+02  0.10998702527E+03  0.47000000000E+01 0.  1.
         13    1    4    4    0    0  0.58977305614E+02 -0.11617918585E+03 -0.18770406414E+03  0.22849232263E+03  0.00000000000E+00 0. -1.
        -14    1    4    4    0    0 -0.12356819619E+02 -0.51515171915E+01 -0.66758703509E+02  0.68087837495E+02  0.00000000000E+00 0.  1.
</event>
<event>
12    1  0.8747122E-002  0.1880885E+03  0.7818608E-02  0.1161454E+00
         21   -1    0    0  503  502  0.00000000000E+00  0.00000000000E+00  0.10834441620E+03  0.10834441620E+03  0.00000000000E+00 0. -1.
         21   -1    0    0  501  503 -0.00000000000E+00 -0.00000000000E+00 -0.33939054142E+03  0.33939054142E+03  0.00000000000E+00 0. -1.
          6    2    1    2  501    0 -0.35289169391E+02  0.59649970548E+02 -0.17119464251E+03  0.25035342163E+03  0.16901415809E+03 0.  0.
         24    2    3    3    0    0  0.34177414474E+02 -0.34370981106E+01 -0.90400943855E+02  0.12643693262E+03  0.81449726687E+02 0.  0.
         -6    2    1    2    0  502  0.35289169391E+02 -0.59649970548E+02 -0.59851482716E+02  0.19738153599E+03  0.17485372831E+03 0.  0.
        -24    2    5    5    0    0  0.37546554912E+02  0.11356904862E+02 -0.78141370647E+02  0.12387179415E+03  0.87746364626E+02 0.  0.
          5    1    3    3  501    0 -0.69466583865E+02  0.63087068659E+02 -0.80793698652E+02  0.12391648901E+03  0.47000000000E+01 0. -1.
        -13    1    4    4    0    0  0.15676735732E+02  0.22336074749E+01  0.13463740862E+02  0.20785123612E+02  0.00000000000E+00 0.  1.
         14    1    4    4    0    0  0.18500678743E+02 -0.56707055854E+01 -0.10386468472E+03  0.10565180901E+03  0.00000000000E+00 0. -1.
         -5    1    5    5    0  502 -0.22573855209E+01 -0.71006875410E+02  0.18289887931E+02  0.73509741840E+02  0.47000000000E+01 0.  1.
         13    1    6    6    0    0  0.32800590764E+02  0.43670160911E+01  0.10586753850E+02  0.34742322045E+02  0.00000000000E+00 0. -1.
        -14    1    6    6    0    0  0.47459641478E+01  0.69898887705E+01 -0.88728124497E+02  0.89129472104E+02  0.00000000000E+00 0.  1.
</event>
<event>
12    1  0.8747122E-002  0.2917311E+03  0.7818608E-02  0.1089569E+00
         21   -1    0    0  503  502  0.00000000000E+00  0.00000000000E+00  0.78112071704E+03  0.78112071704E+03  0.00000000000E+00 0.  1.
         21   -1    0    0  501  503 -0.00000000000E+00 -0.00000000000E+00 -0.16257485323E+03  0.16257485323E+03  0.00000000000E+00 0. -1.
          6    2    1    2  501    0 -0.25318289300E+02 -0.23404151401E+03  0.37750948435E+02  0.29416354624E+03  0.17230963925E+03 0.  0.
         24    2    3    3    0    0 -0.66444121170E+02 -0.19543106147E+03  0.67736172405E+02  0.23010650332E+03  0.75846508105E+02 0.  0.
         -6    2    1    2    0  502  0.25318289300E+02  0.23404151401E+03  0.58079491538E+03  0.64953202403E+03  0.17074153117E+03 0.  0.
        -24    2    5    5    0    0  0.23734108647E+02  0.46043180509E+02  0.26616609760E+03  0.28298152820E+03  0.80937453642E+02 0.  0.
          5    1    3    3  501    0  0.41125831870E+02 -0.38610452536E+02 -0.29985223969E+02  0.64057042927E+02  0.47000000000E+01 0. -1.
        -11    1    4    4    0    0 -0.77074203384E+02 -0.18300112957E+03  0.47655534457E+02  0.20420797295E+03  0.00000000000E+00 0.  1.
         12    1    4    4    0    0  0.10630082213E+02 -0.12429931898E+02  0.20080637947E+02  0.25898530368E+02  0.00000000000E+00 0. -1.
         -5    1    5    5    0  502  0.15841806533E+01  0.18799833350E+03  0.31462881777E+03  0.36655049584E+03  0.47000000000E+01 0.  1.
         11    1    6    6    0    0 -0.24867262100E+02  0.26527481850E+02  0.59055417244E+02  0.69351498351E+02  0.00000000000E+00 0. -1.
        -12    1    6    6    0    0  0.48601370747E+02  0.19515698659E+02  0.20711068036E+03  0.21363002985E+03  0.00000000000E+00 0.  1.
</event>
<event>
12    1  0.8747122E-002  0.2047286E+03  0.7818608E-02  0.1145903E+00
         21   -1    0    0  501  502  0.00000000000E+00  0.00000000000E+00  0.37831803433E+02  0.37831803433E+02  0.00000000000E+00 0.  1.
         21   -1    0    0  502  503 -0.00000000000E+00 -0.00000000000E+00 -0.12584221365E+04  0.12584221365E+04  0.00000000000E+00 0.  1.
         -6    2    1    2    0  503 -0.72984789472E+02 -0.82102160471E+02 -0.83688430209E+03  0.86156204129E+03  0.17276073531E+03 0.  0.
        -24    2    3    3    0    0 -0.55521789109E+02 -0.62918236659E+02 -0.82501730064E+03  0.83265019186E+03  0.74909425788E+02 0.  0.
          6    2    1    2  501    0  0.72984789472E+02  0.82102160471E+02 -0.38370603095E+03  0.43469189861E+03  0.17221842028E+03 0.  0.
         24    2    5    5    0    0  0.56631713189E+02  0.31651221710E+02 -0.90120679264E+02  0.13631768885E+03  0.79068481005E+02 0.  0.
          5    1    5    5  501    0  0.16353076283E+02  0.50450938762E+02 -0.29358535169E+03  0.29837420976E+03  0.47000000000E+01 0. -1.
        -13    1    6    6    0    0  0.59194549984E+02 -0.55342599096E+01 -0.32678133475E+02  0.67841603665E+02  0.00000000000E+00 0.  1.
         14    1    6    6    0    0 -0.25628367945E+01  0.37185481619E+02 -0.57442545790E+02  0.68476085187E+02  0.00000000000E+00 0. -1.
         -5    1    3    3    0  503 -0.17463000363E+02 -0.19183923812E+02 -0.11867001450E+02  0.28911849438E+02  0.47000000000E+01 0.  1.
         13    1    4    4    0    0 -0.19628383692E+02  0.15954709280E+02 -0.22250119947E+03  0.22393438762E+03  0.00000000000E+00 0. -1.
        -14    1    4    4    0    0 -0.35893405417E+02 -0.78872945938E+02 -0.60251610117E+03  0.60871580424E+03  0.00000000000E+00 0.  1.
</event>
<event>
12    1  0.8747122E-002  0.2120046E+03  0.7818608E-02  0.1140163E+00
         21   -1    0    0  501  502  0.00000000000E+00  0.00000000000E+00  0.34119342218E+03  0.34119342218E+03  0.00000000000E+00 0.  1.
         21   -1    0    0  502  503 -0.00000000000E+00 -0.00000000000E+00 -0.17492541523E+03  0.17492541523E+03  0.00000000000E+00 0.  1.
         -6    2    1    2    0  503 -0.11074743754E+03  0.53652864791E+02 -0.46050671996E+02  0.21607688211E+03  0.17153696327E+03 0.  0.
        -24    2    3    3    0    0 -0.96117986740E+02 -0.24417609738E+02 -0.57790018139E+02  0.13564727268E+03  0.72288376312E+02 0.  0.
          6    2    1    2  501    0  0.11074743754E+03 -0.53652864791E+02  0.21231867894E+03  0.30004195530E+03  0.17263350977E+03 0.  0.
         24    2    5    5    0    0  0.11491488998E+03 -0.22031761975E+02  0.77719058222E+02  0.16163527302E+03  0.79967987343E+02 0.  0.
          5    1    5    5  501    0 -0.41674524397E+01 -0.31621102816E+02  0.13459962071E+03  0.13840668228E+03  0.47000000000E+01 0. -1.
        -11    1    6    6    0    0  0.59281218937E+02 -0.30388370518E+02  0.81487114680E+02  0.10525144104E+03  0.00000000000E+00 0.  1.
         12    1    6    6    0    0  0.55633671043E+02  0.83566085427E+01 -0.37680564583E+01  0.56383831987E+02  0.00000000000E+00 0. -1.
         -5    1    3    3    0  503 -0.14629450800E+02  0.78070474530E+02  0.11739346143E+02  0.80429609422E+02  0.47000000000E+01 0.  1.
         11    1    4    4    0    0 -0.12678268573E+02 -0.28420165515E+02  0.45011064054E+01  0.31443668056E+02  0.00000000000E+00 0. -1.
        -12    1    4    4    0    0 -0.83439718168E+02  0.40025557772E+01 -0.62291124544E+02  0.10420360463E+03  0.00000000000E+00 0.  1.
</event>
<event>
12    1  0.8747122E-002  0.2322788E+03  0.7818608E-02  0.1125108E+00
         21   -1    0    0  503  502  0.00000000000E+00  0.00000000000E+00  0.18999663377E+03  0.18999663377E+03  0.00000000000E+00 0.  1.
         21   -1    0    0  501  503 -0.00000000000E+00 -0.00000000000E+00 -0.29465806490E+03  0.29465806490E+03  0.00000000000E+00 0.  1.
          6    2    1    2  501    0 -0.90981038424E+02  0.12780881868E+03 -0.99374755356E+02  0.25231569674E+03  0.17080756814E+03 0.  0.
         24    2    3    3    0    0 -0.79314515598E+02  0.86499996336E+02 -0.13462206563E+03  0.19657532143E+03  0.82132299915E+02 0.  0.
         -6    2    1    2    0  502  0.90981038424E+02 -0.12780881868E+03 -0.52866757749E+01  0.23233900193E+03  0.17129162091E+03 0.  0.
        -24    2    5    5    0    0 -0.10915198292E+02 -0.26677638515E+02 -0.19921090677E+02  0.87955433759E+02  0.80675092336E+02 0.  0.
          5    1    3    3  501    0 -0.11666522826E+02  0.41308822348E+02  0.35247310273E+02  0.55740375313E+02  0.47000000000E+01 0. -1.
        -13    1    4    4    0    0 -0.86711445035E+02  0.83965396651E+02 -0.88185195215E+02  0.14948475237E+03  0.00000000000E+00 0.  1.
         14    1    4    4    0    0  0.73969294374E+01  0.25345996853E+01 -0.46436870414E+02  0.47090569061E+02  0.00000000000E+00 0. -1.
         -5    1    5    5    0  502  0.10189623672E+03 -0.10113118017E+03  0.14634414902E+02  0.14438356817E+03  0.47000000000E+01 0.  1.
         11    1    6    6    0    0 -0.40260137365E+02 -0.19362422363E+02  0.95986426560E+01  0.45693719495E+02  0.00000000000E+00 0. -1.
        -12    1    6    6    0    0  0.29344939073E+02 -0.73152161519E+01 -0.29519733333E+02  0.42261714264E+02  0.00000000000E+00 0.  1.
</event>
<event>
12    1  0.8747122E-002  0.1853060E+03  0.7818608E-02  0.1162805E+00
         21   -1    0    0  503  502  0.00000000000E+00  0.00000000000E+00  0.19092724159E+03  0.19092724159E+03  0.00000000000E+00 0. -1.
         21   -1    0    0  501  503 -0.00000000000E+00 -0.00000000000E+00 -0.22158027493E+03  0.22158027493E+03  0.00000000000E+00 0. -1.
          6    2    1    2  501    0  0.67238750849E+02  0.59890808044E+01  0.74369862656E+02  0.19950961276E+03  0.17238413618E+03 0.  0.
         24    2    3    3    0    0  0.71789066632E+02 -0.44747054739E+02  0.93152938553E+02  0.14501415640E+03  0.72080972515E+02 0.  0.
         -6    2    1    2    0  502 -0.67238750849E+02 -0.59890808044E+01 -0.10502289599E+03  0.21299790376E+03  0.17257282411E+03 0.  0.
        -24    2    5    5    0    0  0.15346091195E+02 -0.36361866357E+02 -0.81224410281E+02  0.12172238591E+03  0.81616460139E+02 0.  0.
          5    1    3    3  501    0 -0.45503157832E+01  0.50736135543E+02 -0.18783075897E+02  0.54495456359E+02  0.47000000000E+01 0. -1.
        -11    1    4    4    0    0  0.85352333500E+02 -0.28526696225E+02  0.75642153922E+02  0.11756074464E+03  0.00000000000E+00 0.  1.
         12    1    4    4    0    0 -0.13563266868E+02 -0.16220358514E+02  0.17510784632E+02  0.27453411753E+02  0.00000000000E+00 0. -1.
         -5    1    5    5    0  502 -0.82584842044E+02  0.30372785553E+02 -0.23798485710E+02  0.91275517855E+02  0.47000000000E+01 0.  1.
         11    1    6    6    0    0 -0.40503449670E+01 -0.42574526629E+02 -0.52766069711E+01  0.43091045394E+02  0.00000000000E+00 0. -1.
        -12    1    6    6    0    0  0.19396436162E+02  0.62126602715E+01 -0.75947803310E+02  0.78631340514E+02  0.00000000000E+00 0.  1.
</event>
<event>
12    1  0.8747122E-002  0.2082269E+03  0.7818608E-02  0.1143358E+00
         21   -1    0    0  501  502  0.00000000000E+00  0.00000000000E+00  0.24238600964E+03  0.24238600964E+03  0.00000000000E+00 0. -1.
         21   -1    0    0  502  503 -0.00000000000E+00 -0.00000000000E+00 -0.25419924678E+03  0.25419924678E+03  0.00000000000E+00 0.  1.
         -6    2    1    2    0  503 -0.10566850173E+03  0.50692768419E+02 -0.14248500813E+03  0.25075292597E+03  0.16982185758E+03 0.  0.
        -24    2    3    3    0    0 -0.98898040571E+02 -0.56704777168E+01 -0.38310266348E+02  0.13202162645E+03  0.78415920555E+02 0.  0.
          6    2    1    2  501    0  0.10566850173E+03 -0.50692768419E+02  0.13067177100E+03  0.24583233045E+03  0.17211285232E+03 0.  0.
         24    2    5    5    0    0  0.30735354599E+02 -0.58099988748E+01 -0.30986855616E+01  0.86000967483E+02  0.80050899099E+02 0.  0.
          5    1    5    5  501    0  0.74933147130E+02 -0.44882769544E+02  0.13377045656E+03  0.15983136297E+03  0.47000000000E+01 0. -1.
        -11    1    6    6    0    0  0.10867450990E+02 -0.20340714604E+02 -0.37305691328E+02  0.43858417288E+02  0.00000000000E+00 0.  1.
         12    1    6    6    0    0  0.19867903609E+02  0.14530715729E+02  0.34207005766E+02  0.42142550195E+02  0.00000000000E+00 0. -1.
         -5    1    3    3    0  503 -0.67704611580E+01  0.56363246136E+02 -0.10417474178E+03  0.11873129952E+03  0.47000000000E+01 0.  1.
         11    1    4    4    0    0 -0.51732400870E+02 -0.39220237321E+02 -0.46971733362E+01  0.65088645344E+02  0.00000000000E+00 0. -1.
        -12    1    4    4    0    0 -0.47165639701E+02  0.33549759605E+02 -0.33613093012E+02  0.66932981106E+02  0.00000000000E+00 0.  1.
</event>
<event>
12    1  0.8747122E-002  0.2932652E+03  0.7818608E-02  0.1088823E+00
         21   -1    0    0  503  502  0.00000000000E+00  0.00000000000E+00  0.36654076777E+03  0.36654076777E+03  0.00000000000E+00 0.  1.
         21   -1    0    0  501  503 -0.00000000000E+00 -0.00000000000E+00 -0.67398749101E+03  0.67398749101E+03  0.00000000000E+00 0. -1.
          6    2    1    2  501    0  0.22146041819E+03  0.80373224749E+02 -0.57438657544E+03  0.64492203686E+03  0.17464227294E+03 0.  0.
         24    2    3    3    0    0  0.21926956272E+02  0.24194399372E+02 -0.14302853447E+03  0.16631832568E+03  0.78348346576E+02 0.  0.
         -6    2    1    2    0  502 -0.22146041819E+03 -0.80373224749E+02  0.26693985220E+03  0.39560622193E+03  0.17246108563E+03 0.  0.
        -24    2    5    5    0    0 -0.17919682697E+03 -0.79302810351E+02  0.28019056403E+03  0.35105256558E+03  0.79565778487E+02 0.  0.
          5    1    3    3  501    0  0.19953346192E+03  0.56178825377E+02 -0.43135804097E+03  0.47860371118E+03  0.47000000000E+01 0. -1.
        -13    1    4    4    0    0 -0.11994979120E+02 -0.90399268597E+01  0.61065474385E+00  0.15032388397E+02  0.00000000000E+00 0.  1.
         14    1    4    4    0    0  0.33921935391E+02  0.33234326232E+02 -0.14363918921E+03  0.15128593728E+03  0.00000000000E+00 0. -1.
         -5    1    5    5    0  502 -0.42263591222E+02 -0.10704143985E+01 -0.13250711828E+02  0.44553656348E+02  0.47000000000E+01 0.  1.
         13    1    6    6    0    0 -0.88143790503E+02 -0.46536230289E+02  0.76851767752E+02  0.12586160153E+03  0.00000000000E+00 0. -1.
        -14    1    6    6    0    0 -0.91053036463E+02 -0.32766580062E+02  0.20333879627E+03  0.22519096405E+03  0.00000000000E+00 0.  1.
</event>
<event>
12    1  0.8747122E-002  0.1775831E+03  0.7818608E-02  0.1170193E+00
         21   -1    0    0  501  502  0.00000000000E+00  0.00000000000E+00  0.54993105283E+02  0.54993105283E+02  0.00000000000E+00 0.  1.
         21   -1    0    0  502  503 -0.00000000000E+00 -0.00000000000E+00 -0.86305392013E+03  0.86305392013E+03  0.00000000000E+00 0.  1.
         -6    2    1    2    0  503 -0.44242314229E+02 -0.15113989137E+01 -0.67020103435E+03  0.69332905259E+03  0.17197698110E+03 0.  0.
        -24    2    3    3    0    0 -0.89064444030E+02  0.24671281546E+02 -0.40195472906E+03  0.42006594426E+03  0.79665839521E+02 0.  0.
          6    2    1    2  501    0  0.44242314229E+02  0.15113989137E+01 -0.13785978049E+03  0.22471797281E+03  0.17185220840E+03 0.  0.
         24    2    5    5    0    0 -0.25938263754E+02 -0.37649785883E+02 -0.44775601367E+02  0.10165024218E+03  0.78978587943E+02 0.  0.
          5    1    5    5  501    0  0.70180577983E+02  0.39161184797E+02 -0.93084179123E+02  0.12306773064E+03  0.47000000000E+01 0. -1.
        -11    1    6    6    0    0 -0.14803107408E+01 -0.29980230282E+02  0.17191373551E+02  0.34591167258E+02  0.00000000000E+00 0.  1.
         12    1    6    6    0    0 -0.24457953013E+02 -0.76695556008E+01 -0.61966974918E+02  0.67059074921E+02  0.00000000000E+00 0. -1.
         -5    1    3    3    0  503  0.44822129800E+02 -0.26182680460E+02 -0.26824630529E+03  0.27326310834E+03  0.47000000000E+01 0.  1.
         13    1    4    4    0    0 -0.25870786516E+02  0.43907635193E+02 -0.23616473184E+03  0.24160082490E+03  0.00000000000E+00 0. -1.
        -14    1    4    4    0    0 -0.63193657514E+02 -0.19236353647E+02 -0.16578999722E+03  0.17846511936E+03  0.00000000000E+00 0.  1.
</event>
<event>
12    1  0.8747122E-002  0.1964812E+03  0.7818608E-02  0.1152763E+00
         21   -1    0    0  503  502  0.00000000000E+00  0.00000000000E+00  0.27743859043E+02  0.27743859043E+02  0.00000000000E+00 0. -1.
         21   -1    0    0  501  503 -0.00000000000E+00 -0.00000000000E+00 -0.21105360177E+04  0.21105360177E+04  0.00000000000E+00 0. -1.
          6    2    1    2  501    0 -0.90322561016E+02  0.30839034881E+02 -0.16659227662E+04  0.16774693778E+04  0.17174294565E+03 0.  0.
         24    2    3    3    0    0 -0.76407844218E+01 -0.42054563306E-02 -0.37642504650E+03  0.38494702179E+03  0.80187357774E+02 0.  0.
         -6    2    1    2    0  502  0.90322561016E+02 -0.30839034881E+02 -0.41686939243E+03  0.46081049893E+03  0.17163045905E+03 0.  0.
        -24    2    5    5    0    0  0.90042386489E+02  0.32947502393E+02 -0.22507857741E+03  0.25863580328E+03  0.83898411480E+02 0.  0.
          5    1    3    3  501    0 -0.82681776594E+02  0.30843240337E+02 -0.12894977197E+04  0.12925223560E+04  0.47000000000E+01 0. -1.
        -11    1    4    4    0    0 -0.26520975772E+02  0.30317292477E+02 -0.13458924301E+03  0.14048759630E+03  0.00000000000E+00 0.  1.
         12    1    4    4    0    0  0.18880191350E+02 -0.30321497933E+02 -0.24183580349E+03  0.24445942549E+03  0.00000000000E+00 0. -1.
         -5    1    5    5    0  502  0.28017452670E+00 -0.63786537274E+02 -0.19179081502E+03  0.20217469565E+03  0.47000000000E+01 0.  1.
         13    1    6    6    0    0  0.25444639722E+01  0.19880301127E+01  0.75304369822E+01  0.81935365855E+01  0.00000000000E+00 0. -1.
        -14    1    6    6    0    0  0.87497922517E+02  0.30959472280E+02 -0.23260901439E+03  0.25044226669E+03  0.00000000000E+00 0.  1.
</event>
<event>
12    1  0.8747122E-002  0.1853290E+03  0.7818608E-02  0.1162974E+00
         21   -1    0    0  501  502  0.00000000000E+00  0.00000000000E+00  0.10937312625E+03  0.10937312625E+03  0.00000000000E+00 0. -1.
         21   -1    0    0  502  503 -0.00000000000E+00 -0.00000000000E+00 -0.31346417599E+03  0.31346417599E+03  0.00000000000E+00 0.  1.
         -6    2    1    2    0  503 -0.46178482204E+02 -0.48558644606E+02 -0.89777727856E+02  0.20592932611E+03  0.17279019865E+03 0.  0.
        -24    2    3    3    0    0  0.28245476682E+02  0.16117522243E+02 -0.36465091048E+02  0.93740826442E+02  0.80000363753E+02 0.  0.
          6    2    1    2  501    0  0.46178482204E+02  0.48558644606E+02 -0.11431332189E+03  0.21690797613E+03  0.17172984704E+03 0.  0.
         24    2    5    5    0    0  0.21340822178E+01 -0.35391953405E+02 -0.44561643670E+02  0.99115791799E+02  0.81123704455E+02 0.  0.
          5    1    5    5  501    0  0.44044399986E+02  0.83950598011E+02 -0.69751678216E+02  0.11779218434E+03  0.47000000000E+01 0. -1.
        -13    1    6    6    0    0  0.19267930342E+02 -0.20664144527E+02 -0.63585272121E+02  0.69579787578E+02  0.00000000000E+00 0.  1.
         14    1    6    6    0    0 -0.17133848124E+02 -0.14727808878E+02  0.19023628451E+02  0.29536004220E+02  0.00000000000E+00 0. -1.
         -5    1    3    3    0  503 -0.74423958886E+02 -0.64676166849E+02 -0.53312636808E+02  0.11218849967E+03  0.47000000000E+01 0.  1.
         11    1    4    4    0    0 -0.15175439529E+02 -0.16985806374E+02  0.71344203351E+01  0.23868630807E+02  0.00000000000E+00 0. -1.
        -12    1    4    4    0    0  0.43420916211E+02  0.33103328617E+02 -0.43599511383E+02  0.69872195635E+02  0.00000000000E+00 0.  1.
</event>
<event>
12    1  0.8747122E-002  0.2589955E+03  0.7818608E-02  0.1107962E+00
         21   -1    0    0  503  502  0.00000000000E+00  0.00000000000E+00  0.13885981409E+03  0.13885981409E+03  0.00000000000E+00 0.  1.
         21   -1    0    0  501  503 -0.00000000000E+00 -0.00000000000E+00 -0.56912558841E+03  0.56912558841E+03  0.00000000000E+00 0. -1.
          6    2    1    2  501    0  0.60331301611E+02 -0.18041856348E+03 -0.35437980830E+03  0.43810147757E+03  0.17365808971E+03 0.  0.
         24    2    3    3    0    0  0.56116169215E+02 -0.97603493807E+02 -0.10230405451E+03  0.17269541368E+03  0.81744234571E+02 0.  0.
         -6    2    1    2    0  502 -0.60331301611E+02  0.18041856348E+03 -0.75885966028E+02  0.26988392493E+03  0.17574962046E+03 0.  0.
        -24    2    5    5    0    0  0.46706016719E+01  0.91272392163E+02  0.20830693596E+02  0.12308988710E+03  0.79779310729E+02 0.  0.
          5    1    3    3  501    0  0.42151323959E+01 -0.82815069674E+02 -0.25207575378E+03  0.26540606390E+03  0.47000000000E+01 0. -1.
        -13    1    4    4    0    0  0.24533228356E+02 -0.10298273530E+03 -0.87761861461E+02  0.13751169911E+03  0.00000000000E+00 0.  1.
         14    1    4    4    0    0  0.31582940859E+02  0.53792414962E+01 -0.14542193051E+02  0.35183714573E+02  0.00000000000E+00 0. -1.
         -5    1    5    5    0  502 -0.65001903283E+02  0.89146171318E+02 -0.96716659624E+02  0.14679403782E+03  0.47000000000E+01 0.  1.
         13    1    6    6    0    0 -0.21492017968E+01  0.14221166985E+02 -0.28095548591E+02  0.31562961036E+02  0.00000000000E+00 0. -1.
        -14    1    6    6    0    0  0.68198034687E+01  0.77051225179E+02  0.48926242187E+02  0.91526926068E+02  0.00000000000E+00 0.  1.
</event>
<event>
12    1  0.8747122E-002  0.2110031E+03  0.7818608E-02  0.1140784E+00
         21   -1    0    0  503  502  0.00000000000E+00  0.00000000000E+00  0.11228322652E+03  0.11228322652E+03  0.00000000000E+00 0.  1.
         21   -1    0    0  501  503 -0.00000000000E+00 -0.00000000000E+00 -0.10538724795E+04  0.10538724795E+04  0.00000000000E+00 0.  1.
          6    2    1    2  501    0  0.86872943866E+01 -0.12168417425E+03 -0.93130936014E+03  0.95490233665E+03  0.17210125195E+03 0.  0.
         24    2    3    3    0    0 -0.16021873431E+02 -0.26613569255E+02 -0.67375046482E+03  0.67920750997E+03  0.80113483546E+02 0.  0.
         -6    2    1    2    0  502 -0.86872943866E+01  0.12168417425E+03 -0.10279892878E+02  0.21125336941E+03  0.17216214027E+03 0.  0.
        -24    2    5    5    0    0 -0.90240255379E+01 -0.18573291625E+01 -0.30708736632E+02  0.85945571924E+02  0.79741658619E+02 0.  0.
          5    1    3    3  501    0  0.24709167818E+02 -0.95070604993E+02 -0.25755889531E+03  0.27569482669E+03  0.47000000000E+01 0. -1.
        -13    1    4    4    0    0 -0.48492548397E+02 -0.15835855881E+02 -0.44462667674E+03  0.44754349872E+03  0.00000000000E+00 0.  1.
         14    1    4    4    0    0  0.32470674966E+02 -0.10777713374E+02 -0.22912378809E+03  0.23166401125E+03  0.00000000000E+00 0. -1.
         -5    1    5    5    0  502  0.33673115128E+00  0.12354150341E+03  0.20428843754E+02  0.12530779748E+03  0.47000000000E+01 0.  1.
         13    1    6    6    0    0  0.23687648273E+02 -0.13328958908E+02 -0.41527555363E+02  0.49631680212E+02  0.00000000000E+00 0. -1.
        -14    1    6    6    0    0 -0.32711673811E+02  0.11471629746E+02  0.10818818731E+02  0.36313891712E+02  0.00000000000E+00 0.  1.
</event>
<event>
12    1  0.8747122E-002  0.2125049E+03  0.7818608E-02  0.1139742E+00
         21   -1    0    0  503  502  0.00000000000E+00  0.00000000000E+00  0.35160177165E+02  0.35160177165E+02  0.00000000000E+00 0. -1.
         21   -1    0    0  501  503 -0.00000000000E+00 -0.00000000000E+00 -0.15692666433E+04  0.15692666433E+04  0.00000000000E+00 0.  1.
          6    2    1    2  501    0 -0.90061548806E+02  0.86076365565E+02 -0.11104459178E+04  0.11304578464E+04  0.17124421981E+03 0.  0.
         24    2    3    3    0    0 -0.72678941488E+02  0.45177025107E+02 -0.10432444854E+04  0.10497544784E+04  0.79386500656E+02 0.  0.
         -6    2    1    2    0  502  0.90061548806E+02 -0.86076365565E+02 -0.42366054834E+03  0.47396897408E+03  0.17215720981E+03 0.  0.
        -24    2    5    5    0    0  0.61050758668E+02 -0.33268151601E+01 -0.12723619258E+03  0.16481108121E+03  0.85061042522E+02 0.  0.
          5    1    3    3  501    0 -0.17382607319E+02  0.40899340458E+02 -0.67201432415E+02  0.80703367995E+02  0.47000000000E+01 0. -1.
        -13    1    4    4    0    0 -0.52788478366E+02  0.57289973093E+02 -0.50194742401E+03  0.50795667230E+03  0.00000000000E+00 0.  1.
         14    1    4    4    0    0 -0.19890463122E+02 -0.12112947987E+02 -0.54129706141E+03  0.54179780613E+03  0.00000000000E+00 0. -1.
         -5    1    5    5    0  502  0.29010790139E+02 -0.82749550404E+02 -0.29642435576E+03  0.30915789287E+03  0.47000000000E+01 0.  1.
         11    1    6    6    0    0  0.75027390626E+02 -0.10751350439E+02 -0.12822840366E+03  0.14895376594E+03  0.00000000000E+00 0. -1.
        -12    1    6    6    0    0 -0.13976631958E+02  0.74245352785E+01  0.99221108050E+00  0.15857315278E+02  0.00000000000E+00 0.  1.
</event>
<event>
12    1  0.8747122E-002  0.2065503E+03  0.7818608E-02  0.1144735E+00
         21   -1    0    0  503  502  0.00000000000E+00  0.00000000000E+00  0.50114265919E+03  0.50114265919E+03  0.00000000000E+00 0.  1.
         21   -1    0    0  501  503 -0.00000000000E+00 -0.00000000000E+00 -0.88995565037E+02  0.88995565037E+02  0.00000000000E+00 0. -1.
          6    2    1    2  501    0  0.21712802301E+02 -0.10422563511E+03  0.27284317134E+03  0.34100247893E+03  0.17465642185E+03 0.  0.
         24    2    3    3    0    0 -0.85686892370E+00 -0.36484610958E+02  0.37585893810E+02  0.95103489419E+02  0.79373252580E+02 0.  0.
         -6    2    1    2    0  502 -0.21712802301E+02  0.10422563511E+03  0.13930392282E+03  0.24913574530E+03  0.17699889230E+03 0.  0.
        -24    2    5    5    0    0 -0.19682587492E+02 -0.19338610513E+02  0.51074988382E+02  0.97219059446E+02  0.77984004606E+02 0.  0.
          5    1    3    3  501    0  0.22569671225E+02 -0.67741024153E+02  0.23525727753E+03  0.24589898951E+03  0.47000000000E+01 0. -1.
        -11    1    4    4    0    0 -0.31877274889E+02 -0.47112840624E+01  0.39106701312E+02  0.50672388333E+02  0.00000000000E+00 0.  1.
         12    1    4    4    0    0  0.31020405965E+02 -0.31773326896E+02 -0.15208075026E+01  0.44431101086E+02  0.00000000000E+00 0. -1.
         -5    1    5    5    0  502 -0.20302148096E+01  0.12356424562E+03  0.88228934434E+02  0.15191668585E+03  0.47000000000E+01 0.  1.
         13    1    6    6    0    0 -0.10250094321E+02 -0.38543696510E+02  0.61592095643E+02  0.73377566190E+02  0.00000000000E+00 0. -1.
        -14    1    6    6    0    0 -0.94324931711E+01  0.19205085997E+02 -0.10517107261E+02  0.23841493257E+02  0.00000000000E+00 0.  1.
</event>
<event>
12    1  0.8747122E-002  0.2506499E+03  0.7818608E-02  0.1112981E+00
         21   -1    0    0  501  502  0.00000000000E+00  0.00000000000E+00  0.10064994975E+03  0.10064994975E+03  0.00000000000E+00 0. -1.
         21   -1    0    0  502  503 -0.00000000000E+00 -0.00000000000E+00 -0.63169499677E+03  0.63169499677E+03  0.00000000000E+00 0.  1.
         -6    2    1    2    0  503  0.16398669180E+03  0.78071906493E+02 -0.22243158330E+03  0.33511366129E+03  0.17273823857E+03 0.  0.
        -24    2    3    3    0    0  0.58566103720E+02 -0.13622650482E+02 -0.48411399726E+02  0.11189514400E+03  0.81001817981E+02 0.  0.
          6    2    1    2  501    0 -0.16398669180E+03 -0.78071906493E+02 -0.30861346372E+03  0.39723128524E+03  0.17194058948E+03 0.  0.
         24    2    5    5    0    0 -0.13464724873E+03 -0.10994417378E+03 -0.18446780791E+03  0.26566047465E+03  0.79558234629E+02 0.  0.
          5    1    5    5  501    0 -0.29339443066E+02  0.31872267284E+02 -0.12414565582E+03  0.13157081059E+03  0.47000000000E+01 0. -1.
        -11    1    6    6    0    0 -0.16015706701E+02 -0.54786003732E+01 -0.65964231759E+02  0.68101378803E+02  0.00000000000E+00 0.  1.
         12    1    6    6    0    0 -0.11863154203E+03 -0.10446557340E+03 -0.11850357615E+03  0.19755909584E+03  0.00000000000E+00 0. -1.
         -5    1    3    3    0  503  0.10542058808E+03  0.91694556976E+02 -0.17402018357E+03  0.22321851729E+03  0.47000000000E+01 0.  1.
         11    1    4    4    0    0  0.40386920976E+02 -0.41467465361E+02 -0.52805524018E+02  0.78352265036E+02  0.00000000000E+00 0. -1.
        -12    1    4    4    0    0  0.18179182744E+02  0.27844814879E+02  0.43941242929E+01  0.33542878964E+02  0.00000000000E+00 0.  1.
</event>
<event>
12    1  0.8747122E-002  0.2664818E+03  0.7818608E-02  0.1103611E+00
         21   -1    0    0  503  502  0.00000000000E+00  0.00000000000E+00  0.58235403098E+03  0.58235403098E+03  0.00000000000E+00 0.  1.
         21   -1    0    0  501  503 -0.00000000000E+00 -0.00000000000E+00 -0.13473367479E+03  0.13473367479E+03  0.00000000000E+00 0.  1.
          6    2    1    2  501    0 -0.72158461863E+02 -0.18950400428E+03  0.11011691998E+03  0.28833712005E+03  0.17289866244E+03 0.  0.
         24    2    3    3    0    0 -0.58419162728E+02 -0.21498930718E+03  0.10310959837E+03  0.25817983966E+03  0.79950231754E+02 0.  0.
         -6    2    1    2    0  502  0.72158461863E+02  0.18950400428E+03  0.33750343621E+03  0.42875058572E+03  0.16970528584E+03 0.  0.
        -24    2    5    5    0    0  0.21032348789E+02  0.12713123774E+03  0.10872802586E+03  0.18613047150E+03  0.78854660655E+02 0.  0.
          5    1    3    3  501    0 -0.13739299135E+02  0.25485302893E+02  0.70073216104E+01  0.30157280388E+02  0.47000000000E+01 0. -1.
        -11    1    4    4    0    0 -0.46377731300E+02 -0.85983651668E+02  0.91319763205E+01  0.98119698869E+02  0.00000000000E+00 0.  1.
         12    1    4    4    0    0 -0.12041431428E+02 -0.12900565551E+03  0.93977622054E+02  0.16006014079E+03  0.00000000000E+00 0. -1.
         -5    1    5    5    0  502  0.51126113074E+02  0.62372766544E+02  0.22877541035E+03  0.24262011422E+03  0.47000000000E+01 0.  1.
         13    1    6    6    0    0 -0.19237464897E+02  0.15116323467E+02 -0.65031236251E+00  0.24474603102E+02  0.00000000000E+00 0. -1.
        -14    1    6    6    0    0  0.40269813686E+02  0.11201491427E+03  0.10937833822E+03  0.16165586839E+03  0.00000000000E+00 0.  1.
</event>
<event>
12    1  0.8747122E-002  0.2250993E+03  0.7818608E-02  0.1130275E+00
         21   -1    0    0  503  502  0.00000000000E+00  0.00000000000E+00  0.67272604180E+03  0.67272604180E+03  0.00000000000E+00 0. -1.
         21   -1    0    0  501  503 -0.00000000000E+00 -0.00000000000E+00 -0.98654626198E+02  0.98654626198E+02  0.00000000000E+00 0. -1.
          6    2    1    2  501    0 -0.91053192024E+00  0.14386953507E+03  0.98073557256E+02  0.24484133491E+03  0.17213246195E+03 0.  0.
         24    2    3    3    0    0 -0.13639378955E+02  0.44177518349E+02  0.11033767147E+03  0.14348542614E+03  0.79221082949E+02 0.  0.
         -6    2    1    2    0  502  0.91053192024E+00 -0.14386953507E+03  0.47599785834E+03  0.52653933308E+03  0.17311971565E+03 0.  0.
        -24    2    5    5    0    0  0.48528861012E+02 -0.11305504013E+03  0.21986148630E+03  0.26415608391E+03  0.79390623241E+02 0.  0.
          5    1    3    3  501    0  0.12728847035E+02  0.99692016722E+02 -0.12264114214E+02  0.10135590877E+03  0.47000000000E+01 0. -1.
        -13    1    4    4    0    0 -0.19400177173E+02  0.33934579318E+01 -0.55779074561E+01  0.20469379147E+02  0.00000000000E+00 0.  1.
         14    1    4    4    0    0  0.57607982179E+01  0.40784060417E+02  0.11591557893E+03  0.12301604699E+03  0.00000000000E+00 0. -1.
         -5    1    5    5    0  502 -0.47618329092E+02 -0.30814494941E+02  0.25613637205E+03  0.26238324918E+03  0.47000000000E+01 0.  1.
         11    1    6    6    0    0  0.13358624958E+02 -0.52206669111E+02  0.16904840978E+03  0.17742985659E+03  0.00000000000E+00 0. -1.
        -12    1    6    6    0    0  0.35170236054E+02 -0.60848371020E+02  0.50813076521E+02  0.86726227321E+02  0.00000000000E+00 0.  1.
</event>
<event>
12    1  0.8747122E-002  0.2017281E+03  0.7818608E-02  0.1151045E+00
         21   -1    0    0  503  502  0.00000000000E+00  0.00000000000E+00  0.48367822920E+02  0.48367822920E+02  0.00000000000E+00 0. -1.
         21   -1    0    0  501  503 -0.00000000000E+00 -0.00000000000E+00 -0.86757024856E+03  0.86757024856E+03  0.00000000000E+00 0. -1.
          6    2    1    2  501    0 -0.30189716873E+02 -0.77680806638E+02 -0.53521372355E+03  0.56759371296E+03  0.16959707070E+03 0.  0.
         24    2    3    3    0    0  0.20770898789E+02 -0.74973738880E+02 -0.20147558764E+03  0.22994367827E+03  0.78925224128E+02 0.  0.
         -6    2    1    2    0  502  0.30189716873E+02  0.77680806638E+02 -0.28398870209E+03  0.34834435852E+03  0.18370760048E+03 0.  0.
        -24    2    5    5    0    0  0.68122300083E+02  0.78001382249E+02 -0.96994592239E+02  0.15748349098E+03  0.68324487614E+02 0.  0.
          5    1    3    3  501    0 -0.50960615662E+02 -0.27070677576E+01 -0.33373813591E+03  0.33765003469E+03  0.47000000000E+01 0. -1.
        -11    1    4    4    0    0 -0.15377001985E+02  0.71632411704E+01 -0.13622095975E+02  0.21756050029E+02  0.00000000000E+00 0.  1.
         12    1    4    4    0    0  0.36147900774E+02 -0.82136980050E+02 -0.18785349166E+03  0.20818762824E+03  0.00000000000E+00 0. -1.
         -5    1    5    5    0  502 -0.37932583211E+02 -0.32057561101E+00 -0.18699410985E+03  0.19086086754E+03  0.47000000000E+01 0.  1.
         13    1    6    6    0    0  0.56026158204E+02  0.90626058064E+02 -0.84671480742E+02  0.13609288172E+03  0.00000000000E+00 0. -1.
        -14    1    6    6    0    0  0.12096141880E+02 -0.12624675815E+02 -0.12323111497E+02  0.21390609266E+02  0.00000000000E+00 0.  1.
</event>
<event>
12    1  0.8747122E-002  0.2053322E+03  0.7818608E-02  0.1145486E+00
         21   -1    0    0  501  502  0.00000000000E+00  0.00000000000E+00  0.15060946597E+03  0.15060946597E+03  0.00000000000E+00 0. -1.
         21   -1    0    0  502  503 -0.00000000000E+00 -0.00000000000E+00 -0.33561108013E+03  0.33561108013E+03  0.00000000000E+00 0. -1.
         -6    2    1    2    0  503  0.10407599420E+03 -0.32750941871E+02  0.73607179310E+01  0.20546406369E+03  0.17394500435E+03 0.  0.
        -24    2    3    3    0    0  0.10648308903E+03  0.19762611882E+02  0.42492670519E+02  0.14206208008E+03  0.81527899960E+02 0.  0.
          6    2    1    2  501    0 -0.10407599420E+03  0.32750941871E+02 -0.19236233209E+03  0.28075648241E+03  0.17296386571E+03 0.  0.
         24    2    5    5    0    0 -0.95984426600E+02  0.16734915869E+02 -0.21757781717E+03  0.24945317199E+03  0.73441888127E+02 0.  0.
          5    1    5    5  501    0 -0.80915676045E+01  0.16016026002E+02  0.25215485081E+02  0.31303310417E+02  0.47000000000E+01 0. -1.
        -13    1    6    6    0    0 -0.75661564433E+02  0.39346167138E+02 -0.11977099428E+03  0.14703021550E+03  0.00000000000E+00 0.  1.
         14    1    6    6    0    0 -0.20322862167E+02 -0.22611251269E+02 -0.97806822895E+02  0.10242295649E+03  0.00000000000E+00 0. -1.
         -5    1    3    3    0  503 -0.24070948230E+01 -0.52513553753E+02 -0.35131952588E+02  0.63401983612E+02  0.47000000000E+01 0.  1.
         11    1    4    4    0    0  0.57947071715E+02 -0.28686495100E+02  0.75618870553E+01  0.65099617950E+02  0.00000000000E+00 0. -1.
        -12    1    4    4    0    0  0.48536017313E+02  0.48449106981E+02  0.34930783464E+02  0.76962462131E+02  0.00000000000E+00 0.  1.
</event>
<event>
12    1  0.8747122E-002  0.2094564E+03  0.7818608E-02  0.1142993E+00
         21   -1    0    0  501  502  0.00000000000E+00  0.00000000000E+00  0.31423615445E+03  0.31423615445E+03  0.00000000000E+00 0.  1.
         21   -1    0    0  502  503 -0.00000000000E+00 -0.00000000000E+00 -0.49127439538E+03  0.49127439538E+03  0.00000000000E+00 0.  1.
         -6    2    1    2    0  503 -0.94151246271E+02 -0.59675618511E+02 -0.43055750868E+03  0.47665798565E+03  0.17145678867E+03 0.  0.
        -24    2    3    3    0    0 -0.10914375463E+02 -0.84947896550E+02 -0.26919659296E+03  0.29328268791E+03  0.78820432920E+02 0.  0.
          6    2    1    2  501    0  0.94151246271E+02  0.59675618511E+02  0.25351926775E+03  0.32885256418E+03  0.17733119644E+03 0.  0.
         24    2    5    5    0    0  0.13487751890E+02  0.38957280611E+01  0.20374110983E+03  0.21877100119E+03  0.78442430996E+02 0.  0.
          5    1    5    5  501    0  0.80663494381E+02  0.55779890450E+02  0.49778157916E+02  0.11008156299E+03  0.47000000000E+01 0. -1.
        -11    1    6    6    0    0  0.72839954648E+01  0.40880529017E+02  0.92907975749E+02  0.10176525046E+03  0.00000000000E+00 0.  1.
         12    1    6    6    0    0  0.62037564250E+01 -0.36984800956E+02  0.11083313408E+03  0.11700575074E+03  0.00000000000E+00 0. -1.
         -5    1    3    3    0  503 -0.83236870808E+02  0.25272278038E+02 -0.16136091571E+03  0.18337529773E+03  0.47000000000E+01 0.  1.
         13    1    4    4    0    0  0.32612880719E+02 -0.20441985531E+02 -0.83797926971E+02  0.92214789085E+02  0.00000000000E+00 0. -1.
        -14    1    4    4    0    0 -0.43527256182E+02 -0.64505911019E+02 -0.18539866599E+03  0.20106789883E+03  0.00000000000E+00 0.  1.
</event>
<event>
12    1  0.8747122E-002  0.2884495E+03  0.7818608E-02  0.1091521E+00
         21   -1    0    0  503  502  0.00000000000E+00  0.00000000000E+00  0.47619088010E+03  0.47619088010E+03  0.00000000000E+00 0.  1.
         21   -1    0    0  501  503 -0.00000000000E+00 -0.00000000000E+00 -0.19125479078E+03  0.19125479078E+03  0.00000000000E+00 0. -1.
          6    2    1    2  501    0  0.12127385753E+02  0.22900182686E+03  0.40212446416E+02  0.29123901484E+03  0.17496917650E+03 0.  0.
         24    2    3    3    0    0 -0.29120860588E+01  0.22053871681E+03  0.81270593626E+02  0.24645429203E+03  0.74087804788E+02 0.  0.
         -6    2    1    2    0  502 -0.12127385753E+02 -0.22900182686E+03  0.24472364291E+03  0.37620665604E+03  0.17044904359E+03 0.  0.
        -24    2    5    5    0    0 -0.60813510567E+02 -0.86429719208E+02  0.96088475202E+02  0.16451903782E+03  0.81640304438E+02 0.  0.
          5    1    3    3  501    0  0.15039471812E+02  0.84631100530E+01 -0.41058147209E+02  0.44784722801E+02  0.47000000000E+01 0. -1.
        -11    1    4    4    0    0 -0.24289575170E+02  0.17902168316E+03  0.84898786300E+02  0.19961600742E+03  0.00000000000E+00 0.  1.
         12    1    4    4    0    0  0.21377489112E+02  0.41517033642E+02 -0.36281926742E+01  0.46838284610E+02  0.00000000000E+00 0. -1.
         -5    1    5    5    0  502  0.48686124814E+02 -0.14257210765E+03  0.14863516770E+03  0.21168761822E+03  0.47000000000E+01 0.  1.
         11    1    6    6    0    0  0.64776284356E+01 -0.18006267901E+02 -0.98944581079E+01  0.21542647356E+02  0.00000000000E+00 0. -1.
        -12    1    6    6    0    0 -0.67291139003E+02 -0.68423451308E+02  0.10598293331E+03  0.14297639046E+03  0.00000000000E+00 0.  1.
</event>
<event>
12    1  0.8747122E-002  0.2329320E+03  0.7818608E-02  0.1124605E+00
         21   -1    0    0  503  502  0.00000000000E+00  0.00000000000E+00  0.14457018160E+03  0.14457018160E+03  0.00000000000E+00 0. -1.
         21   -1    0    0  501  503 -0.00000000000E+00 -0.00000000000E+00 -0.42682341487E+03  0.42682341487E+03  0.00000000000E+00 0. -1.
          6    2    1    2  501    0 -0.19990340153E+01  0.15790099842E+03 -0.24047590285E+03  0.33474475584E+03  0.17113933000E+03 0.  0.
         24    2    3    3    0    0  0.51950160081E+02  0.13328796639E+03 -0.21272010698E+03  0.26910337336E+03  0.81867457059E+02 0.  0.
         -6    2    1    2    0  502  0.19990340153E+01 -0.15790099842E+03 -0.41777330428E+02  0.23664884063E+03  0.17123261078E+03 0.  0.
        -24    2    5    5    0    0  0.40495631757E+02 -0.17094011639E+03 -0.38474897769E+02  0.19560005628E+03  0.76932728247E+02 0.  0.
          5    1    3    3  501    0 -0.53949194097E+02  0.24613032034E+02 -0.27755795872E+02  0.65641382481E+02  0.47000000000E+01 0. -1.
        -13    1    4    4    0    0  0.56029649744E+01 -0.10651008033E+02 -0.74725331083E+01  0.14166013543E+02  0.00000000000E+00 0.  1.
         14    1    4    4    0    0  0.46347195107E+02  0.14393897442E+03 -0.20524757387E+03  0.25493735982E+03  0.00000000000E+00 0. -1.
         -5    1    5    5    0  502 -0.38496597742E+02  0.13039117966E+02 -0.33024326597E+01  0.41048784349E+02  0.47000000000E+01 0.  1.
         11    1    6    6    0    0  0.25675462477E+01 -0.36377221938E+02  0.22743147236E+02  0.42978428494E+02  0.00000000000E+00 0. -1.
        -12    1    6    6    0    0  0.37928085510E+02 -0.13456289445E+03 -0.61218045004E+02  0.15262162779E+03  0.00000000000E+00 0.  1.
</event>
<event>
12    1  0.8747122E-002  0.2670636E+03  0.7818608E-02  0.1103084E+00
         21   -1    0    0  501  502  0.00000000000E+00  0.00000000000E+00  0.52012059465E+03  0.52012059465E+03  0.00000000000E+00 0.  1.
         21   -1    0    0  502  503 -0.00000000000E+00 -0.00000000000E+00 -0.13787759953E+03  0.13787759953E+03  0.00000000000E+00 0. -1.
         -6    2    1    2    0  503  0.20301840636E+03 -0.14737138788E+02  0.16140705290E+03  0.31205003345E+03  0.17288530901E+03 0.  0.
        -24    2    3    3    0    0  0.17875242547E+03  0.20215036232E+02  0.66454376758E+02  0.20789345385E+03  0.80264728642E+02 0.  0.
          6    2    1    2  501    0 -0.20301840636E+03  0.14737138788E+02  0.22083594221E+03  0.34594816073E+03  0.17169146734E+03 0.  0.
         24    2    5    5    0    0 -0.17501737154E+03  0.24775425150E+02  0.24122065439E+03  0.30958263262E+03  0.80056856577E+02 0.  0.
          5    1    5    5  501    0 -0.28001034817E+02 -0.10038286363E+02 -0.20384712174E+02  0.36365528105E+02  0.47000000000E+01 0. -1.
        -13    1    6    6    0    0 -0.11905290570E+03  0.41684002040E+02  0.11592078075E+03  0.17131484988E+03  0.00000000000E+00 0.  1.
         14    1    6    6    0    0 -0.55964465846E+02 -0.16908576890E+02  0.12529987364E+03  0.13826778274E+03  0.00000000000E+00 0. -1.
         -5    1    3    3    0  503  0.24265980892E+02 -0.34952175020E+02  0.94952676141E+02  0.10415657960E+03  0.47000000000E+01 0.  1.
         13    1    4    4    0    0  0.13889612609E+03  0.34671770980E+02  0.19253550315E+02  0.14444710016E+03  0.00000000000E+00 0. -1.
        -14    1    4    4    0    0  0.39856299379E+02 -0.14456734747E+02  0.47200826444E+02  0.63446353691E+02  0.00000000000E+00 0.  1.
</event>
<event>
12    1  0.8747122E-002  0.2320929E+03  0.7818608E-02  0.1125564E+00
         21   -1    0    0  501  502  0.00000000000E+00  0.00000000000E+00  0.11794201004E+03  0.11794201004E+03  0.00000000000E+00 0. -1.
         21   -1    0    0  502  503 -0.00000000000E+00 -0.00000000000E+00 -0.83659199442E+03  0.83659199442E+03  0.00000000000E+00 0. -1.
         -6    2    1    2    0  503 -0.14963430452E+03 -0.41371861473E+02 -0.68183306716E+03  0.71953914998E+03  0.16952345231E+03 0.  0.
        -24    2    3    3    0    0 -0.13396043988E+03 -0.54475820599E+02 -0.67837637129E+03  0.69829244380E+03  0.80652473350E+02 0.  0.
          6    2    1    2  501    0  0.14963430452E+03  0.41371861473E+02 -0.36816917226E+02  0.23499485447E+03  0.17252547702E+03 0.  0.
         24    2    5    5    0    0  0.67059861980E+02  0.82501747835E+02 -0.49668987310E+02  0.14173461740E+03  0.79486665447E+02 0.  0.
          5    1    5    5  501    0  0.82574442542E+02 -0.41129886362E+02  0.12852070084E+02  0.93260237072E+02  0.47000000000E+01 0. -1.
        -13    1    6    6    0    0  0.59537163494E+02  0.69625857029E+02 -0.18334764268E+01  0.91628573272E+02  0.00000000000E+00 0.  1.
         14    1    6    6    0    0  0.75226984854E+01  0.12875890806E+02 -0.47835510883E+02  0.50106044126E+02  0.00000000000E+00 0. -1.
         -5    1    3    3    0  503 -0.15673864637E+02  0.13103959126E+02 -0.34566958654E+01  0.21246706186E+02  0.47000000000E+01 0.  1.
         11    1    4    4    0    0 -0.39402963568E+01  0.16111386283E+02 -0.95737558896E+02  0.97163691195E+02  0.00000000000E+00 0. -1.
        -12    1    4    4    0    0 -0.13002014353E+03 -0.70587206882E+02 -0.58263881239E+03  0.60112875260E+03  0.00000000000E+00 0.  1.
</event>
<event>
12    1  0.8747122E-002  0.2264745E+03  0.7818608E-02  0.1129420E+00
         21   -1    0    0  503  502  0.00000000000E+00  0.00000000000E+00  0.84400322395E+02  0.84400322395E+02  0.00000000000E+00 0.  1.
         21   -1    0    0  501  503 -0.00000000000E+00 -0.00000000000E+00 -0.65155473511E+03  0.65155473511E+03  0.00000000000E+00 0.  1.
          6    2    1    2  501    0  0.42348808935E+02 -0.13826068191E+03 -0.18466384213E+03  0.29221815331E+03  0.17430225688E+03 0.  0.
         24    2    3    3    0    0  0.14174499855E+02 -0.14582731689E+03 -0.83469295218E+02  0.18679769997E+03  0.80372474612E+02 0.  0.
         -6    2    1    2    0  502 -0.42348808935E+02  0.13826068191E+03 -0.38249057059E+03  0.44373690420E+03  0.17231937145E+03 0.  0.
        -24    2    5    5    0    0 -0.93686651974E+01  0.45837443821E+02 -0.30497606763E+03  0.31859565205E+03  0.79397383682E+02 0.  0.
          5    1    3    3  501    0  0.28174309080E+02  0.75666349764E+01 -0.10119454691E+03  0.10542045334E+03  0.47000000000E+01 0. -1.
        -13    1    4    4    0    0  0.26505772516E+02 -0.27562374294E+02  0.50349460998E+01  0.38569303022E+02  0.00000000000E+00 0.  1.
         14    1    4    4    0    0 -0.12331272661E+02 -0.11826494259E+03 -0.88504241318E+02  0.14822839695E+03  0.00000000000E+00 0. -1.
         -5    1    5    5    0  502 -0.32980143738E+02  0.92423238089E+02 -0.77514502958E+02  0.12514125215E+03  0.47000000000E+01 0.  1.
         13    1    6    6    0    0  0.29735615432E+02  0.29552108275E+02 -0.87400793201E+02  0.96935197842E+02  0.00000000000E+00 0. -1.
        -14    1    6    6    0    0 -0.39104280629E+02  0.16285335546E+02 -0.21757527443E+03  0.22166045421E+03  0.00000000000E+00 0.  1.
</event>
<event>
12    1  0.8747122E-002  0.1850671E+03  0.7818608E-02  0.1163016E+00
         21   -1    0    0  501  502  0.00000000000E+00  0.00000000000E+00  0.34752587103E+04  0.34752587103E+04  0.00000000000E+00 0.  1.
         21   -1    0    0  502  503 -0.00000000000E+00 -0.00000000000E+00 -0.21749298052E+02  0.21749298052E+02  0.00000000000E+00 0.  1.
         -6    2    1    2    0  503 -0.65198941664E+02  0.19522949122E+02  0.43310519755E+03  0.47093935908E+03  0.17196429933E+03 0.  0.
        -24    2    3    3    0    0  0.18232878269E+02  0.49566213780E+02  0.23835202303E+03  0.25689647712E+03  0.79967904045E+02 0.  0.
          6    2    1    2  501    0  0.65198941664E+02 -0.19522949122E+02  0.30204042147E+04  0.30260686493E+04  0.17209823486E+03 0.  0.
         24    2    5    5    0    0  0.12449708249E+02 -0.51601090981E+02  0.25233019650E+04  0.25251253137E+04  0.79921057689E+02 0.  0.
          5    1    5    5  501    0  0.52749233415E+02  0.32078141860E+02  0.49710224975E+03  0.50094333563E+03  0.47000000000E+01 0. -1.
        -11    1    6    6    0    0  0.12129161815E+01  0.28248072364E+01  0.16759852945E+04  0.16759881139E+04  0.00000000000E+00 0.  1.
         12    1    6    6    0    0  0.11236792067E+02 -0.54425898217E+02  0.84731667047E+03  0.84913719972E+03  0.00000000000E+00 0. -1.
         -5    1    3    3    0  503 -0.83431819933E+02 -0.30043264659E+02  0.19475317452E+03  0.21404288196E+03  0.47000000000E+01 0.  1.
         11    1    4    4    0    0 -0.22907100976E+02  0.34278937073E+02  0.17523859573E+03  0.18002318250E+03  0.00000000000E+00 0. -1.
        -12    1    4    4    0    0  0.41139979245E+02  0.15287276707E+02  0.63113427294E+02  0.76873294623E+02  0.00000000000E+00 0.  1.
</event>
<event>
12    1  0.8747122E-002  0.2254418E+03  0.7818608E-02  0.1131664E+00
         21   -1    0    0  501  502  0.00000000000E+00  0.00000000000E+00  0.73618170674E+02  0.73618170674E+02  0.00000000000E+00 0.  1.
         21   -1    0    0  502  503 -0.00000000000E+00 -0.00000000000E+00 -0.66130348036E+03  0.66130348036E+03  0.00000000000E+00 0.  1.
         -6    2    1    2    0  503 -0.58955596695E+02 -0.12308882420E+03 -0.28590614513E+03  0.35823254429E+03  0.16721725672E+03 0.  0.
        -24    2    3    3    0    0 -0.25227969261E+02 -0.14767632630E+03 -0.18203576444E+03  0.24619128361E+03  0.70911076755E+02 0.  0.
          6    2    1    2  501    0  0.58955596695E+02  0.12308882420E+03 -0.30177916455E+03  0.37668910674E+03  0.17943633398E+03 0.  0.
         24    2    5    5    0    0  0.21910346979E+02  0.90403103936E+02 -0.75674959328E+02  0.14520280378E+03  0.81880218922E+02 0.  0.
          5    1    5    5  501    0  0.37045249716E+02  0.32685720262E+02 -0.22610420523E+03  0.23148630296E+03  0.47000000000E+01 0. -1.
        -13    1    6    6    0    0 -0.99479766475E+01  0.67801540109E+02 -0.80643105852E+02  0.10582684727E+03  0.00000000000E+00 0.  1.
         14    1    6    6    0    0  0.31858323626E+02  0.22601563827E+02  0.49681465246E+01  0.39375956516E+02  0.00000000000E+00 0. -1.
         -5    1    3    3    0  503 -0.33727627434E+02  0.24587502098E+02 -0.10387038069E+03  0.11204126069E+03  0.47000000000E+01 0.  1.
         13    1    4    4    0    0 -0.17959624582E+02 -0.50251873669E+01 -0.42952499356E+02  0.46826464997E+02  0.00000000000E+00 0. -1.
        -14    1    4    4    0    0 -0.72683446792E+01 -0.14265113893E+03 -0.13908326508E+03  0.19936481861E+03  0.00000000000E+00 0.  1.
</event>
<event>
12    1  0.8747122E-002  0.1949117E+03  0.7818608E-02  0.1154116E+00
         21   -1    0    0  501  502  0.00000000000E+00  0.00000000000E+00  0.13411687207E+03  0.13411687207E+03  0.00000000000E+00 0.  1.
         21   -1    0    0  502  503 -0.00000000000E+00 -0.00000000000E+00 -0.28707360010E+03  0.28707360010E+03  0.00000000000E+00 0.  1.
         -6    2    1    2    0  503  0.55468907542E+02 -0.71949514131E+02 -0.10097413491E+03  0.21946600366E+03  0.17238334766E+03 0.  0.
        -24    2    3    3    0    0  0.82086234707E+02 -0.10213805880E+03 -0.83406201387E+02  0.17530094254E+03  0.81261879387E+02 0.  0.
          6    2    1    2  501    0 -0.55468907542E+02  0.71949514131E+02 -0.51982593124E+02  0.20172446852E+03  0.17244430673E+03 0.  0.
         24    2    5    5    0    0 -0.20577036691E+02  0.11342983099E+03 -0.43085848529E+02  0.14659460907E+03  0.79648277241E+02 0.  0.
          5    1    5    5  501    0 -0.34891870851E+02 -0.41480316858E+02 -0.88967445952E+01  0.55129859446E+02  0.47000000000E+01 0. -1.
        -11    1    6    6    0    0 -0.45288480982E+02  0.33994274192E+02 -0.22190522479E+02  0.60820033503E+02  0.00000000000E+00 0.  1.
         12    1    6    6    0    0  0.24711444291E+02  0.79435556798E+02 -0.20895326050E+02  0.85774575566E+02  0.00000000000E+00 0. -1.
         -5    1    3    3    0  503 -0.26617327165E+02  0.30188544673E+02 -0.17567933526E+02  0.44165061115E+02  0.47000000000E+01 0.  1.
         13    1    4    4    0    0  0.90524230635E+01  0.12221323871E+02  0.14241806515E+01  0.15275320325E+02  0.00000000000E+00 0. -1.
        -14    1    4    4    0    0  0.73033811643E+02 -0.11435938268E+03 -0.84830382038E+02  0.16002562222E+03  0.00000000000E+00 0.  1.
</event>
<event>
12    1  0.8747122E-002  0.1883039E+03  0.7818608E-02  0.1160155E+00
         21   -1    0    0  501  502  0.00000000000E+00  0.00000000000E+00  0.19056127981E+04  0.19056127981E+04  0.00000000000E+00 0.  1.
         21   -1    0    0  502  503 -0.00000000000E+00 -0.00000000000E+00 -0.41037840419E+03  0.41037840419E+03  0.00000000000E+00 0.  1.
         -6    2    1    2    0  503  0.38861036821E+02 -0.61092352142E+02 -0.38385662200E+03  0.42755617271E+03  0.17382726740E+03 0.  0.
        -24    2    3    3    0    0  0.26651388885E+02  0.22908288484E+02 -0.11224441820E+03  0.14295037097E+03  0.81246002565E+02 0.  0.
          6    2    1    2  501    0 -0.38861036821E+02  0.61092352142E+02  0.18790910159E+04  0.18884350296E+04  0.17309349842E+03 0.  0.
         24    2    5    5    0    0 -0.67186230734E+02  0.83918516780E+02  0.10874557605E+04  0.10959504442E+04  0.83612427980E+02 0.  0.
          5    1    5    5  501    0  0.28325193913E+02 -0.22826164638E+02  0.79163525545E+03  0.79248458539E+03  0.47000000000E+01 0. -1.
        -13    1    6    6    0    0  0.37136979480E+00  0.57795383125E+02  0.64725313829E+03  0.64982849218E+03  0.00000000000E+00 0.  1.
         14    1    6    6    0    0 -0.67557600529E+02  0.26123133655E+02  0.44020262217E+03  0.44612195201E+03  0.00000000000E+00 0. -1.
         -5    1    3    3    0  503  0.12209647936E+02 -0.84000640626E+02 -0.27161220380E+03  0.28460580174E+03  0.47000000000E+01 0. -1.
         11    1    4    4    0    0  0.35062325294E+02  0.26792570698E+02 -0.17050584206E+02  0.47306774582E+02  0.00000000000E+00 0. -1.
        -12    1    4    4    0    0 -0.84109364090E+01 -0.38842822143E+01 -0.95193833992E+02  0.95643596386E+02  0.00000000000E+00 0.  1.
</event>
<event>
12    1  0.8747122E-002  0.2585090E+03  0.7818608E-02  0.1108247E+00
         21   -1    0    0  503  502  0.00000000000E+00  0.00000000000E+00  0.53725170006E+03  0.53725170006E+03  0.00000000000E+00 0.  1.
         21   -1    0    0  501  503 -0.00000000000E+00 -0.00000000000E+00 -0.12374605046E+03  0.12374605046E+03  0.00000000000E+00 0. -1.
          6    2    1    2  501    0 -0.11128237302E+02 -0.19046372675E+03  0.20365559825E+03  0.32803533383E+03  0.17242769113E+03 0.  0.
         24    2    3    3    0    0  0.40901420969E+02 -0.18266651146E+03  0.16527825772E+03  0.26274527201E+03  0.81720222971E+02 0.  0.
         -6    2    1    2    0  502  0.11128237302E+02  0.19046372675E+03  0.20985005136E+03  0.33296241669E+03  0.17443238805E+03 0.  0.
        -24    2    5    5    0    0 -0.37134274903E+01  0.25769571792E+02  0.31295883061E+02  0.89553048121E+02  0.79765003336E+02 0.  0.
          5    1    3    3  501    0 -0.52029658271E+02 -0.77972152863E+01  0.38377340529E+02  0.65290061817E+02  0.47000000000E+01 0. -1.
        -13    1    4    4    0    0 -0.23580808572E+02 -0.74856382775E+02  0.58760919769E+02  0.98042736942E+02  0.00000000000E+00 0.  1.
         14    1    4    4    0    0  0.64482229540E+02 -0.10781012869E+03  0.10651733795E+03  0.16470253507E+03  0.00000000000E+00 0. -1.
         -5    1    5    5    0  502  0.14841664792E+02  0.16469415496E+03  0.17855416830E+03  0.24340936857E+03  0.47000000000E+01 0.  1.
         13    1    6    6    0    0 -0.19404580893E+02  0.43557865638E+02 -0.30842529966E+01  0.47784286488E+02  0.00000000000E+00 0. -1.
        -14    1    6    6    0    0  0.15691153403E+02 -0.17788293846E+02  0.34380136057E+02  0.41768761634E+02  0.00000000000E+00 0.  1.
</event>
<event>
12    1  0.8747122E-002  0.1765700E+03  0.7818608E-02  0.1171588E+00
         21   -1    0    0  503  502  0.00000000000E+00  0.00000000000E+00  0.38679319942E+03  0.38679319942E+03  0.00000000000E+00 0.  1.
         21   -1    0    0  501  503 -0.00000000000E+00 -0.00000000000E+00 -0.80380128061E+02  0.80380128061E+02  0.00000000000E+00 0. -1.
          6    2    1    2  501    0  0.32712086004E+02  0.98516552079E+01  0.17324243589E+03  0.24736591939E+03  0.17323342865E+03 0.  0.
         24    2    3    3    0    0  0.53659738320E+02 -0.39668238745E+02  0.67397677167E+02  0.12855419024E+03  0.86780160514E+02 0.  0.
         -6    2    1    2    0  502 -0.32712086004E+02 -0.98516552079E+01  0.13317063547E+03  0.21980740809E+03  0.17150435219E+03 0.  0.
        -24    2    5    5    0    0 -0.25525915272E+02  0.57801423270E+02  0.52527030762E+02  0.11419461977E+03  0.79301609952E+02 0.  0.
          5    1    3    3  501    0 -0.20947652316E+02  0.49519893953E+02  0.10584475872E+03  0.11881172915E+03  0.47000000000E+01 0. -1.
        -11    1    4    4    0    0  0.40596684939E+01 -0.22899517390E+02  0.72318004921E+02  0.75965535875E+02  0.00000000000E+00 0.  1.
         12    1    4    4    0    0  0.49600069826E+02 -0.16768721355E+02 -0.49203277542E+01  0.52588654364E+02  0.00000000000E+00 0. -1.
         -5    1    5    5    0  502 -0.71861707314E+01 -0.67653078477E+02  0.80643604704E+02  0.10561278832E+03  0.47000000000E+01 0.  1.
         11    1    6    6    0    0  0.25092163797E+02  0.34340074848E+02  0.36768634775E+02  0.56220902944E+02  0.00000000000E+00 0. -1.
        -12    1    6    6    0    0 -0.50618079069E+02  0.23461348421E+02  0.15758395987E+02  0.57973716825E+02  0.00000000000E+00 0.  1.
</event>
<event>
12    1  0.8747122E-002  0.1863098E+03  0.7818608E-02  0.1162340E+00
         21   -1    0    0  503  502  0.00000000000E+00  0.00000000000E+00  0.10702695726E+04  0.10702695726E+04  0.00000000000E+00 0. -1.
         21   -1    0    0  501  503 -0.00000000000E+00 -0.00000000000E+00 -0.54540229736E+02  0.54540229736E+02  0.00000000000E+00 0. -1.
          6    2    1    2  501    0  0.61918976386E+02  0.19556790905E+02  0.14499390728E+03  0.23436521971E+03  0.17230030573E+03 0.  0.
         24    2    3    3    0    0 -0.13333987573E+02  0.37422456473E+01  0.13717495279E+03  0.15692921726E+03  0.74953398390E+02 0.  0.
         -6    2    1    2    0  502 -0.61918976386E+02 -0.19556790905E+02  0.87073543558E+03  0.89044458262E+03  0.17462797097E+03 0.  0.
        -24    2    5    5    0    0 -0.75385996918E+02  0.44143279597E+02  0.65401013440E+03  0.66410190924E+03  0.75302140019E+02 0.  0.
          5    1    3    3  501    0  0.75252963959E+02  0.15814545258E+02  0.78189544969E+01  0.77436002452E+02  0.47000000000E+01 0. -1.
        -11    1    4    4    0    0  0.26618979093E+02 -0.12462776860E+02  0.80646271524E+02  0.85835377123E+02  0.00000000000E+00 0.  1.
         12    1    4    4    0    0 -0.39952966667E+02  0.16205022507E+02  0.56528681261E+02  0.71093840134E+02  0.00000000000E+00 0. -1.
         -5    1    5    5    0  502  0.13467020532E+02 -0.63700070502E+02  0.21672530118E+03  0.22634267338E+03  0.47000000000E+01 0.  1.
         13    1    6    6    0    0  0.22969068257E+01  0.30672966188E+02  0.10347404418E+03  0.10794899006E+03  0.00000000000E+00 0. -1.
        -14    1    6    6    0    0 -0.77682903744E+02  0.13470313409E+02  0.55053609022E+03  0.55615291918E+03  0.00000000000E+00 0.  1.
</event>
<event>
12    1  0.8747122E-002  0.2061701E+03  0.7818608E-02  0.1145458E+00
         21   -1    0    0  501  502  0.00000000000E+00  0.00000000000E+00  0.79806644690E+02  0.79806644690E+02  0.00000000000E+00 0. -1.
         21   -1    0    0  502  503 -0.00000000000E+00 -0.00000000000E+00 -0.64247435243E+03  0.64247435243E+03  0.00000000000E+00 0. -1.
         -6    2    1    2    0  503  0.26545905498E+02  0.10266093893E+03 -0.43527229114E+03  0.47992647058E+03  0.17211477639E+03 0.  0.
        -24    2    3    3    0    0  0.88048139074E+00  0.10247584631E+03 -0.43585585181E+03  0.45382706835E+03  0.74071655053E+02 0.  0.
          6    2    1    2  501    0 -0.26545905498E+02 -0.10266093893E+03 -0.12739541661E+03  0.24235452654E+03  0.17681111640E+03 0.  0.
         24    2    5    5    0    0 -0.53548641581E+02 -0.32243420510E+02 -0.13202887130E+03  0.16664895502E+03  0.80206958382E+02 0.  0.
          5    1    5    5  501    0  0.27002736083E+02 -0.70417518423E+02  0.46334546874E+01  0.75705571520E+02  0.47000000000E+01 0. -1.
        -11    1    6    6    0    0  0.21144065952E+02 -0.11645032429E+02 -0.28826205399E+02  0.37598250265E+02  0.00000000000E+00 0.  1.
         12    1    6    6    0    0 -0.74692707533E+02 -0.20598388082E+02 -0.10320266590E+03  0.12905070476E+03  0.00000000000E+00 0. -1.
         -5    1    3    3    0  503  0.25665424107E+02  0.18509262526E+00  0.58356067705E+00  0.26099402233E+02  0.47000000000E+01 0.  1.
         11    1    4    4    0    0  0.29971874665E+01  0.36127909814E+02 -0.30450294183E+03  0.30665330682E+03  0.00000000000E+00 0. -1.
        -12    1    4    4    0    0 -0.21167060758E+01  0.66347936495E+02 -0.13135290998E+03  0.14717376153E+03  0.00000000000E+00 0.  1.
</event>
<event>
12    1  0.8747122E-002  0.2140086E+03  0.7818608E-02  0.1138613E+00
         21   -1    0    0  503  502  0.00000000000E+00  0.00000000000E+00  0.79854059070E+03  0.79854059070E+03  0.00000000000E+00 0. -1.
         21   -1    0    0  501  503 -0.00000000000E+00 -0.00000000000E+00 -0.65628010481E+02  0.65628010481E+02  0.00000000000E+00 0. -1.
          6    2    1    2  501    0  0.12488172086E+03 -0.20211585117E+02  0.52290662783E+03  0.56500531332E+03  0.17261433972E+03 0.  0.
         24    2    3    3    0    0  0.90929480497E+02 -0.24108827484E+02  0.51551735344E+03  0.52972593549E+03  0.77472698777E+02 0.  0.
         -6    2    1    2    0  502 -0.12488172086E+03  0.20211585117E+02  0.21000595239E+03  0.29916328786E+03  0.17144159467E+03 0.  0.
        -24    2    5    5    0    0 -0.36321894157E+01  0.22596649578E+02  0.73563471895E+02  0.11655502437E+03  0.87462494462E+02 0.  0.
          5    1    3    3  501    0  0.33952240367E+02  0.38972423669E+01  0.73892743956E+01  0.35279377831E+02  0.47000000000E+01 0. -1.
        -11    1    4    4    0    0  0.36992535736E+02  0.24736298626E+02  0.13012291156E+03  0.13752201381E+03  0.00000000000E+00 0.  1.
         12    1    4    4    0    0  0.53936944761E+02 -0.48845126110E+02  0.38539444188E+03  0.39220392168E+03  0.00000000000E+00 0. -1.
         -5    1    5    5    0  502 -0.12124953145E+03 -0.23850644610E+01  0.13644248050E+03  0.18260826349E+03  0.47000000000E+01 0.  1.
         11    1    6    6    0    0 -0.35345949515E+02  0.27006879201E+02  0.71831240845E+02  0.84489258682E+02  0.00000000000E+00 0. -1.
        -12    1    6    6    0    0  0.31713760100E+02 -0.44102296232E+01  0.17322310494E+01  0.32065765692E+02  0.00000000000E+00 0.  1.
</event>
<event>
12    1  0.8747122E-002  0.2289825E+03  0.7818608E-02  0.1129082E+00
         21   -1    0    0  501  502  0.00000000000E+00  0.00000000000E+00  0.21876860507E+04  0.21876860507E+04  0.00000000000E+00 0. -1.
         21   -1    0    0  502  503 -0.00000000000E+00 -0.00000000000E+00 -0.32466024053E+02  0.32466024053E+02  0.00000000000E+00 0.  1.
         -6    2    1    2    0  503  0.11400742903E+03 -0.75269078122E+02  0.46149284949E+03  0.51101640218E+03  0.17175268606E+03 0.  0.
        -24    2    3    3    0    0  0.13892423940E+03 -0.49655364996E+02  0.43310759334E+03  0.46513914740E+03  0.83705671690E+02 0.  0.
          6    2    1    2  501    0 -0.11400742903E+03  0.75269078122E+02  0.16937271772E+04  0.17091356726E+04  0.18376579832E+03 0.  0.
         24    2    5    5    0    0 -0.13673993525E+03  0.26679458121E+02  0.94911392403E+03  0.96257776809E+03  0.79555738085E+02 0.  0.
          5    1    5    5  501    0  0.22732506222E+02  0.48589620001E+02  0.74461325317E+03  0.74655790453E+03  0.47000000000E+01 0. -1.
        -11    1    6    6    0    0 -0.25127520814E+02 -0.25405098304E+02  0.16274172721E+03  0.16661836963E+03  0.00000000000E+00 0.  1.
         12    1    6    6    0    0 -0.11161241444E+03  0.52084556426E+02  0.78637219682E+03  0.79595939846E+03  0.00000000000E+00 0. -1.
         -5    1    3    3    0  503 -0.24916810366E+02 -0.25613713126E+02  0.28385256148E+02  0.45877254773E+02  0.47000000000E+01 0.  1.
         13    1    4    4    0    0  0.98320149348E+02 -0.10773770708E+02  0.35744589767E+03  0.37087800645E+03  0.00000000000E+00 0. -1.
        -14    1    4    4    0    0  0.40604090048E+02 -0.38881594288E+02  0.75661695667E+02  0.94261140955E+02  0.00000000000E+00 0.  1.
</event>
<event>
12    1  0.8747122E-002  0.2709669E+03  0.7818608E-02  0.1101292E+00
         21   -1    0    0  501  502  0.00000000000E+00  0.00000000000E+00  0.31282672534E+03  0.31282672534E+03  0.00000000000E+00 0. -1.
         21   -1    0    0  502  503 -0.00000000000E+00 -0.00000000000E+00 -0.30867152395E+03  0.30867152395E+03  0.00000000000E+00 0.  1.
         -6    2    1    2    0  503  0.20260379866E+03 -0.40719880124E+02 -0.15349323706E+03  0.30800807985E+03  0.16912242773E+03 0.  0.
        -24    2    3    3    0    0  0.93422895512E+02 -0.82278060088E+02 -0.10985675539E+03  0.18321311013E+03  0.77466253575E+02 0.  0.
          6    2    1    2  501    0 -0.20260379866E+03  0.40719880124E+02  0.15764843845E+03  0.31349016945E+03  0.17526165674E+03 0.  0.
         24    2    5    5    0    0 -0.71119202516E+02 -0.41750091268E+02  0.51020535131E+02  0.12512590805E+03  0.79072035339E+02 0.  0.
          5    1    5    5  501    0 -0.13148459614E+03  0.82469971392E+02  0.10662790332E+03  0.18836426140E+03  0.47000000000E+01 0. -1.
        -13    1    6    6    0    0 -0.40544584238E+02 -0.38411191918E+02 -0.10050224089E+02  0.56747598890E+02  0.00000000000E+00 0.  1.
         14    1    6    6    0    0 -0.30574618278E+02 -0.33388993504E+01  0.61070759220E+02  0.68378309159E+02  0.00000000000E+00 0. -1.
         -5    1    3    3    0  503  0.10918090315E+03  0.41558179964E+02 -0.43636481678E+02  0.12479496972E+03  0.47000000000E+01 0.  1.
         11    1    4    4    0    0  0.44249935383E+02 -0.50729426505E+02 -0.10752688965E+02  0.68170021379E+02  0.00000000000E+00 0. -1.
        -12    1    4    4    0    0  0.49172960129E+02 -0.31548633583E+02 -0.99104066421E+02  0.11504308875E+03  0.00000000000E+00 0.  1.
</event>
<event>
12    1  0.8747122E-002  0.1716462E+03  0.7818608E-02  0.1176518E+00
         21   -1    0    0  501  502  0.00000000000E+00  0.00000000000E+00  0.29296623587E+03  0.29296623587E+03  0.00000000000E+00 0. -1.
         21   -1    0    0  502  503 -0.00000000000E+00 -0.00000000000E+00 -0.99718587184E+02  0.99718587184E+02  0.00000000000E+00 0. -1.
         -6    2    1    2    0  503  0.96106058097E+01  0.50603605113E+01  0.95160873907E+02  0.19498955498E+03  0.16984511661E+03 0.  0.
        -24    2    3    3    0    0  0.44385302491E+02 -0.49513409325E+02  0.57295116788E+02  0.11986644638E+03  0.81630887410E+02 0.  0.
          6    2    1    2  501    0 -0.96106058097E+01 -0.50603605113E+01  0.98086774775E+02  0.19769526807E+03  0.17130216765E+03 0.  0.
         24    2    5    5    0    0  0.50091268366E+02  0.11405720327E+02  0.96009348535E+02  0.13555147274E+03  0.80729060035E+02 0.  0.
          5    1    5    5  501    0 -0.59701874176E+02 -0.16466080838E+02  0.20774262405E+01  0.62143795330E+02  0.47000000000E+01 0. -1.
        -11    1    6    6    0    0  0.34905549548E+02 -0.22986941999E+02  0.11952977505E+02  0.43470341187E+02  0.00000000000E+00 0.  1.
         12    1    6    6    0    0  0.15185718818E+02  0.34392662326E+02  0.84056371030E+02  0.92081131556E+02  0.00000000000E+00 0. -1.
         -5    1    3    3    0  503 -0.34774696681E+02  0.54573769836E+02  0.37865757119E+02  0.75123108599E+02  0.47000000000E+01 0.  1.
         13    1    4    4    0    0 -0.12008978338E+02 -0.45688282759E+02  0.36273644999E+02  0.59560155001E+02  0.00000000000E+00 0. -1.
        -14    1    4    4    0    0  0.56394280829E+02 -0.38251265655E+01  0.21021471789E+02  0.60306291376E+02  0.00000000000E+00 0.  1.
</event>
<event>
12    1  0.8747122E-002  0.2012120E+03  0.7818608E-02  0.1149534E+00
         21   -1    0    0  503  502  0.00000000000E+00  0.00000000000E+00  0.20729987581E+02  0.20729987581E+02  0.00000000000E+00 0.  1.
         21   -1    0    0  501  503 -0.00000000000E+00 -0.00000000000E+00 -0.19558727527E+04  0.19558727527E+04  0.00000000000E+00 0.  1.
          6    2    1    2  501    0  0.90077609366E+02  0.31393025480E+02 -0.83540009368E+03  0.85929016397E+03  0.17716312150E+03 0.  0.
         24    2    3    3    0    0  0.53008337113E+02  0.80774620780E+02 -0.41510528151E+03  0.43445785348E+03  0.84301889345E+02 0.  0.
         -6    2    1    2    0  502 -0.90077609366E+02 -0.31393025480E+02 -0.10997426715E+04  0.11173125764E+04  0.17278296224E+03 0.  0.
        -24    2    5    5    0    0 -0.97833231217E+02 -0.22280675032E+01 -0.46355513867E+03  0.48039232126E+03  0.79480251147E+02 0.  0.
          5    1    3    3  501    0  0.37069272253E+02 -0.49381595300E+02 -0.42029481217E+03  0.42483231049E+03  0.47000000000E+01 0. -1.
        -11    1    4    4    0    0  0.22813740711E+02  0.42739217083E+02 -0.65362140642E+02  0.81359184309E+02  0.00000000000E+00 0.  1.
         12    1    4    4    0    0  0.30194596402E+02  0.38035403697E+02 -0.34974314087E+03  0.35309866917E+03  0.00000000000E+00 0. -1.
         -5    1    5    5    0  502  0.77556218517E+01 -0.29164957977E+02 -0.63618753281E+03  0.63692025509E+03  0.47000000000E+01 0.  1.
         13    1    6    6    0    0  0.40723364119E+01 -0.21140693796E+02 -0.60210874329E+02  0.63944211979E+02  0.00000000000E+00 0. -1.
        -14    1    6    6    0    0 -0.10190556763E+03  0.18912626293E+02 -0.40334426435E+03  0.41644810929E+03  0.00000000000E+00 0.  1.
</event>
<event>
12    1  0.8747122E-002  0.2439792E+03  0.7818608E-02  0.1117482E+00
         21   -1    0    0  501  502  0.00000000000E+00  0.00000000000E+00  0.49162371768E+03  0.49162371768E+03  0.00000000000E+00 0.  1.
         21   -1    0    0  502  503 -0.00000000000E+00 -0.00000000000E+00 -0.25200968912E+03  0.25200968912E+03  0.00000000000E+00 0. -1.
         -6    2    1    2    0  503  0.16923703122E+03  0.27841226548E+02 -0.14893463404E+03  0.28584502074E+03  0.17352101901E+03 0.  0.
        -24    2    3    3    0    0  0.14854672220E+03 -0.33328611453E+02 -0.78815397922E+02  0.19040585037E+03  0.82858891424E+02 0.  0.
          6    2    1    2  501    0 -0.16923703122E+03 -0.27841226548E+02  0.38854866259E+03  0.45778838605E+03  0.17083277370E+03 0.  0.
         24    2    5    5    0    0 -0.18228854836E+03 -0.49455679585E+02  0.37806627975E+03  0.43004857657E+03  0.79578183068E+02 0.  0.
          5    1    5    5  501    0  0.13051517146E+02  0.21614453037E+02  0.10482382845E+02  0.27739809481E+02  0.47000000000E+01 0. -1.
        -13    1    6    6    0    0 -0.10841646143E+03  0.59156079800E+01  0.16128035092E+03  0.19442344283E+03  0.00000000000E+00 0.  1.
         14    1    6    6    0    0 -0.73872086927E+02 -0.55371287565E+02  0.21678592883E+03  0.23562513374E+03  0.00000000000E+00 0. -1.
         -5    1    3    3    0  503  0.20690309014E+02  0.61169838001E+02 -0.70119236114E+02  0.95439170372E+02  0.47000000000E+01 0.  1.
         13    1    4    4    0    0  0.69510375060E+02  0.24473049318E+02 -0.20715486109E+02  0.76549028398E+02  0.00000000000E+00 0. -1.
        -14    1    4    4    0    0  0.79036347142E+02 -0.57801660771E+02 -0.58099911813E+02  0.11385682197E+03  0.00000000000E+00 0.  1.
</event>
<event>
12    1  0.8747122E-002  0.1955804E+03  0.7818608E-02  0.1153600E+00
         21   -1    0    0  501  502  0.00000000000E+00  0.00000000000E+00  0.25110065292E+04  0.25110065292E+04  0.00000000000E+00 0. -1.
         21   -1    0    0  502  503 -0.00000000000E+00 -0.00000000000E+00 -0.25650539374E+02  0.25650539374E+02  0.00000000000E+00 0. -1.
         -6    2    1    2    0  503  0.66134697047E+02 -0.64886143044E+02  0.43265568349E+03  0.47466040424E+03  0.17183582044E+03 0.  0.
        -24    2    3    3    0    0 -0.91989848989E+00  0.77389876081E+01  0.29107250534E+03  0.30192183090E+03  0.79830135087E+02 0.  0.
          6    2    1    2  501    0 -0.66134697047E+02  0.64886143044E+02  0.20527003063E+04  0.20619966643E+04  0.17224310251E+03 0.  0.
         24    2    5    5    0    0 -0.65123304345E+02  0.12551421697E+02  0.64962576612E+03  0.65793818927E+03  0.80439057323E+02 0.  0.
          5    1    5    5  501    0 -0.10113927018E+01  0.52334721347E+02  0.14030745402E+04  0.14040584750E+04  0.47000000000E+01 0. -1.
        -13    1    6    6    0    0  0.93035686645E+01  0.26800560691E+02  0.16401464168E+03  0.16645007999E+03  0.00000000000E+00 0.  1.
         14    1    6    6    0    0 -0.74426873010E+02 -0.14249138993E+02  0.48561112444E+03  0.49148810929E+03  0.00000000000E+00 0. -1.
         -5    1    3    3    0  503  0.67054595537E+02 -0.72625130652E+02  0.14158317815E+03  0.17273857334E+03  0.47000000000E+01 0.  1.
         11    1    4    4    0    0 -0.11892252769E+02  0.34028114207E+02  0.67318919497E+02  0.76362131680E+02  0.00000000000E+00 0. -1.
        -12    1    4    4    0    0  0.10972354280E+02 -0.26289126599E+02  0.22375358584E+03  0.22555969922E+03  0.00000000000E+00 0.  1.
</event>
<event>
12    1  0.8747122E-002  0.2188967E+03  0.7818608E-02  0.1134776E+00
         21   -1    0    0  503  502  0.00000000000E+00  0.00000000000E+00  0.34008485713E+03  0.34008485713E+03  0.00000000000E+00 0. -1.
         21   -1    0    0  501  503 -0.00000000000E+00 -0.00000000000E+00 -0.23554777120E+03  0.23554777120E+03  0.00000000000E+00 0. -1.
          6    2    1    2  501    0  0.52379463814E+02  0.12411359562E+03 -0.13037928986E+03  0.25478326473E+03  0.17253393845E+03 0.  0.
         24    2    3    3    0    0 -0.74165672781E+01  0.34686326647E+02 -0.21490732288E+01  0.87338108854E+02  0.79782078288E+02 0.  0.
         -6    2    1    2    0  502 -0.52379463814E+02 -0.12411359562E+03  0.23491637580E+03  0.32084936360E+03  0.17207794065E+03 0.  0.
        -24    2    5    5    0    0  0.93863116396E+01 -0.20118748764E+01  0.10039648440E+03  0.12890788187E+03  0.80284727332E+02 0.  0.
          5    1    3    3  501    0  0.59796031092E+02  0.89427268968E+02 -0.12823021663E+03  0.16744515588E+03  0.47000000000E+01 0. -1.
        -11    1    4    4    0    0 -0.22516040492E+02 -0.10663261692E+02 -0.24170792621E+02  0.34711733539E+02  0.00000000000E+00 0.  1.
         12    1    4    4    0    0  0.15099473214E+02  0.45349588338E+02  0.22021719392E+02  0.52626375315E+02  0.00000000000E+00 0. -1.
         -5    1    5    5    0  502 -0.61765775453E+02 -0.12210172074E+03  0.13451989140E+03  0.19194148173E+03  0.47000000000E+01 0.  1.
         13    1    6    6    0    0 -0.19676678170E+02 -0.21240856764E+02  0.86798558396E+02  0.91500466663E+02  0.00000000000E+00 0. -1.
        -14    1    6    6    0    0  0.29062989810E+02  0.19228981888E+02  0.13597926003E+02  0.37407415210E+02  0.00000000000E+00 0.  1.
</event>
<event>
12    1  0.8747122E-002  0.2257334E+03  0.7818608E-02  0.1129726E+00
         21   -1    0    0  501  502  0.00000000000E+00  0.00000000000E+00  0.26540157211E+03  0.26540157211E+03  0.00000000000E+00 0.  1.
         21   -1    0    0  502  503 -0.00000000000E+00 -0.00000000000E+00 -0.37660503913E+03  0.37660503913E+03  0.00000000000E+00 0.  1.
         -6    2    1    2    0  503  0.84304787196E+02  0.11868788318E+03 -0.28050089462E+03  0.36005041245E+03  0.17251503374E+03 0.  0.
        -24    2    3    3    0    0 -0.15876963659E+02  0.66235686272E+01 -0.14745970363E+03  0.15925986910E+03  0.57648868803E+02 0.  0.
          6    2    1    2  501    0 -0.84304787196E+02 -0.11868788318E+03  0.16929742760E+03  0.28195619879E+03  0.17217307655E+03 0.  0.
         24    2    5    5    0    0  0.13137090072E+02 -0.55075975665E+02  0.35771018375E+02  0.10477610346E+03  0.80576174330E+02 0.  0.
          5    1    5    5  501    0 -0.97441877268E+02 -0.63611907511E+02  0.13352640922E+03  0.17718009533E+03  0.47000000000E+01 0. -1.
        -11    1    6    6    0    0 -0.27866858856E+02 -0.41774133417E+02  0.24215808548E+01  0.50274288648E+02  0.00000000000E+00 0.  1.
         12    1    6    6    0    0  0.41003948928E+02 -0.13301842248E+02  0.33349437520E+02  0.54501814812E+02  0.00000000000E+00 0. -1.
         -5    1    3    3    0  503  0.10018175086E+03  0.11206431455E+03 -0.13304119099E+03  0.20079054335E+03  0.47000000000E+01 0.  1.
         11    1    4    4    0    0 -0.31278016572E+02  0.18308526201E+02 -0.63608664733E+02  0.73209143428E+02  0.00000000000E+00 0. -1.
        -12    1    4    4    0    0  0.15401052913E+02 -0.11684957574E+02 -0.83851038897E+02  0.86050725671E+02  0.00000000000E+00 0.  1.
</event>
<event>
12    1  0.8747122E-002  0.1939739E+03  0.7818608E-02  0.1155408E+00
         21   -1    0    0  501  502  0.00000000000E+00  0.00000000000E+00  0.85821675397E+02  0.85821675397E+02  0.00000000000E+00 0. -1.
         21   -1    0    0  502  503 -0.00000000000E+00 -0.00000000000E+00 -0.78415088518E+03  0.78415088518E+03  0.00000000000E+00 0. -1.
         -6    2    1    2    0  503  0.90203948669E+02  0.64912522231E+01 -0.63895204210E+03  0.66711418090E+03  0.16912341515E+03 0.  0.
        -24    2    3    3    0    0 -0.15253023075E+02 -0.11753953677E+02 -0.32001319980E+03  0.33066487483E+03  0.80993834726E+02 0.  0.
          6    2    1    2  501    0 -0.90203948669E+02 -0.64912522231E+01 -0.59377167683E+02  0.20285837967E+03  0.17160123965E+03 0.  0.
         24    2    5    5    0    0 -0.85668929119E+02  0.56038472611E+02 -0.49194373513E+02  0.13916919545E+03  0.80427002600E+02 0.  0.
          5    1    5    5  501    0 -0.45350195499E+01 -0.62529724834E+02 -0.10182794171E+02  0.63689184225E+02  0.47000000000E+01 0. -1.
        -13    1    6    6    0    0 -0.39546674109E+02 -0.99180638273E+01 -0.41729149447E+02  0.58340631954E+02  0.00000000000E+00 0.  1.
         14    1    6    6    0    0 -0.46122255010E+02  0.65956536438E+02 -0.74652240656E+01  0.80828563493E+02  0.00000000000E+00 0. -1.
         -5    1    3    3    0  503  0.10545697174E+03  0.18245205900E+02 -0.31893884230E+03  0.33644930607E+03  0.47000000000E+01 0.  1.
         13    1    4    4    0    0 -0.27995817912E+02  0.28028639875E+02 -0.19071679677E+03  0.19478774870E+03  0.00000000000E+00 0. -1.
        -14    1    4    4    0    0  0.12742794837E+02 -0.39782593552E+02 -0.12929640303E+03  0.13587712613E+03  0.00000000000E+00 0.  1.
</event>
<event>
12    1  0.8747122E-002  0.1790838E+03  0.7818608E-02  0.1169796E+00
         21   -1    0    0  501  502  0.00000000000E+00  0.00000000000E+00  0.53912976715E+03  0.53912976715E+03  0.00000000000E+00 0. -1.
         21   -1    0    0  502  503 -0.00000000000E+00 -0.00000000000E+00 -0.23391826440E+03  0.23391826440E+03  0.00000000000E+00 0. -1.
         -6    2    1    2    0  503 -0.28705800274E+02 -0.12926658335E+02 -0.18209530955E+03  0.25540110887E+03  0.17629493239E+03 0.  0.
        -24    2    3    3    0    0 -0.12409328495E+02 -0.52096334041E+02 -0.18857557994E+03  0.21222794137E+03  0.81313776775E+02 0.  0.
          6    2    1    2  501    0  0.28705800274E+02  0.12926658335E+02  0.48730681229E+03  0.51764692268E+03  0.17175356122E+03 0.  0.
         24    2    5    5    0    0 -0.41649167706E+02 -0.16332928655E+01  0.36074161079E+03  0.37203561155E+03  0.80862016360E+02 0.  0.
          5    1    5    5  501    0  0.70354967980E+02  0.14559951201E+02  0.12656520150E+03  0.14561131113E+03  0.47000000000E+01 0. -1.
        -13    1    6    6    0    0 -0.52016502771E+02 -0.63704334218E+01  0.11903156082E+03  0.13005695466E+03  0.00000000000E+00 0.  1.
         14    1    6    6    0    0  0.10367335065E+02  0.47371405563E+01  0.24171004997E+03  0.24197865690E+03  0.00000000000E+00 0. -1.
         -5    1    3    3    0  503 -0.16296471779E+02  0.39169675706E+02  0.64802703969E+01  0.43173167497E+02  0.47000000000E+01 0.  1.
         13    1    4    4    0    0  0.80983098909E+00  0.20620044519E+02 -0.22968301479E+02  0.30876932086E+02  0.00000000000E+00 0. -1.
        -14    1    4    4    0    0 -0.13219159484E+02 -0.72716378560E+02 -0.16560727846E+03  0.18135100929E+03  0.00000000000E+00 0.  1.
</event>
<event>
12    1  0.8747122E-002  0.1958404E+03  0.7818608E-02  0.1153416E+00
         21   -1    0    0  503  502  0.00000000000E+00  0.00000000000E+00  0.26064208123E+03  0.26064208123E+03  0.00000000000E+00 0.  1.
         21   -1    0    0  501  503 -0.00000000000E+00 -0.00000000000E+00 -0.14686441784E+03  0.14686441784E+03  0.00000000000E+00 0.  1.
          6    2    1    2  501    0 -0.23526756841E+02 -0.89108426550E+02  0.62832815788E+02  0.20514832395E+03  0.17217448159E+03 0.  0.
         24    2    3    3    0    0  0.18587419696E+02 -0.11206943393E+03  0.71689210198E+02  0.15614488074E+03  0.79604213015E+02 0.  0.
         -6    2    1    2    0  502  0.23526756841E+02  0.89108426550E+02  0.50944847604E+02  0.20235817512E+03  0.17279940269E+03 0.  0.
        -24    2    5    5    0    0 -0.44444130534E+02  0.56541966568E+02  0.64746144447E+02  0.12559111421E+03  0.80054918805E+02 0.  0.
          5    1    3    3  501    0 -0.42114176538E+02  0.22961007377E+02 -0.88563944099E+01  0.49003443217E+02  0.47000000000E+01 0. -1.
        -13    1    4    4    0    0 -0.21602775721E+02 -0.33936997337E+02 -0.36628505719E+01  0.40395744595E+02  0.00000000000E+00 0.  1.
         14    1    4    4    0    0  0.40190195417E+02 -0.78132436590E+02  0.75352060770E+02  0.11574913614E+03  0.00000000000E+00 0. -1.
         -5    1    5    5    0  502  0.67970887376E+02  0.32566459982E+02 -0.13801296843E+02  0.76767060911E+02  0.47000000000E+01 0.  1.
         11    1    6    6    0    0 -0.64893218270E+02  0.49823687222E+02  0.35270218624E+02  0.89092748906E+02  0.00000000000E+00 0. -1.
        -12    1    6    6    0    0  0.20449087736E+02  0.67182793453E+01  0.29475925822E+02  0.36498365301E+02  0.00000000000E+00 0.  1.
</event>
<event>
12    1  0.8747122E-002  0.1918961E+03  0.7818608E-02  0.1156881E+00
         21   -1    0    0  503  502  0.00000000000E+00  0.00000000000E+00  0.52408666888E+02  0.52408666888E+02  0.00000000000E+00 0.  1.
         21   -1    0    0  501  503 -0.00000000000E+00 -0.00000000000E+00 -0.85673831112E+03  0.85673831112E+03  0.00000000000E+00 0.  1.
          6    2    1    2  501    0 -0.28637345022E+02 -0.78853078489E+02 -0.59571719809E+03  0.62569810401E+03  0.17199195256E+03 0.  0.
         24    2    3    3    0    0 -0.51173513530E+02 -0.53537206037E+02 -0.18964170965E+03  0.21818348513E+03  0.78454408595E+02 0.  0.
         -6    2    1    2    0  502  0.28637345022E+02  0.78853078489E+02 -0.20861244615E+03  0.28344887400E+03  0.17258680705E+03 0.  0.
        -24    2    5    5    0    0  0.47568730759E+02  0.92500405275E+02 -0.22068908926E+03  0.25675463861E+03  0.80001007534E+02 0.  0.
          5    1    3    3  501    0  0.22536168508E+02 -0.25315872451E+02 -0.40607548844E+03  0.40751461888E+03  0.47000000000E+01 0. -1.
        -13    1    4    4    0    0 -0.33949971686E+02  0.92267281163E+01 -0.10909828441E+03  0.11463057511E+03  0.00000000000E+00 0.  1.
         14    1    4    4    0    0 -0.17223541844E+02 -0.62763934154E+02 -0.80543425234E+02  0.10355291002E+03  0.00000000000E+00 0. -1.
         -5    1    5    5    0  502 -0.18931385737E+02 -0.13647326786E+02  0.12076643114E+02  0.26694235393E+02  0.47000000000E+01 0.  1.
         11    1    6    6    0    0 -0.11316636390E+02  0.65141254179E+02 -0.11795828326E+03  0.13522427979E+03  0.00000000000E+00 0. -1.
        -12    1    6    6    0    0  0.58885367149E+02  0.27359151096E+02 -0.10273080600E+03  0.12153035882E+03  0.00000000000E+00 0.  1.
</event>
<event>
12    1  0.8747122E-002  0.2003530E+03  0.7818608E-02  0.1149460E+00
         21   -1    0    0  503  502  0.00000000000E+00  0.00000000000E+00  0.13577077103E+03  0.13577077103E+03  0.00000000000E+00 0. -1.
         21   -1    0    0  501  503 -0.00000000000E+00 -0.00000000000E+00 -0.29631105842E+03  0.29631105842E+03  0.00000000000E+00 0. -1.
          6    2    1    2  501    0  0.10220596310E+03  0.14949655359E+01 -0.69151204333E+02  0.21195099494E+03  0.17231668921E+03 0.  0.
         24    2    3    3    0    0 -0.16678183198E+02  0.11815221212E+02 -0.25367446872E+02  0.84754079353E+02  0.78243117008E+02 0.  0.
         -6    2    1    2    0  502 -0.10220596310E+03 -0.14949655359E+01 -0.91389083065E+02  0.22013083451E+03  0.17221302501E+03 0.  0.
        -24    2    5    5    0    0  0.87626728572E+01 -0.29911606850E+02 -0.49070958721E+02  0.97924217184E+02  0.78801679305E+02 0.  0.
          5    1    3    3  501    0  0.11888414630E+03 -0.10320255676E+02 -0.43783757461E+02  0.12719691559E+03  0.47000000000E+01 0. -1.
        -11    1    4    4    0    0  0.84163474466E+00  0.66757262827E+01  0.27766786308E+02  0.28570405883E+02  0.00000000000E+00 0.  1.
         12    1    4    4    0    0 -0.17519817942E+02  0.51394949293E+01 -0.53134233180E+02  0.56183673470E+02  0.00000000000E+00 0. -1.
         -5    1    5    5    0  502 -0.11096863596E+03  0.28416641314E+02 -0.42318124344E+02  0.12220661732E+03  0.47000000000E+01 0.  1.
         11    1    6    6    0    0  0.26278879286E+02 -0.55137724678E+01  0.12348504179E+02  0.29554470708E+02  0.00000000000E+00 0. -1.
        -12    1    6    6    0    0 -0.17516206429E+02 -0.24397834382E+02 -0.61419462900E+02  0.68369746476E+02  0.00000000000E+00 0.  1.
</event>
<event>
12    1  0.8747122E-002  0.1896892E+03  0.7818608E-02  0.1158972E+00
         21   -1    0    0  501  502  0.00000000000E+00  0.00000000000E+00  0.32036228620E+03  0.32036228620E+03  0.00000000000E+00 0.  1.
         21   -1    0    0  502  503 -0.00000000000E+00 -0.00000000000E+00 -0.11490395984E+03  0.11490395984E+03  0.00000000000E+00 0. -1.
         -6    2    1    2    0  503  0.70825601081E+02 -0.41758329425E+02  0.13924922659E+03  0.23531331238E+03  0.17094438872E+03 0.  0.
        -24    2    3    3    0    0  0.14454458537E+02 -0.77201605193E+02  0.42225049804E+02  0.11754356929E+03  0.76580132107E+02 0.  0.
          6    2    1    2  501    0 -0.70825601081E+02  0.41758329425E+02  0.66209099770E+02  0.19995293365E+03  0.16981609741E+03 0.  0.
         24    2    5    5    0    0 -0.15985779414E+01  0.50619625958E+02 -0.12400757748E+02  0.94726971987E+02  0.79085513499E+02 0.  0.
          5    1    5    5  501    0 -0.69227023140E+02 -0.88612965331E+01  0.78609857518E+02  0.10522596166E+03  0.47000000000E+01 0. -1.
        -11    1    6    6    0    0  0.30818534723E+02  0.28351557310E+02  0.17436466282E+02  0.45361032184E+02  0.00000000000E+00 0.  1.
         12    1    6    6    0    0 -0.32417112665E+02  0.22268068649E+02 -0.29837224030E+02  0.49365939803E+02  0.00000000000E+00 0. -1.
         -5    1    3    3    0  503  0.56371142544E+02  0.35443275768E+02  0.97024176784E+02  0.11776974310E+03  0.47000000000E+01 0.  1.
         11    1    4    4    0    0  0.15734662705E+02 -0.55264483094E+02  0.64411482892E+02  0.86316752896E+02  0.00000000000E+00 0. -1.
        -12    1    4    4    0    0 -0.12802041679E+01 -0.21937122100E+02 -0.22186433088E+02  0.31226816390E+02  0.00000000000E+00 0.  1.
</event>
<event>
12    1  0.8747122E-002  0.3857253E+03  0.7818608E-02  0.1048841E+00
         21   -1    0    0  501  502  0.00000000000E+00  0.00000000000E+00  0.72370477917E+03  0.72370477917E+03  0.00000000000E+00 0.  1.
         21   -1    0    0  502  503 -0.00000000000E+00 -0.00000000000E+00 -0.20567706445E+03  0.20567706445E+03  0.00000000000E+00 0.  1.
         -6    2    1    2    0  503 -0.40466485687E+02  0.34204949669E+03  0.24841604676E+03  0.45877113783E+03  0.17356563591E+03 0.  0.
        -24    2    3    3    0    0 -0.59993412902E+02  0.19002352010E+03  0.20973259194E+03  0.30062026644E+03  0.81710688960E+02 0.  0.
          6    2    1    2  501    0  0.40466485687E+02 -0.34204949669E+03  0.26961166795E+03  0.47061070578E+03  0.17363349403E+03 0.  0.
         24    2    5    5    0    0 -0.22692337850E+02 -0.24988290712E+03  0.13430056733E+03  0.29506896951E+03  0.77927176968E+02 0.  0.
          5    1    5    5  501    0  0.63158823537E+02 -0.92166589567E+02  0.13531110062E+03  0.17554173627E+03  0.47000000000E+01 0. -1.
        -13    1    6    6    0    0  0.93479268983E+01 -0.15257414424E+03  0.45489869228E+02  0.15948536432E+03  0.00000000000E+00 0.  1.
         14    1    6    6    0    0 -0.32040264748E+02 -0.97308762880E+02  0.88810698105E+02  0.13558360519E+03  0.00000000000E+00 0. -1.
         -5    1    3    3    0  503  0.19526927215E+02  0.15202597660E+03  0.38683454825E+02  0.15815087140E+03  0.47000000000E+01 0.  1.
         11    1    4    4    0    0 -0.24669829471E+01  0.21226269530E+02 -0.45408996501E+01  0.21846287846E+02  0.00000000000E+00 0. -1.
        -12    1    4    4    0    0 -0.57526429955E+02  0.16879725057E+03  0.21427349159E+03  0.27877397859E+03  0.00000000000E+00 0.  1.
</event>
<event>
12    1  0.8747122E-002  0.1991491E+03  0.7818608E-02  0.1150510E+00
         21   -1    0    0  501  502  0.00000000000E+00  0.00000000000E+00  0.11924140847E+03  0.11924140847E+03  0.00000000000E+00 0.  1.
         21   -1    0    0  502  503 -0.00000000000E+00 -0.00000000000E+00 -0.37980403882E+03  0.37980403882E+03  0.00000000000E+00 0.  1.
         -6    2    1    2    0  503  0.76032317217E+02 -0.67806028108E+02 -0.21868950963E+03  0.29577941676E+03  0.17111923049E+03 0.  0.
        -24    2    3    3    0    0  0.30759566591E+02  0.73427173724E+01 -0.18012892786E+03  0.19983169994E+03  0.80537017648E+02 0.  0.
          6    2    1    2  501    0 -0.76032317217E+02  0.67806028108E+02 -0.41873120717E+02  0.20326603054E+03  0.17083661851E+03 0.  0.
         24    2    5    5    0    0 -0.16620230254E+02  0.75464861103E+02 -0.71023276187E+02  0.13648073752E+03  0.87243960470E+02 0.  0.
          5    1    5    5  501    0 -0.59412086963E+02 -0.76588329951E+01  0.29150155470E+02  0.66785293023E+02  0.47000000000E+01 0. -1.
        -11    1    6    6    0    0  0.34670593046E+02  0.18102791206E+02 -0.18156821632E+02  0.43121122937E+02  0.00000000000E+00 0.  1.
         12    1    6    6    0    0 -0.51290823300E+02  0.57362069897E+02 -0.52866454555E+02  0.93359614582E+02  0.00000000000E+00 0. -1.
         -5    1    3    3    0  503  0.45272750626E+02 -0.75148745480E+02 -0.38560581773E+02  0.95947716821E+02  0.47000000000E+01 0.  1.
         11    1    4    4    0    0 -0.16526839268E+02  0.10208907198E+02 -0.75043684564E+01  0.20824834892E+02  0.00000000000E+00 0. -1.
        -12    1    4    4    0    0  0.47286405859E+02 -0.28661898256E+01 -0.17262455940E+03  0.17900686504E+03  0.00000000000E+00 0.  1.
</event>
<event>
12    1  0.8747122E-002  0.1826065E+03  0.7818608E-02  0.1165319E+00
         21   -1    0    0  503  502  0.00000000000E+00  0.00000000000E+00  0.47588396891E+03  0.47588396891E+03  0.00000000000E+00 0. -1.
         21   -1    0    0  501  503 -0.00000000000E+00 -0.00000000000E+00 -0.12568155967E+03  0.12568155967E+03  0.00000000000E+00 0. -1.
          6    2    1    2  501    0 -0.39122769801E+02  0.46238703066E+02 -0.25038800279E+02  0.18425139021E+03  0.17220053571E+03 0.  0.
         24    2    3    3    0    0  0.12920357758E+02  0.48623501468E+02  0.38868730311E+02  0.10166545403E+03  0.79334140237E+02 0.  0.
         -6    2    1    2    0  502  0.39122769801E+02 -0.46238703066E+02  0.37524120952E+03  0.41731413837E+03  0.17226873188E+03 0.  0.
        -24    2    5    5    0    0  0.15848205072E+02  0.19386007886E+02  0.31225439447E+03  0.32330489988E+03  0.79976674823E+02 0.  0.
          5    1    3    3  501    0 -0.52043127559E+02 -0.23847984026E+01 -0.63907530590E+02  0.82585936186E+02  0.47000000000E+01 0. -1.
        -11    1    4    4    0    0  0.28159274930E+02 -0.12525395568E+02  0.15021008154E+02  0.34284996495E+02  0.00000000000E+00 0.  1.
         12    1    4    4    0    0 -0.15238917172E+02  0.61148897036E+02  0.23847722157E+02  0.67380457533E+02  0.00000000000E+00 0. -1.
         -5    1    5    5    0  502  0.23274564728E+02 -0.65624710951E+02  0.62986815048E+02  0.94009238485E+02  0.47000000000E+01 0.  1.
         11    1    6    6    0    0 -0.24477730461E+02 -0.15617477971E+02  0.13933920419E+03  0.14233228281E+03  0.00000000000E+00 0. -1.
        -12    1    6    6    0    0  0.40325935533E+02  0.35003485856E+02  0.17291519028E+03  0.18097261707E+03  0.00000000000E+00 0.  1.
</event>
<event>
12    1  0.8747122E-002  0.2020642E+03  0.7818608E-02  0.1150108E+00
         21   -1    0    0  503  502  0.00000000000E+00  0.00000000000E+00  0.61413209352E+03  0.61413209352E+03  0.00000000000E+00 0. -1.
         21   -1    0    0  501  503 -0.00000000000E+00 -0.00000000000E+00 -0.76005946832E+02  0.76005946832E+02  0.00000000000E+00 0. -1.
          6    2    1    2  501    0  0.71490535003E+02 -0.76133416050E+02  0.13354949870E+03  0.24220940424E+03  0.17298188709E+03 0.  0.
         24    2    3    3    0    0 -0.32487998317E+02 -0.43369646362E+02  0.74447459171E+02  0.11811209938E+03  0.73970585932E+02 0.  0.
         -6    2    1    2    0  502 -0.71490535003E+02  0.76133416050E+02  0.40457664798E+03  0.44792863611E+03  0.16140199913E+03 0.  0.
        -24    2    5    5    0    0 -0.57330024393E+02  0.40029304750E+02  0.11929959501E+03  0.15998920869E+03  0.80467860610E+02 0.  0.
          5    1    3    3  501    0  0.10397853332E+03 -0.32763769688E+02  0.59102039533E+02  0.12409730486E+03  0.47000000000E+01 0. -1.
        -11    1    4    4    0    0 -0.40902467009E+02 -0.18718446671E+02  0.66347483298E+01  0.45468801816E+02  0.00000000000E+00 0.  1.
         12    1    4    4    0    0  0.84144686915E+01 -0.24651199691E+02  0.67812710841E+02  0.72643297566E+02  0.00000000000E+00 0. -1.
         -5    1    5    5    0  502 -0.14160510610E+02  0.36104111300E+02  0.28527705297E+03  0.28793942742E+03  0.47000000000E+01 0.  1.
         13    1    6    6    0    0 -0.73722393395E+02  0.22860046738E+02  0.11025328728E+03  0.13458588478E+03  0.00000000000E+00 0. -1.
        -14    1    6    6    0    0  0.16392369002E+02  0.17169258013E+02  0.90463077297E+01  0.25403323912E+02  0.00000000000E+00 0.  1.
</event>
<event>
12    1  0.8747122E-002  0.1997976E+03  0.7818608E-02  0.1150023E+00
         21   -1    0    0  501  502  0.00000000000E+00  0.00000000000E+00  0.36556199171E+03  0.36556199171E+03  0.00000000000E+00 0. -1.
         21   -1    0    0  502  503 -0.00000000000E+00 -0.00000000000E+00 -0.10956765470E+03  0.10956765470E+03  0.00000000000E+00 0. -1.
         -6    2    1    2    0  503  0.98794082931E+02  0.15643857534E+02  0.14662516022E+03  0.24782656333E+03  0.17295683503E+03 0.  0.
        -24    2    3    3    0    0  0.91686525879E+02 -0.45494020417E+02  0.65340850180E+02  0.14575998435E+03  0.80625190936E+02 0.  0.
          6    2    1    2  501    0 -0.98794082931E+02 -0.15643857534E+02  0.10936917680E+03  0.22730308308E+03  0.17233709305E+03 0.  0.
         24    2    5    5    0    0 -0.68148963479E+02 -0.65653429280E+02  0.11830386802E+03  0.16778838473E+03  0.72128239004E+02 0.  0.
          5    1    5    5  501    0 -0.30645119451E+02  0.50009571746E+02 -0.89346912219E+01  0.59514698350E+02  0.47000000000E+01 0. -1.
        -11    1    6    6    0    0 -0.29781708198E+02 -0.65992985692E+02  0.10425259353E+03  0.12692764696E+03  0.00000000000E+00 0.  1.
         12    1    6    6    0    0 -0.38367255281E+02  0.33955641202E+00  0.14051274483E+02  0.40860737768E+02  0.00000000000E+00 0. -1.
         -5    1    3    3    0  503  0.71075570517E+01  0.61137877951E+02  0.81284310037E+02  0.10206657899E+03  0.47000000000E+01 0.  1.
         11    1    4    4    0    0  0.95752573014E+02 -0.15565777041E+02  0.62552909735E+02  0.11542839846E+03  0.00000000000E+00 0. -1.
        -12    1    4    4    0    0 -0.40660471347E+01 -0.29928243376E+02  0.27879404454E+01  0.30331585893E+02  0.00000000000E+00 0.  1.
</event>
<event>
12    1  0.8747122E-002  0.1809930E+03  0.7818608E-02  0.1167999E+00
         21   -1    0    0  501  502  0.00000000000E+00  0.00000000000E+00  0.66272378376E+02  0.66272378376E+02  0.00000000000E+00 0.  1.
         21   -1    0    0  502  503 -0.00000000000E+00 -0.00000000000E+00 -0.77893036894E+03  0.77893036894E+03  0.00000000000E+00 0.  1.
         -6    2    1    2    0  503 -0.44551024229E+00 -0.41559107117E+02 -0.62039182036E+03  0.64625417965E+03  0.17615645342E+03 0.  0.
        -24    2    3    3    0    0 -0.66796561442E+02 -0.34009336270E+02 -0.31697098335E+03  0.33553605117E+03  0.80594179523E+02 0.  0.
          6    2    1    2  501    0  0.44551024229E+00  0.41559107117E+02 -0.92266170202E+02  0.19894856767E+03  0.17128960432E+03 0.  0.
         24    2    5    5    0    0 -0.22751867361E+02  0.57000070896E+02  0.27310411026E+01  0.99837005041E+02  0.78697607585E+02 0.  0.
          5    1    5    5  501    0  0.23197377603E+02 -0.15440963780E+02 -0.94997211305E+02  0.99111562624E+02  0.47000000000E+01 0. -1.
        -11    1    6    6    0    0 -0.38712059569E+02  0.25206654109E+01  0.15284535701E+02  0.41696454786E+02  0.00000000000E+00 0.  1.
         12    1    6    6    0    0  0.15960192208E+02  0.54479405485E+02 -0.12553494598E+02  0.58140550255E+02  0.00000000000E+00 0. -1.
         -5    1    3    3    0  503  0.66351051200E+02 -0.75497708463E+01 -0.30342083700E+03  0.31071812848E+03  0.47000000000E+01 0.  1.
         13    1    4    4    0    0 -0.11257866755E+02 -0.12297155054E+01  0.73695626602E+00  0.11348782694E+02  0.00000000000E+00 0. -1.
        -14    1    4    4    0    0 -0.55538694687E+02 -0.32779620765E+02 -0.31770793962E+03  0.32418726848E+03  0.00000000000E+00 0.  1.
</event>
<event>
12    1  0.8747122E-002  0.2027295E+03  0.7818608E-02  0.1149458E+00
         21   -1    0    0  501  502  0.00000000000E+00  0.00000000000E+00  0.50011204972E+03  0.50011204972E+03  0.00000000000E+00 0. -1.
         21   -1    0    0  502  503 -0.00000000000E+00 -0.00000000000E+00 -0.21539549053E+03  0.21539549053E+03  0.00000000000E+00 0. -1.
         -6    2    1    2    0  503 -0.52623959828E+02 -0.68065321135E+02 -0.14414833766E+03  0.24114022066E+03  0.17311179533E+03 0.  0.
        -24    2    3    3    0    0 -0.35943579032E+02 -0.72277537154E+02 -0.17335988593E+03  0.20691475617E+03  0.79019510369E+02 0.  0.
          6    2    1    2  501    0  0.52623959828E+02  0.68065321135E+02  0.42886489685E+03  0.47436731960E+03  0.18356765801E+03 0.  0.
         24    2    5    5    0    0  0.63902032778E+01 -0.35318719178E+02  0.14642249679E+03  0.17002931772E+03  0.78626806475E+02 0.  0.
          5    1    5    5  501    0  0.46233756551E+02  0.10338404031E+03  0.28244240006E+03  0.30433800188E+03  0.47000000000E+01 0. -1.
        -13    1    6    6    0    0 -0.32036781760E+02 -0.34490315582E+02  0.92771883470E+02  0.10403153184E+03  0.00000000000E+00 0.  1.
         14    1    6    6    0    0  0.38426985038E+02 -0.82840359585E+00  0.53650613319E+02  0.65997785881E+02  0.00000000000E+00 0. -1.
         -5    1    3    3    0  503 -0.16680380796E+02  0.42122160194E+01  0.29211548273E+02  0.34225464494E+02  0.47000000000E+01 0.  1.
         11    1    4    4    0    0 -0.51187381873E+02 -0.37146679142E+02 -0.59681413260E+02  0.86959156637E+02  0.00000000000E+00 0. -1.
        -12    1    4    4    0    0  0.15243802841E+02 -0.35130858011E+02 -0.11367847267E+03  0.11995559953E+03  0.00000000000E+00 0.  1.
</event>
<event>
12    1  0.8747122E-002  0.3035245E+03  0.7818608E-02  0.1083580E+00
         21   -1    0    0  503  502  0.00000000000E+00  0.00000000000E+00  0.97986673302E+03  0.97986673302E+03  0.00000000000E+00 0.  1.
         21   -1    0    0  501  503 -0.00000000000E+00 -0.00000000000E+00 -0.11829367173E+03  0.11829367173E+03  0.00000000000E+00 0. -1.
          6    2    1    2  501    0 -0.14584342294E+03 -0.20205475801E+03  0.18052856387E+03  0.35254072510E+03  0.17204060925E+03 0.  0.
         24    2    3    3    0    0 -0.78182750017E+02 -0.43129264576E+02  0.30422626893E+02  0.12365393772E+03  0.79950511083E+02 0.  0.
         -6    2    1    2    0  502  0.14584342294E+03  0.20205475801E+03  0.68104449741E+03  0.74561967965E+03  0.17329359471E+03 0.  0.
        -24    2    5    5    0    0  0.11202606909E+02  0.76681872637E+02  0.17722559262E+03  0.20924099946E+03  0.79795220307E+02 0.  0.
          5    1    3    3  501    0 -0.67660672922E+02 -0.15892549344E+03  0.15010593698E+03  0.22888678739E+03  0.47000000000E+01 0. -1.
        -13    1    4    4    0    0  0.15313540198E+02  0.26858829578E+00 -0.23434079994E+01  0.15494134830E+02  0.00000000000E+00 0.  1.
         14    1    4    4    0    0 -0.93496290215E+02 -0.43397852872E+02  0.32766034892E+02  0.10815980289E+03  0.00000000000E+00 0. -1.
         -5    1    5    5    0  502  0.13464081603E+03  0.12537288538E+03  0.50381890480E+03  0.53637868019E+03  0.47000000000E+01 0.  1.
         13    1    6    6    0    0  0.32104307193E+02  0.26538911540E+02  0.27366075551E+02  0.49838764603E+02  0.00000000000E+00 0. -1.
        -14    1    6    6    0    0 -0.20901700284E+02  0.50142961097E+02  0.14985951707E+03  0.15940223486E+03  0.00000000000E+00 0.  1.
</event>
<event>
12    1  0.8747122E-002  0.1896971E+03  0.7818608E-02  0.1158933E+00
         21   -1    0    0  501  502  0.00000000000E+00  0.00000000000E+00  0.16483316361E+03  0.16483316361E+03  0.00000000000E+00 0.  1.
         21   -1    0    0  502  503 -0.00000000000E+00 -0.00000000000E+00 -0.37573879508E+03  0.37573879508E+03  0.00000000000E+00 0.  1.
         -6    2    1    2    0  503 -0.77392381598E+02  0.11648181877E+02 -0.28110579157E+03  0.33912453924E+03  0.17279967070E+03 0.  0.
        -24    2    3    3    0    0  0.88091336363E+01  0.43785795150E+02 -0.92164707286E+02  0.12892380008E+03  0.78308468671E+02 0.  0.
          6    2    1    2  501    0  0.77392381598E+02 -0.11648181877E+02  0.70200160101E+02  0.20144741945E+03  0.17183637407E+03 0.  0.
         24    2    5    5    0    0  0.68589264557E+02  0.55719190482E+02  0.58925596098E+02  0.13241797992E+03  0.79077051859E+02 0.  0.
          5    1    5    5  501    0  0.88031170414E+01 -0.67367372359E+02  0.11274564002E+02  0.69029439529E+02  0.47000000000E+01 0. -1.
        -13    1    6    6    0    0 -0.97765195694E+01  0.17362422655E+02  0.37672451223E+02  0.42617456945E+02  0.00000000000E+00 0.  1.
         14    1    6    6    0    0  0.78365784126E+02  0.38356767828E+02  0.21253144875E+02  0.89800522977E+02  0.00000000000E+00 0. -1.
         -5    1    3    3    0  503 -0.86201515234E+02 -0.32137613272E+02 -0.18894108428E+03  0.21020073916E+03  0.47000000000E+01 0.  1.
         11    1    4    4    0    0  0.59473737083E-01  0.32492400302E+02 -0.10488040199E+03  0.10979826199E+03  0.00000000000E+00 0. -1.
        -12    1    4    4    0    0  0.87496598993E+01  0.11293394848E+02  0.12715694702E+02  0.19125538091E+02  0.00000000000E+00 0.  1.
</event>
<event>
12    1  0.8747122E-002  0.2613113E+03  0.7818608E-02  0.1106386E+00
         21   -1    0    0  503  502  0.00000000000E+00  0.00000000000E+00  0.23148666710E+03  0.23148666710E+03  0.00000000000E+00 0.  1.
         21   -1    0    0  501  503 -0.00000000000E+00 -0.00000000000E+00 -0.32886100242E+03  0.32886100242E+03  0.00000000000E+00 0. -1.
          6    2    1    2  501    0  0.75593212677E+02 -0.18170083346E+03 -0.13891069332E+03  0.29593880292E+03  0.17191296540E+03 0.  0.
         24    2    3    3    0    0  0.13045130619E+02 -0.66090361842E+02 -0.12622713957E+03  0.16379870207E+03  0.79740909667E+02 0.  0.
         -6    2    1    2    0  502 -0.75593212677E+02  0.18170083346E+03  0.41536358008E+02  0.26440886660E+03  0.17163115399E+03 0.  0.
        -24    2    5    5    0    0 -0.77283218618E+02  0.43478141926E+02  0.68960572534E+01  0.12182412334E+03  0.83249725023E+02 0.  0.
          5    1    3    3  501    0  0.62548082058E+02 -0.11561047162E+03 -0.12683553749E+02  0.13214010085E+03  0.47000000000E+01 0. -1.
        -11    1    4    4    0    0  0.20536845372E+02  0.55726807300E+01 -0.67714214156E+02  0.70979092606E+02  0.00000000000E+00 0.  1.
         12    1    4    4    0    0 -0.74917147530E+01 -0.71663042573E+02 -0.58512925414E+02  0.92819609465E+02  0.00000000000E+00 0. -1.
         -5    1    5    5    0  502  0.16900059412E+01  0.13822269153E+03  0.34640300755E+02  0.14258474326E+03  0.47000000000E+01 0.  1.
         11    1    6    6    0    0 -0.18336663271E+01  0.46081781459E+02  0.16544336107E+01  0.46147915069E+02  0.00000000000E+00 0. -1.
        -12    1    6    6    0    0 -0.75449552291E+02 -0.26036395331E+01  0.52416236427E+01  0.75676208270E+02  0.00000000000E+00 0.  1.
</event>
<event>
12    1  0.8747122E-002  0.2007596E+03  0.7818608E-02  0.1149147E+00
         21   -1    0    0  503  502  0.00000000000E+00  0.00000000000E+00  0.34665321207E+03  0.34665321207E+03  0.00000000000E+00 0.  1.
         21   -1    0    0  501  503 -0.00000000000E+00 -0.00000000000E+00 -0.11856788838E+03  0.11856788838E+03  0.00000000000E+00 0.  1.
          6    2    1    2  501    0 -0.77583753492E+02  0.67853607318E+02  0.80790982349E+02  0.21640610640E+03  0.17228194689E+03 0.  0.
         24    2    3    3    0    0 -0.11797285536E+03  0.67095063002E+02  0.48495554153E+02  0.16447403903E+03  0.79249912678E+02 0.  0.
         -6    2    1    2    0  502  0.77583753492E+02 -0.67853607318E+02  0.14729434134E+03  0.24881499406E+03  0.17201723008E+03 0.  0.
        -24    2    5    5    0    0  0.44585943432E+02 -0.11018404540E+03  0.12559174002E+03  0.19073044912E+03  0.80476014097E+02 0.  0.
          5    1    3    3  501    0  0.40389101869E+02  0.75854431592E+00  0.32295428196E+02  0.51932067372E+02  0.47000000000E+01 0. -1.
        -11    1    4    4    0    0 -0.49055069878E+02  0.55947916737E+02 -0.77655820574E+01  0.74812255230E+02  0.00000000000E+00 0.  1.
         12    1    4    4    0    0 -0.68917785483E+02  0.11147146266E+02  0.56261136211E+02  0.89661783796E+02  0.00000000000E+00 0. -1.
         -5    1    5    5    0  502  0.32997810061E+02  0.42330438082E+02  0.21702601318E+02  0.58084544941E+02  0.47000000000E+01 0.  1.
         13    1    6    6    0    0 -0.15032082955E+02 -0.17679673506E+02 -0.69930779116E+00  0.23216877581E+02  0.00000000000E+00 0. -1.
        -14    1    6    6    0    0  0.59618026386E+02 -0.92504371894E+02  0.12629104782E+03  0.16751357153E+03  0.00000000000E+00 0.  1.
</event>
<event>
12    1  0.8747122E-002  0.2141780E+03  0.7818608E-02  0.1138737E+00
         21   -1    0    0  503  502  0.00000000000E+00  0.00000000000E+00  0.14782052877E+03  0.14782052877E+03  0.00000000000E+00 0. -1.
         21   -1    0    0  501  503 -0.00000000000E+00 -0.00000000000E+00 -0.46311500338E+03  0.46311500338E+03  0.00000000000E+00 0.  1.
          6    2    1    2  501    0 -0.13432058089E+03  0.25871220988E+02 -0.33441036132E+03  0.39590619942E+03  0.16186441998E+03 0.  0.
         24    2    3    3    0    0 -0.80902715269E+02 -0.44678862354E+02 -0.21302033311E+03  0.24561178310E+03  0.80037713629E+02 0.  0.
         -6    2    1    2    0  502  0.13432058089E+03 -0.25871220988E+02  0.19115886708E+02  0.21502933274E+03  0.16480551655E+03 0.  0.
        -24    2    5    5    0    0  0.21754964909E+02 -0.48263563969E+02  0.27152383201E+02  0.99881123015E+02  0.80226783034E+02 0.  0.
          5    1    3    3  501    0 -0.53417865624E+02  0.70550083343E+02 -0.12139002821E+03  0.15029441632E+03  0.47000000000E+01 0. -1.
        -11    1    4    4    0    0 -0.88785322553E+02 -0.13809882375E+02 -0.14658687813E+03  0.17193388029E+03  0.00000000000E+00 0.  1.
         12    1    4    4    0    0  0.78826072839E+01 -0.30868979980E+02 -0.66433454981E+02  0.73677902815E+02  0.00000000000E+00 0. -1.
         -5    1    5    5    0  502  0.11256561598E+03  0.22392342981E+02 -0.80364964927E+01  0.11514820972E+03  0.47000000000E+01 0.  1.
         11    1    6    6    0    0  0.33102296714E+02 -0.14712248017E+02  0.46953969029E+02  0.59303351482E+02  0.00000000000E+00 0. -1.
        -12    1    6    6    0    0 -0.11347331805E+02 -0.33551315952E+02 -0.19801585828E+02  0.40577771533E+02  0.00000000000E+00 0.  1.
</event>
<event>
12    1  0.8747122E-002  0.2202489E+03  0.7818608E-02  0.1133883E+00
         21   -1    0    0  501  502  0.00000000000E+00  0.00000000000E+00  0.24981814097E+03  0.24981814097E+03  0.00000000000E+00 0. -1.
         21   -1    0    0  502  503 -0.00000000000E+00 -0.00000000000E+00 -0.30763401875E+03  0.30763401875E+03  0.00000000000E+00 0.  1.
         -6    2    1    2    0  503  0.41348894350E+02 -0.13186255385E+03 -0.19886751396E+03  0.29674547271E+03  0.17149963059E+03 0.  0.
        -24    2    3    3    0    0 -0.19157258429E+02 -0.97484862987E+02 -0.18562828586E+03  0.22575119608E+03  0.81458228312E+02 0.  0.
          6    2    1    2  501    0 -0.41348894350E+02  0.13186255385E+03  0.14105163618E+03  0.26070668702E+03  0.17022029377E+03 0.  0.
         24    2    5    5    0    0 -0.17402240000E+02  0.83072096525E+02  0.85356358732E+01  0.11740096027E+03  0.80661745668E+02 0.  0.
          5    1    5    5  501    0 -0.23946654350E+02  0.48790457329E+02  0.13251600031E+03  0.14330572675E+03  0.47000000000E+01 0. -1.
        -13    1    6    6    0    0  0.12266731087E+02  0.67815389832E+02  0.32627829381E+02  0.76249426488E+02  0.00000000000E+00 0.  1.
         14    1    6    6    0    0 -0.29668971087E+02  0.15256706692E+02 -0.24092193508E+02  0.41151533780E+02  0.00000000000E+00 0. -1.
         -5    1    3    3    0  503  0.60506152779E+02 -0.34377690867E+02 -0.13239228102E+02  0.70994276630E+02  0.47000000000E+01 0.  1.
         11    1    4    4    0    0  0.12114109853E+02 -0.49758897934E+02 -0.28554536532E+02  0.58634982201E+02  0.00000000000E+00 0. -1.
        -12    1    4    4    0    0 -0.31271368282E+02 -0.47725965052E+02 -0.15707374933E+03  0.16711621388E+03  0.00000000000E+00 0.  1.
</event>
<event>
12    1  0.8747122E-002  0.3351866E+03  0.7818608E-02  0.1069124E+00
         21   -1    0    0  503  502  0.00000000000E+00  0.00000000000E+00  0.45550036181E+03  0.45550036181E+03  0.00000000000E+00 0.  1.
         21   -1    0    0  501  503 -0.00000000000E+00 -0.00000000000E+00 -0.25990733158E+03  0.25990733158E+03  0.00000000000E+00 0.  1.
          6    2    1    2  501    0 -0.22849023217E+03 -0.17084774785E+03  0.18406341203E+03  0.38239953787E+03  0.17593557848E+03 0.  0.
         24    2    3    3    0    0 -0.10648974450E+03 -0.53366571602E+02  0.15113675185E+03  0.20979536435E+03  0.83568657383E+02 0.  0.
         -6    2    1    2    0  502  0.22849023217E+03  0.17084774785E+03  0.11529618208E+02  0.33300815552E+03  0.17136149044E+03 0.  0.
        -24    2    5    5    0    0  0.68434804711E+02  0.37243034279E+02 -0.37544063453E+02  0.11876932716E+03  0.81401660150E+02 0.  0.
          5    1    3    3  501    0 -0.12200048767E+03 -0.11748117625E+03  0.32926660175E+02  0.17260417351E+03  0.47000000000E+01 0. -1.
        -11    1    4    4    0    0 -0.31514406045E+02  0.18346517996E+02  0.66744217337E+02  0.76056183567E+02  0.00000000000E+00 0.  1.
         12    1    4    4    0    0 -0.74975338454E+02 -0.71713089598E+02  0.84392534513E+02  0.13373918079E+03  0.00000000000E+00 0. -1.
         -5    1    5    5    0  502  0.16005542746E+03  0.13360471357E+03  0.49073681662E+02  0.21423882836E+03  0.47000000000E+01 0.  1.
         13    1    6    6    0    0  0.78269152947E+02  0.37338283518E+02 -0.52126832017E+02  0.10118010840E+03  0.00000000000E+00 0. -1.
        -14    1    6    6    0    0 -0.98343482363E+01 -0.95249239616E-01  0.14582768564E+02  0.17589218762E+02  0.00000000000E+00 0.  1.
</event>
<event>
12    1  0.8747122E-002  0.2163341E+03  0.7818608E-02  0.1136888E+00
         21   -1    0    0  503  502  0.00000000000E+00  0.00000000000E+00  0.17361307952E+03  0.17361307952E+03  0.00000000000E+00 0. -1.
         21   -1    0    0  501  503 -0.00000000000E+00 -0.00000000000E+00 -0.32826271556E+03  0.32826271556E+03  0.00000000000E+00 0. -1.
          6    2    1    2  501    0 -0.12685425931E+03 -0.33338745236E+02 -0.18466663319E+03  0.28346914384E+03  0.17043918286E+03 0.  0.
         24    2    3    3    0    0 -0.27753804945E+02  0.27724591618E+02 -0.37733394047E+02  0.95956216474E+02  0.79024425239E+02 0.  0.
         -6    2    1    2    0  502  0.12685425931E+03  0.33338745236E+02  0.30016997153E+02  0.21840665124E+03  0.17203769979E+03 0.  0.
        -24    2    5    5    0    0  0.23173793446E+01  0.11140280248E+02 -0.18516466721E+02  0.82834554423E+02  0.79932645243E+02 0.  0.
          5    1    3    3  501    0 -0.99100454367E+02 -0.61063336854E+02 -0.14693323915E+03  0.18751292737E+03  0.47000000000E+01 0. -1.
        -11    1    4    4    0    0  0.76336736315E+01 -0.20594381699E+02  0.48203401688E+01  0.22486378321E+02  0.00000000000E+00 0.  1.
         12    1    4    4    0    0 -0.35387478577E+02  0.48318973317E+02 -0.42553734216E+02  0.73469838152E+02  0.00000000000E+00 0. -1.
         -5    1    5    5    0  502  0.12453687997E+03  0.22198464988E+02  0.48533463875E+02  0.13557209682E+03  0.47000000000E+01 0.  1.
         11    1    6    6    0    0  0.38629588874E+02  0.19675677598E+02 -0.80584584095E+01  0.44094400749E+02  0.00000000000E+00 0. -1.
        -12    1    6    6    0    0 -0.36312209529E+02 -0.85353973496E+01 -0.10458008312E+02  0.38740153674E+02  0.00000000000E+00 0.  1.
</event>
<event>
12    1  0.8747122E-002  0.1927493E+03  0.7818608E-02  0.1156234E+00
         21   -1    0    0  503  502  0.00000000000E+00  0.00000000000E+00  0.80123969986E+03  0.80123969986E+03  0.00000000000E+00 0.  1.
         21   -1    0    0  501  503 -0.00000000000E+00 -0.00000000000E+00 -0.46737369563E+02  0.46737369563E+02  0.00000000000E+00 0.  1.
          6    2    1    2  501    0  0.23793993428E+02  0.81645908465E+02  0.32954861159E+03  0.38177817929E+03  0.17297422436E+03 0.  0.
         24    2    3    3    0    0  0.31410947705E+02 -0.20071453320E+02  0.10733534503E+03  0.13722702817E+03  0.76947190295E+02 0.  0.
         -6    2    1    2    0  502 -0.23793993428E+02 -0.81645908465E+02  0.42495371871E+03  0.46619889013E+03  0.17182413573E+03 0.  0.
        -24    2    5    5    0    0 -0.73248526631E+02 -0.50288672721E+02  0.35605697295E+03  0.37565675263E+03  0.80294025606E+02 0.  0.
          5    1    3    3  501    0 -0.76169542772E+01  0.10171736178E+03  0.22221326655E+03  0.24455115112E+03  0.47000000000E+01 0. -1.
        -11    1    4    4    0    0  0.29250211853E+02  0.18191077456E+02  0.15609723876E+02  0.37817372621E+02  0.00000000000E+00 0.  1.
         12    1    4    4    0    0  0.21607358517E+01 -0.38262530776E+02  0.91725621157E+02  0.99409655554E+02  0.00000000000E+00 0. -1.
         -5    1    5    5    0  502  0.49454533203E+02 -0.31357235744E+02  0.68896745761E+02  0.90542137507E+02  0.47000000000E+01 0.  1.
         11    1    6    6    0    0 -0.40339451147E+02 -0.38118712401E+02  0.79929494629E+02  0.97308949565E+02  0.00000000000E+00 0. -1.
        -12    1    6    6    0    0 -0.32909075484E+02 -0.12169960320E+02  0.27612747832E+03  0.27834780306E+03  0.00000000000E+00 0.  1.
</event>
<event>
12    1  0.8747122E-002  0.1851656E+03  0.7818608E-02  0.1163330E+00
         21   -1    0    0  503  502  0.00000000000E+00  0.00000000000E+00  0.60326448225E+03  0.60326448225E+03  0.00000000000E+00 0.  1.
         21   -1    0    0  501  503 -0.00000000000E+00 -0.00000000000E+00 -0.58845660857E+02  0.58845660857E+02  0.00000000000E+00 0.  1.
          6    2    1    2  501    0 -0.16801838686E+02 -0.62635346555E+02  0.34280986233E+03  0.38962148533E+03  0.17343820715E+03 0.  0.
         24    2    3    3    0    0 -0.27320527658E+02 -0.10900844526E+03  0.24624441952E+03  0.28188067669E+03  0.78683857164E+02 0.  0.
         -6    2    1    2    0  502  0.16801838686E+02  0.62635346555E+02  0.20160895906E+03  0.27248865777E+03  0.17145963904E+03 0.  0.
        -24    2    5    5    0    0  0.11764338248E+02  0.10888324081E+03  0.13426634237E+03  0.19050474376E+03  0.79187416406E+02 0.  0.
          5    1    3    3  501    0  0.10518688973E+02  0.46373098705E+02  0.96565442811E+02  0.10774080864E+03  0.47000000000E+01 0. -1.
        -11    1    4    4    0    0 -0.42159678514E+02 -0.96789546457E+02  0.23910552972E+03  0.26137541801E+03  0.00000000000E+00 0.  1.
         12    1    4    4    0    0  0.14839150855E+02 -0.12218898803E+02  0.71388897956E+01  0.20505258681E+02  0.00000000000E+00 0. -1.
         -5    1    5    5    0  502  0.50375004379E+01 -0.46247894259E+02  0.67342616691E+02  0.81983914012E+02  0.47000000000E+01 0.  1.
         13    1    6    6    0    0  0.28765534869E+01 -0.12031844123E+02  0.22146776349E+02  0.25367686840E+02  0.00000000000E+00 0. -1.
        -14    1    6    6    0    0  0.88877847608E+01  0.12091508494E+03  0.11211956602E+03  0.16513705692E+03  0.00000000000E+00 0.  1.
</event>
<event>
12    1  0.8747122E-002  0.1802599E+03  0.7818608E-02  0.1167573E+00
         21   -1    0    0  501  502  0.00000000000E+00  0.00000000000E+00  0.11888412308E+04  0.11888412308E+04  0.00000000000E+00 0.  1.
         21   -1    0    0  502  503 -0.00000000000E+00 -0.00000000000E+00 -0.28318743338E+02  0.28318743338E+02  0.00000000000E+00 0.  1.
         -6    2    1    2    0  503 -0.46807000938E+02  0.29133479506E+02  0.46577164190E+03  0.49940487397E+03  0.17152944581E+03 0.  0.
        -24    2    3    3    0    0  0.39697849602E+02  0.17513378044E+02  0.28171734563E+03  0.29564965342E+03  0.78494694505E+02 0.  0.
          6    2    1    2  501    0  0.46807000938E+02 -0.29133479506E+02  0.69475084559E+03  0.71775510020E+03  0.17162165204E+03 0.  0.
         24    2    5    5    0    0  0.11402666110E+02 -0.39920216959E+02  0.66105624577E+03  0.66748347116E+03  0.82554101526E+02 0.  0.
          5    1    5    5  501    0  0.35404334828E+02  0.10786737452E+02  0.33694599819E+02  0.50271629042E+02  0.47000000000E+01 0. -1.
        -11    1    6    6    0    0  0.21118365125E+02 -0.50240683570E+02  0.23679675712E+03  0.24298727500E+03  0.00000000000E+00 0.  1.
         12    1    6    6    0    0 -0.97156990148E+01  0.10320466611E+02  0.42425948866E+03  0.42449619616E+03  0.00000000000E+00 0. -1.
         -5    1    3    3    0  503 -0.86504850540E+02  0.11620101462E+02  0.18405429627E+03  0.20375522055E+03  0.47000000000E+01 0.  1.
         13    1    4    4    0    0 -0.93975302705E+01  0.30583111024E+02  0.16913685735E+03  0.17213633193E+03  0.00000000000E+00 0. -1.
        -14    1    4    4    0    0  0.49095379872E+02 -0.13069732980E+02  0.11258048828E+03  0.12351332149E+03  0.00000000000E+00 0.  1.
</event>
<event>
12    1  0.8747122E-002  0.1786464E+03  0.7818608E-02  0.1169125E+00
         21   -1    0    0  501  502  0.00000000000E+00  0.00000000000E+00  0.40150195909E+03  0.40150195909E+03  0.00000000000E+00 0.  1.
         21   -1    0    0  502  503 -0.00000000000E+00 -0.00000000000E+00 -0.89182402546E+02  0.89182402546E+02  0.00000000000E+00 0.  1.
         -6    2    1    2    0  503  0.42698760466E+02  0.32654604077E+02  0.75217929896E+02  0.19381449365E+03  0.17034322310E+03 0.  0.
        -24    2    3    3    0    0  0.70868581156E+02  0.48763608210E+02  0.65695327184E+01  0.11773735354E+03  0.80116667289E+02 0.  0.
          6    2    1    2  501    0 -0.42698760466E+02 -0.32654604077E+02  0.23710162665E+03  0.29686986799E+03  0.17036733797E+03 0.  0.
         24    2    5    5    0    0 -0.51149533795E+02 -0.48052434154E+02  0.25200863418E+03  0.27335779419E+03  0.79314694156E+02 0.  0.
          5    1    5    5  501    0  0.84507733287E+01  0.15397830077E+02 -0.14907007528E+02  0.23512073800E+02  0.47000000000E+01 0. -1.
        -11    1    6    6    0    0 -0.24325813245E+02 -0.16230680741E+02  0.15272929071E+02  0.32991552703E+02  0.00000000000E+00 0.  1.
         12    1    6    6    0    0 -0.26823720550E+02 -0.31821753413E+02  0.23673570510E+03  0.24036624148E+03  0.00000000000E+00 0. -1.
         -5    1    3    3    0  503 -0.28169820689E+02 -0.16109004133E+02  0.68648397178E+02  0.76077140107E+02  0.47000000000E+01 0.  1.
         11    1    4    4    0    0  0.79551364170E+01  0.53678516505E+02  0.63212980522E+01  0.54631731976E+02  0.00000000000E+00 0. -1.
        -12    1    4    4    0    0  0.62913444739E+02 -0.49149082950E+01  0.24823466625E+00  0.63105621563E+02  0.00000000000E+00 0.  1.
</event>
<event>
12    1  0.8747122E-002  0.2230840E+03  0.7818608E-02  0.1131906E+00
         21   -1    0    0  501  502  0.00000000000E+00  0.00000000000E+00  0.49089751057E+03  0.49089751057E+03  0.00000000000E+00 0. -1.
         21   -1    0    0  502  503 -0.00000000000E+00 -0.00000000000E+00 -0.27374477166E+03  0.27374477166E+03  0.00000000000E+00 0. -1.
         -6    2    1    2    0  503  0.95178636306E+02  0.10478396197E+03 -0.19560085554E+03  0.29545999293E+03  0.17028875840E+03 0.  0.
        -24    2    3    3    0    0  0.12296640226E+03  0.43423917478E+02 -0.14960141220E+03  0.21375776662E+03  0.79406722403E+02 0.  0.
          6    2    1    2  501    0 -0.95178636306E+02 -0.10478396197E+03  0.41275359445E+03  0.46918228929E+03  0.17241763066E+03 0.  0.
         24    2    5    5    0    0 -0.55970575993E+02 -0.13797691036E+03  0.28844522165E+03  0.33459512288E+03  0.81135178505E+02 0.  0.
          5    1    5    5  501    0 -0.39208060313E+02  0.33192948388E+02  0.12430837280E+03  0.13458716642E+03  0.47000000000E+01 0. -1.
        -13    1    6    6    0    0  0.89004484923E+01 -0.85743231790E+02  0.15176287692E+03  0.17453678865E+03  0.00000000000E+00 0.  1.
         14    1    6    6    0    0 -0.64871024485E+02 -0.52233678570E+02  0.13668234473E+03  0.16005833423E+03  0.00000000000E+00 0. -1.
         -5    1    3    3    0  503 -0.27787765955E+02  0.61360044494E+02 -0.45999443340E+02  0.81702226314E+02  0.47000000000E+01 0.  1.
         11    1    4    4    0    0  0.57537644676E+02  0.58092604712E+02 -0.10561068518E+03  0.13356252506E+03  0.00000000000E+00 0. -1.
        -12    1    4    4    0    0  0.65428757585E+02 -0.14668687233E+02 -0.43990727021E+02  0.80195241555E+02  0.00000000000E+00 0.  1.
</event>
<event>
12    1  0.8747122E-002  0.2191715E+03  0.7818608E-02  0.1134711E+00
         21   -1    0    0  503  502  0.00000000000E+00  0.00000000000E+00  0.67009956475E+03  0.67009956475E+03  0.00000000000E+00 0. -1.
         21   -1    0    0  501  503 -0.00000000000E+00 -0.00000000000E+00 -0.79835907934E+02  0.79835907934E+02  0.00000000000E+00 0. -1.
          6    2    1    2  501    0 -0.12254431575E+03  0.52297350407E+02  0.17201510514E+03  0.27774058755E+03  0.17262246491E+03 0.  0.
         24    2    3    3    0    0 -0.12138154840E+03  0.93600276545E+02  0.15609906006E+03  0.23321313280E+03  0.80789582858E+02 0.  0.
         -6    2    1    2    0  502  0.12254431575E+03 -0.52297350407E+02  0.41824855168E+03  0.47219488514E+03  0.17402309153E+03 0.  0.
        -24    2    5    5    0    0  0.45296917338E+02  0.82586853258E+01  0.82775610393E+02  0.12262603876E+03  0.77880209946E+02 0.  0.
          5    1    3    3  501    0 -0.11627673559E+01 -0.41302926138E+02  0.15916045085E+02  0.44527454752E+02  0.47000000000E+01 0. -1.
        -13    1    4    4    0    0 -0.30556895031E+01  0.91847498152E+01  0.55756070269E+02  0.56590071915E+02  0.00000000000E+00 0.  1.
         14    1    4    4    0    0 -0.11832585890E+03  0.84415526730E+02  0.10034298979E+03  0.17662306088E+03  0.00000000000E+00 0. -1.
         -5    1    5    5    0  502  0.77247398416E+02 -0.60556035732E+02  0.33547294129E+03  0.34956884638E+03  0.47000000000E+01 0.  1.
         11    1    6    6    0    0  0.61277850878E+02 -0.71684809750E+01  0.78770106672E+02  0.10005544379E+03  0.00000000000E+00 0. -1.
        -12    1    6    6    0    0 -0.15980933539E+02  0.15427166301E+02  0.40055037212E+01  0.22570594962E+02  0.00000000000E+00 0.  1.
</event>
<event>
12    1  0.8747122E-002  0.2143575E+03  0.7818608E-02  0.1138372E+00
         21   -1    0    0  501  502  0.00000000000E+00  0.00000000000E+00  0.62276514623E+02  0.62276514623E+02  0.00000000000E+00 0. -1.
         21   -1    0    0  502  503 -0.00000000000E+00 -0.00000000000E+00 -0.12599613790E+04  0.12599613790E+04  0.00000000000E+00 0. -1.
         -6    2    1    2    0  503  0.34101918511E+02 -0.12215573860E+03 -0.10250679036E+04  0.10470184607E+04  0.17145986363E+03 0.  0.
        -24    2    3    3    0    0 -0.17018713916E+02 -0.57524751362E+02 -0.81698673344E+03  0.82316505571E+03  0.80837198630E+02 0.  0.
          6    2    1    2  501    0 -0.34101918511E+02  0.12215573860E+03 -0.17261696082E+03  0.27521943292E+03  0.17281248733E+03 0.  0.
         24    2    5    5    0    0 -0.17351115850E+02  0.26648741587E+02 -0.15137277581E+03  0.17584347374E+03  0.83642054903E+02 0.  0.
          5    1    5    5  501    0 -0.16750802661E+02  0.95506997009E+02 -0.21244185010E+02  0.99375959186E+02  0.47000000000E+01 0. -1.
        -13    1    6    6    0    0 -0.19463057446E+02  0.16708118250E+02 -0.15727519111E+01  0.25699131681E+02  0.00000000000E+00 0.  1.
         14    1    6    6    0    0  0.21119415958E+01  0.99406233372E+01 -0.14980002390E+03  0.15014434206E+03  0.00000000000E+00 0. -1.
         -5    1    3    3    0  503  0.51120632427E+02 -0.64630987233E+02 -0.20808117011E+03  0.22385340499E+03  0.47000000000E+01 0.  1.
         11    1    4    4    0    0 -0.48152907595E+02 -0.36991269613E+02 -0.59225930666E+03  0.59536387433E+03  0.00000000000E+00 0. -1.
        -12    1    4    4    0    0  0.31134193679E+02 -0.20533481750E+02 -0.22472742679E+03  0.22780118138E+03  0.00000000000E+00 0.  1.
</event>
<event>
12    1  0.8747122E-002  0.1696114E+03  0.7818608E-02  0.1178348E+00
         21   -1    0    0  501  502  0.00000000000E+00  0.00000000000E+00  0.59976786496E+03  0.59976786496E+03  0.00000000000E+00 0.  1.
         21   -1    0    0  502  503 -0.00000000000E+00 -0.00000000000E+00 -0.83958247293E+02  0.83958247293E+02  0.00000000000E+00 0.  1.
         -6    2    1    2    0  503 -0.25983370133E+02  0.13395251046E+02  0.33908615481E+02  0.17296769204E+03  0.16707321752E+03 0.  0.
        -24    2    3    3    0    0  0.24409344247E+02 -0.98635485079E+01 -0.31676786556E+02  0.86921585917E+02  0.76543044204E+02 0.  0.
          6    2    1    2  501    0  0.25983370133E+02 -0.13395251046E+02  0.48190100218E+03  0.51075842021E+03  0.16670638749E+03 0.  0.
         24    2    5    5    0    0 -0.32994493649E+01 -0.39310632806E+02  0.15252795618E+03  0.17903898459E+03  0.85052738755E+02 0.  0.
          5    1    5    5  501    0  0.29282819498E+02  0.25915381761E+02  0.32937304601E+03  0.33171943562E+03  0.47000000000E+01 0. -1.
        -11    1    6    6    0    0 -0.12293715649E+01  0.41097643878E+01  0.13001443393E+03  0.13008518189E+03  0.00000000000E+00 0.  1.
         12    1    6    6    0    0 -0.20700778001E+01 -0.43420397194E+02  0.22513522247E+02  0.48953802698E+02  0.00000000000E+00 0. -1.
         -5    1    3    3    0  503 -0.50392714381E+02  0.23258799554E+02  0.65585402036E+02  0.86046106127E+02  0.47000000000E+01 0.  1.
         11    1    4    4    0    0 -0.45972441138E+01  0.22499800478E+02  0.11479729819E+02  0.25674108976E+02  0.00000000000E+00 0. -1.
        -12    1    4    4    0    0  0.29006588361E+02 -0.32363348986E+02 -0.43156516375E+02  0.61247476941E+02  0.00000000000E+00 0.  1.
</event>
<event>
12    1  0.8747122E-002  0.2095621E+03  0.7818608E-02  0.1141985E+00
         21   -1    0    0  503  502  0.00000000000E+00  0.00000000000E+00  0.15831344807E+03  0.15831344807E+03  0.00000000000E+00 0.  1.
         21   -1    0    0  501  503 -0.00000000000E+00 -0.00000000000E+00 -0.27888396142E+03  0.27888396142E+03  0.00000000000E+00 0. -1.
          6    2    1    2  501    0  0.10914790042E+03 -0.48795864357E+02 -0.78668647230E+02  0.22384151337E+03  0.17211033237E+03 0.  0.
         24    2    3    3    0    0 -0.45129096384E+00 -0.17112865806E+02  0.57466884838E+01  0.81842097696E+02  0.79825125663E+02 0.  0.
         -6    2    1    2    0  502 -0.10914790042E+03  0.48795864357E+02 -0.41901866117E+02  0.21335589612E+03  0.17167024052E+03 0.  0.
        -24    2    5    5    0    0 -0.60014095224E+02  0.94757509938E+02 -0.48606804133E+02  0.14557942622E+03  0.79057388121E+02 0.  0.
          5    1    3    3  501    0  0.10959919138E+03 -0.31682998551E+02 -0.84415335714E+02  0.14199941568E+03  0.47000000000E+01 0. -1.
        -13    1    4    4    0    0 -0.17673530169E+02 -0.45287891698E+02  0.30219423197E+01  0.48708099311E+02  0.00000000000E+00 0.  1.
         14    1    4    4    0    0  0.17222239205E+02  0.28175025893E+02  0.27247461641E+01  0.33133998385E+02  0.00000000000E+00 0. -1.
         -5    1    5    5    0  502 -0.49133805194E+02 -0.45961645582E+02  0.67049380160E+01  0.67776469894E+02  0.47000000000E+01 0.  1.
         11    1    6    6    0    0 -0.26670500366E+02  0.32668792185E+02 -0.60862678820E+02  0.74046142680E+02  0.00000000000E+00 0. -1.
        -12    1    6    6    0    0 -0.33343594858E+02  0.62088717754E+02  0.12255874687E+02  0.71533283545E+02  0.00000000000E+00 0.  1.
</event>
<event>
12    1  0.8747122E-002  0.1921925E+03  0.7818608E-02  0.1156664E+00
         21   -1    0    0  501  502  0.00000000000E+00  0.00000000000E+00  0.19634668688E+04  0.19634668688E+04  0.00000000000E+00 0. -1.
         21   -1    0    0  502  503 -0.00000000000E+00 -0.00000000000E+00 -0.24452547280E+02  0.24452547280E+02  0.00000000000E+00 0. -1.
         -6    2    1    2    0  503 -0.80996605491E+01 -0.85873148158E+02  0.48763547948E+03  0.52387074670E+03  0.17091634307E+03 0.  0.
        -24    2    3    3    0    0 -0.64266091167E+02 -0.38037556972E+02  0.36129155457E+03  0.37748840803E+03  0.79930748667E+02 0.  0.
          6    2    1    2  501    0  0.80996605491E+01  0.85873148158E+02  0.14513788421E+04  0.14640486694E+04  0.17175028706E+03 0.  0.
         24    2    5    5    0    0 -0.41498933495E+02  0.83826179275E+02  0.69152854203E+03  0.70256408054E+03  0.81459026555E+02 0.  0.
          5    1    5    5  501    0  0.49598594044E+02  0.20469688829E+01  0.75985030003E+03  0.76148458885E+03  0.47000000000E+01 0. -1.
        -13    1    6    6    0    0  0.23282056093E+02  0.13065398576E+02  0.19861957433E+03  0.20040582347E+03  0.00000000000E+00 0.  1.
         14    1    6    6    0    0 -0.64780989588E+02  0.70760780699E+02  0.49290896770E+03  0.50215825706E+03  0.00000000000E+00 0. -1.
         -5    1    3    3    0  503  0.56166430618E+02 -0.47835591186E+02  0.12634392491E+03  0.14638233867E+03  0.47000000000E+01 0.  1.
         13    1    4    4    0    0 -0.15575466810E+02 -0.55501043227E+02  0.19364204837E+03  0.20204010459E+03  0.00000000000E+00 0. -1.
        -14    1    4    4    0    0 -0.48690624358E+02  0.17463486255E+02  0.16764950620E+03  0.17544830345E+03  0.00000000000E+00 0.  1.
</event>
<event>
12    1  0.8747122E-002  0.2672640E+03  0.7818608E-02  0.1102951E+00
         21   -1    0    0  503  502  0.00000000000E+00  0.00000000000E+00  0.36232816915E+03  0.36232816915E+03  0.00000000000E+00 0.  1.
         21   -1    0    0  501  503 -0.00000000000E+00 -0.00000000000E+00 -0.32224628411E+03  0.32224628411E+03  0.00000000000E+00 0. -1.
          6    2    1    2  501    0 -0.18950498916E+03  0.78369380112E+02 -0.19362766296E+03  0.33003290111E+03  0.17139470030E+03 0.  0.
         24    2    3    3    0    0 -0.11552691877E+03  0.25409070220E+02 -0.19154437861E+03  0.23890672815E+03  0.79969281412E+02 0.  0.
         -6    2    1    2    0  502  0.18950498916E+03 -0.78369380112E+02  0.23370954800E+03  0.35454155215E+03  0.17036918358E+03 0.  0.
        -24    2    5    5    0    0  0.89391933479E+02  0.18656294543E+02  0.74899866398E+02  0.14316697839E+03  0.80918592532E+02 0.  0.
          5    1    3    3  501    0 -0.73978070397E+02  0.52960309892E+02 -0.20832843488E+01  0.91126172953E+02  0.47000000000E+01 0. -1.
        -11    1    4    4    0    0 -0.26285809314E+02 -0.21699280177E+02 -0.19008451076E+02  0.39027217987E+02  0.00000000000E+00 0.  1.
         12    1    4    4    0    0 -0.89241109453E+02  0.47108350397E+02 -0.17253592754E+03  0.19987951017E+03  0.00000000000E+00 0. -1.
         -5    1    5    5    0  502  0.10011305569E+03 -0.97025674655E+02  0.15880968160E+03  0.21137457376E+03  0.47000000000E+01 0.  1.
         13    1    6    6    0    0  0.21173680610E+02  0.11361738522E+02 -0.16304723193E+02  0.29038902376E+02  0.00000000000E+00 0. -1.
        -14    1    6    6    0    0  0.68218252869E+02  0.72945560214E+01  0.91204589591E+02  0.11412807601E+03  0.00000000000E+00 0.  1.
</event>
<event>
12    1  0.8747122E-002  0.3474430E+03  0.7818608E-02  0.1063709E+00
         21   -1    0    0  501  502  0.00000000000E+00  0.00000000000E+00  0.51735236418E+03  0.51735236418E+03  0.00000000000E+00 0. -1.
         21   -1    0    0  502  503 -0.00000000000E+00 -0.00000000000E+00 -0.28972963455E+03  0.28972963455E+03  0.00000000000E+00 0.  1.
         -6    2    1    2    0  503 -0.19850277112E+03 -0.22753135564E+03 -0.64580747324E+02  0.35339401358E+03  0.17188015582E+03 0.  0.
        -24    2    3    3    0    0 -0.98908380993E+02 -0.14510794624E+03  0.27742108561E+02  0.19446553695E+03  0.78791094572E+02 0.  0.
          6    2    1    2  501    0  0.19850277112E+03  0.22753135564E+03  0.29220347696E+03  0.45368798516E+03  0.17110244881E+03 0.  0.
         24    2    5    5    0    0  0.43024140683E+02  0.12834431786E+03  0.98720068172E+02  0.18635001094E+03  0.81592488050E+02 0.  0.
          5    1    5    5  501    0  0.15547863044E+03  0.99187037772E+02  0.19348340879E+03  0.26733797422E+03  0.47000000000E+01 0. -1.
        -13    1    6    6    0    0  0.43443511401E+02  0.71887686099E+02  0.14926662037E+02  0.85311097374E+02  0.00000000000E+00 0.  1.
         14    1    6    6    0    0 -0.41937071810E+00  0.56456631765E+02  0.83793406135E+02  0.10103891356E+03  0.00000000000E+00 0. -1.
         -5    1    3    3    0  503 -0.99594390129E+02 -0.82423409400E+02 -0.92322855886E+02  0.15892847662E+03  0.47000000000E+01 0.  1.
         13    1    4    4    0    0 -0.40819890068E+02 -0.26264189866E+02  0.38205962040E+02  0.61771891907E+02  0.00000000000E+00 0. -1.
        -14    1    4    4    0    0 -0.58088490926E+02 -0.11884375637E+03 -0.10463853478E+02  0.13269364505E+03  0.00000000000E+00 0.  1.
</event>
<event>
12    1  0.8747122E-002  0.1745725E+03  0.7818608E-02  0.1173273E+00
         21   -1    0    0  503  502  0.00000000000E+00  0.00000000000E+00  0.12330281137E+03  0.12330281137E+03  0.00000000000E+00 0. -1.
         21   -1    0    0  501  503 -0.00000000000E+00 -0.00000000000E+00 -0.24869464621E+03  0.24869464621E+03  0.00000000000E+00 0. -1.
          6    2    1    2  501    0  0.12493184089E+02  0.25980009059E+02 -0.45280377837E+02  0.17992087097E+03  0.17172701207E+03 0.  0.
         24    2    3    3    0    0 -0.47716673593E+02  0.34934082953E+02 -0.58974175804E+02  0.11735081020E+03  0.82437783526E+02 0.  0.
         -6    2    1    2    0  502 -0.12493184089E+02 -0.25980009059E+02 -0.80111457003E+02  0.19207658661E+03  0.17217586666E+03 0.  0.
        -24    2    5    5    0    0 -0.71376803840E+02  0.27878937397E+01 -0.61665821706E+02  0.12383287358E+03  0.80184079063E+02 0.  0.
          5    1    3    3  501    0  0.60209857683E+02 -0.89540738947E+01  0.13693797967E+02  0.62570060766E+02  0.47000000000E+01 0. -1.
        -13    1    4    4    0    0 -0.41841463318E+02 -0.19833860941E+02 -0.29096390264E+02  0.54687201600E+02  0.00000000000E+00 0.  1.
         14    1    4    4    0    0 -0.58752102752E+01  0.54767943895E+02 -0.29877785540E+02  0.62663608602E+02  0.00000000000E+00 0. -1.
         -5    1    5    5    0  502  0.58883619751E+02 -0.28767902799E+02 -0.18445635297E+02  0.68243713028E+02  0.47000000000E+01 0.  1.
         13    1    6    6    0    0 -0.11210614116E+02  0.23199201179E+02 -0.54007402332E+02  0.59838786007E+02  0.00000000000E+00 0. -1.
        -14    1    6    6    0    0 -0.60166189724E+02 -0.20411307439E+02 -0.76584193744E+01  0.63994087575E+02  0.00000000000E+00 0.  1.
</event>
<event>
12    1  0.8747122E-002  0.1916005E+03  0.7818608E-02  0.1159054E+00
         21   -1    0    0  501  502  0.00000000000E+00  0.00000000000E+00  0.17314949879E+03  0.17314949879E+03  0.00000000000E+00 0.  1.
         21   -1    0    0  502  503 -0.00000000000E+00 -0.00000000000E+00 -0.25012144189E+03  0.25012144189E+03  0.00000000000E+00 0.  1.
         -6    2    1    2    0  503  0.26297321785E+01  0.78518667802E+02 -0.13024807667E+03  0.22440136149E+03  0.16498276540E+03 0.  0.
        -24    2    3    3    0    0  0.55974525144E+02  0.40979838647E+02 -0.11627761815E+03  0.15752764212E+03  0.80510737853E+02 0.  0.
          6    2    1    2  501    0 -0.26297321785E+01 -0.78518667802E+02  0.53276133571E+02  0.19886957919E+03  0.17475315858E+03 0.  0.
         24    2    5    5    0    0 -0.37127200913E+02 -0.60847955850E+02 -0.25690414659E+02  0.11077794991E+03  0.80813699341E+02 0.  0.
          5    1    5    5  501    0  0.34497468735E+02 -0.17670711952E+02  0.78966548230E+02  0.88091629281E+02  0.47000000000E+01 0. -1.
        -11    1    6    6    0    0 -0.57422313245E+02 -0.27797125456E+02  0.81453970828E+00  0.63801768917E+02  0.00000000000E+00 0.  1.
         12    1    6    6    0    0  0.20295112332E+02 -0.33050830394E+02 -0.26504954367E+02  0.46976180989E+02  0.00000000000E+00 0. -1.
         -5    1    3    3    0  503 -0.53344792966E+02  0.37538829154E+02 -0.13970458517E+02  0.66873719367E+02  0.47000000000E+01 0.  1.
         11    1    4    4    0    0  0.20710337972E+02  0.25459626364E+02  0.22488595331E+01  0.32896322632E+02  0.00000000000E+00 0. -1.
        -12    1    4    4    0    0  0.35264187172E+02  0.15520212283E+02 -0.11852647768E+03  0.12463131949E+03  0.00000000000E+00 0.  1.
</event>
<event>
12    1  0.8747122E-002  0.3076099E+03  0.7818608E-02  0.1081602E+00
         21   -1    0    0  503  502  0.00000000000E+00  0.00000000000E+00  0.46564264079E+03  0.46564264079E+03  0.00000000000E+00 0. -1.
         21   -1    0    0  501  503 -0.00000000000E+00 -0.00000000000E+00 -0.23073129856E+03  0.23073129856E+03  0.00000000000E+00 0.  1.
          6    2    1    2  501    0 -0.25227648350E+03 -0.39101691151E+02 -0.38889099527E+01  0.30763453088E+03  0.17161443585E+03 0.  0.
         24    2    3    3    0    0 -0.58058563583E+02  0.14131677484E+02  0.28577303762E+02  0.10359890413E+03  0.79659083174E+02 0.  0.
         -6    2    1    2    0  502  0.25227648350E+03  0.39101691151E+02  0.23880025219E+03  0.38873940847E+03  0.17005999200E+03 0.  0.
        -24    2    5    5    0    0  0.60986627432E+02 -0.24979155895E+01  0.13106891422E+03  0.16524339622E+03  0.80004446192E+02 0.  0.
          5    1    3    3  501    0 -0.19421791992E+03 -0.53233368635E+02 -0.32466213715E+02  0.20403562676E+03  0.47000000000E+01 0. -1.
        -13    1    4    4    0    0 -0.26689253605E+01  0.25262493282E+02 -0.17372399304E+02  0.30775265831E+02  0.00000000000E+00 0.  1.
         14    1    4    4    0    0 -0.55389638223E+02 -0.11130815798E+02  0.45949703066E+02  0.72823638296E+02  0.00000000000E+00 0. -1.
         -5    1    5    5    0  502  0.19128985607E+03  0.41599606740E+02  0.10773133796E+03  0.22349601226E+03  0.47000000000E+01 0.  1.
         13    1    6    6    0    0  0.61823884037E+02  0.16986601464E+02  0.13087934825E+03  0.14573997758E+03  0.00000000000E+00 0. -1.
        -14    1    6    6    0    0 -0.83725660494E+00 -0.19484517054E+02  0.18956597612E+00  0.19503418641E+02  0.00000000000E+00 0.  1.
</event>
<event>
12    1  0.8747122E-002  0.2180241E+03  0.7818608E-02  0.1136000E+00
         21   -1    0    0  501  502  0.00000000000E+00  0.00000000000E+00  0.14066029378E+03  0.14066029378E+03  0.00000000000E+00 0.  1.
         21   -1    0    0  502  503 -0.00000000000E+00 -0.00000000000E+00 -0.51014343243E+03  0.51014343243E+03  0.00000000000E+00 0. -1.
         -6    2    1    2    0  503 -0.13427551609E+03  0.14140266091E+02 -0.37753701342E+03  0.43596868689E+03  0.17118597518E+03 0.  0.
        -24    2    3    3    0    0 -0.14488309800E+03 -0.32875893034E+02 -0.25217103616E+03  0.30157464585E+03  0.72698687129E+02 0.  0.
          6    2    1    2  501    0  0.13427551609E+03 -0.14140266091E+02  0.80538747672E+01  0.21483503932E+03  0.16691125749E+03 0.  0.
         24    2    5    5    0    0  0.13884410251E+03  0.90487362887E+01 -0.37250752475E+02  0.16352031373E+03  0.77406136796E+02 0.  0.
          5    1    5    5  501    0 -0.45685864117E+01 -0.23189002379E+02  0.45304627242E+02  0.51314725593E+02  0.47000000000E+01 0. -1.
        -13    1    6    6    0    0  0.17625387608E+02 -0.11125064628E+02  0.19154450814E+02  0.28307496133E+02  0.00000000000E+00 0.  1.
         14    1    6    6    0    0  0.12121871490E+03  0.20173800916E+02 -0.56405203289E+02  0.13521281760E+03  0.00000000000E+00 0. -1.
         -5    1    3    3    0  503  0.10607581911E+02  0.47016159125E+02 -0.12536597725E+03  0.13439404103E+03  0.47000000000E+01 0.  1.
         11    1    4    4    0    0 -0.96125326071E+02  0.60045884230E+01 -0.19256760575E+03  0.21531004663E+03  0.00000000000E+00 0. -1.
        -12    1    4    4    0    0 -0.48757771934E+02 -0.38880481457E+02 -0.59603430415E+02  0.86264599225E+02  0.00000000000E+00 0.  1.
</event>
<event>
12    1  0.8747122E-002  0.2363990E+03  0.7818608E-02  0.1122376E+00
         21   -1    0    0  503  502  0.00000000000E+00  0.00000000000E+00  0.94114293179E+02  0.94114293179E+02  0.00000000000E+00 0. -1.
         21   -1    0    0  501  503 -0.00000000000E+00 -0.00000000000E+00 -0.66720993422E+03  0.66720993422E+03  0.00000000000E+00 0.  1.
          6    2    1    2  501    0 -0.16245950927E+03  0.14480842290E+02 -0.41433533594E+03  0.47656237626E+03  0.16980913082E+03 0.  0.
         24    2    3    3    0    0 -0.16840776427E+03  0.46462482020E+02 -0.39271665832E+03  0.43722201226E+03  0.80104787481E+02 0.  0.
         -6    2    1    2    0  502  0.16245950927E+03 -0.14480842290E+02 -0.15876030511E+03  0.28476185115E+03  0.17111893655E+03 0.  0.
        -24    2    5    5    0    0  0.65385104805E+02 -0.68182717899E+02 -0.11556306030E+03  0.16561730278E+03  0.71764720617E+02 0.  0.
          5    1    3    3  501    0  0.59482550045E+01 -0.31981639730E+02 -0.21618677613E+02  0.39340363994E+02  0.47000000000E+01 0. -1.
        -11    1    4    4    0    0 -0.28211208489E+02 -0.21943248702E+02 -0.62072210614E+02  0.71626376276E+02  0.00000000000E+00 0.  1.
         12    1    4    4    0    0 -0.14019655578E+03  0.68405730722E+02 -0.33064444771E+03  0.36559563599E+03  0.00000000000E+00 0. -1.
         -5    1    5    5    0  502  0.97074404464E+02  0.53701875609E+02 -0.43197244808E+02  0.11914454836E+03  0.47000000000E+01 0.  1.
         13    1    6    6    0    0  0.70632955320E+02 -0.30428665598E+02 -0.95257045604E+02  0.12242884793E+03  0.00000000000E+00 0. -1.
        -14    1    6    6    0    0 -0.52478505151E+01 -0.37754052301E+02 -0.20306014694E+02  0.43188454857E+02  0.00000000000E+00 0.  1.
</event>
<event>
12    1  0.8747122E-002  0.2068520E+03  0.7818608E-02  0.1144209E+00
         21   -1    0    0  503  502  0.00000000000E+00  0.00000000000E+00  0.15190031700E+03  0.15190031700E+03  0.00000000000E+00 0. -1.
         21   -1    0    0  501  503 -0.00000000000E+00 -0.00000000000E+00 -0.75369966585E+03  0.75369966585E+03  0.00000000000E+00 0. -1.
          6    2    1    2  501    0  0.69261987810E+02  0.92280943723E+02 -0.65938356602E+03  0.69088224890E+03  0.17093448797E+03 0.  0.
         24    2    3    3    0    0  0.29651836872E+02  0.70908881390E+02 -0.62295595552E+03  0.63278930688E+03  0.80255115074E+02 0.  0.
         -6    2    1    2    0  502 -0.69261987810E+02 -0.92280943723E+02  0.57584217175E+02  0.21471773395E+03  0.17168217052E+03 0.  0.
        -24    2    5    5    0    0  0.23293083381E+02 -0.24370796674E+02  0.51038137735E+01  0.88406562566E+02  0.81566953637E+02 0.  0.
          5    1    3    3  501    0  0.39610150938E+02  0.21372062333E+02 -0.36427610503E+02  0.58092942021E+02  0.47000000000E+01 0. -1.
        -13    1    4    4    0    0 -0.80515105979E+01  0.37526280977E+02 -0.95335816590E+02  0.10277142848E+03  0.00000000000E+00 0.  1.
         14    1    4    4    0    0  0.37703347470E+02  0.33382600413E+02 -0.52762013893E+03  0.53001787840E+03  0.00000000000E+00 0. -1.
         -5    1    5    5    0  502 -0.92555071190E+02 -0.67910147048E+02  0.52480403401E+02  0.12631117138E+03  0.47000000000E+01 0.  1.
         11    1    6    6    0    0 -0.65781535499E+01 -0.44123833325E+02  0.20901624568E+02  0.49265227910E+02  0.00000000000E+00 0. -1.
        -12    1    6    6    0    0  0.29871236931E+02  0.19753036651E+02 -0.15797810795E+02  0.39141334655E+02  0.00000000000E+00 0.  1.
</event>
<event>
12    1  0.8747122E-002  0.2410733E+03  0.7818608E-02  0.1121818E+00
         21   -1    0    0  503  502  0.00000000000E+00  0.00000000000E+00  0.71067092960E+03  0.71067092960E+03  0.00000000000E+00 0.  1.
         21   -1    0    0  501  503 -0.00000000000E+00 -0.00000000000E+00 -0.15680658227E+03  0.15680658227E+03  0.00000000000E+00 0.  1.
          6    2    1    2  501    0  0.16186961026E+03  0.40720956898E+02 -0.28841892018E+02  0.24279244741E+03  0.17394352740E+03 0.  0.
         24    2    3    3    0    0  0.18132282559E+03  0.39717884769E+01 -0.27531350372E+02  0.20092675159E+03  0.81974642839E+02 0.  0.
         -6    2    1    2    0  502 -0.16186961026E+03 -0.40720956898E+02  0.58270623934E+03  0.62468506446E+03  0.15107912277E+03 0.  0.
        -24    2    5    5    0    0 -0.63923789852E+02  0.19135966108E+02  0.31555976972E+03  0.33388348056E+03  0.86300487940E+02 0.  0.
          5    1    3    3  501    0 -0.19453215332E+02  0.36749168421E+02 -0.13105416468E+01  0.41865695812E+02  0.47000000000E+01 0. -1.
        -13    1    4    4    0    0  0.17702681763E+03  0.18447572303E+02 -0.10688174981E+02  0.17830604075E+03  0.00000000000E+00 0.  1.
         14    1    4    4    0    0  0.42960079620E+01 -0.14475783827E+02 -0.16843175390E+02  0.22620710843E+02  0.00000000000E+00 0. -1.
         -5    1    5    5    0  502 -0.97945820408E+02 -0.59856923005E+02  0.26714646962E+03  0.29080158390E+03  0.47000000000E+01 0.  1.
         13    1    6    6    0    0  0.61079801812E+01  0.29253437252E+02  0.43524714168E+02  0.52796512729E+02  0.00000000000E+00 0. -1.
        -14    1    6    6    0    0 -0.70031770034E+02 -0.10117471144E+02  0.27203505555E+03  0.28108696783E+03  0.00000000000E+00 0.  1.
</event>
<event>
12    1  0.8747122E-002  0.2327877E+03  0.7818608E-02  0.1125001E+00
         21   -1    0    0  501  502  0.00000000000E+00  0.00000000000E+00  0.14481431079E+04  0.14481431079E+04  0.00000000000E+00 0. -1.
         21   -1    0    0  502  503 -0.00000000000E+00 -0.00000000000E+00 -0.37339474712E+02  0.37339474712E+02  0.00000000000E+00 0.  1.
         -6    2    1    2    0  503 -0.28722907067E+02 -0.15270759932E+03  0.64795291687E+03  0.68790418075E+03  0.17095193220E+03 0.  0.
        -24    2    3    3    0    0 -0.42764200110E+02 -0.17906094078E+03  0.55932483802E+03  0.59426293514E+03  0.80078488625E+02 0.  0.
          6    2    1    2  501    0  0.28722907067E+02  0.15270759932E+03  0.76285071633E+03  0.79757840188E+03  0.17333630739E+03 0.  0.
         24    2    5    5    0    0  0.14409519156E+02  0.30708888895E+02  0.50241485176E+03  0.50958970770E+03  0.78168515596E+02 0.  0.
          5    1    5    5  501    0  0.14313387911E+02  0.12199871043E+03  0.26043586458E+03  0.28798869418E+03  0.47000000000E+01 0. -1.
        -11    1    6    6    0    0  0.15738950984E+01  0.15681135689E+02  0.14944712219E+02  0.21719106464E+02  0.00000000000E+00 0.  1.
         12    1    6    6    0    0  0.12835624058E+02  0.15027753206E+02  0.48747013954E+03  0.48787060124E+03  0.00000000000E+00 0. -1.
         -5    1    3    3    0  503  0.14041293042E+02  0.26353341454E+02  0.88628078857E+02  0.93641245602E+02  0.47000000000E+01 0.  1.
         13    1    4    4    0    0  0.21605380801E+02 -0.54554585456E+02  0.20470795604E+03  0.21295150279E+03  0.00000000000E+00 0. -1.
        -14    1    4    4    0    0 -0.64369580911E+02 -0.12450635532E+03  0.35461688198E+03  0.38131143236E+03  0.00000000000E+00 0.  1.
</event>
<event>
12    1  0.8747122E-002  0.2066906E+03  0.7818608E-02  0.1144434E+00
         21   -1    0    0  501  502  0.00000000000E+00  0.00000000000E+00  0.83244500822E+02  0.83244500822E+02  0.00000000000E+00 0.  1.
         21   -1    0    0  502  503 -0.00000000000E+00 -0.00000000000E+00 -0.54110291424E+03  0.54110291424E+03  0.00000000000E+00 0. -1.
         -6    2    1    2    0  503 -0.97129822289E+02  0.56103366694E+02 -0.15412995275E+03  0.25696205941E+03  0.17231270269E+03 0.  0.
        -24    2    3    3    0    0 -0.26664932131E+02 -0.21634557809E+02 -0.10393844248E+03  0.14055860863E+03  0.88172841266E+02 0.  0.
          6    2    1    2  501    0  0.97129822289E+02 -0.56103366694E+02 -0.30372846067E+03  0.36738535565E+03  0.17360654249E+03 0.  0.
         24    2    5    5    0    0  0.51294417555E+02 -0.10229446695E+03 -0.22908390157E+03  0.26824705693E+03  0.79886008493E+02 0.  0.
          5    1    5    5  501    0  0.45835404733E+02  0.46191100257E+02 -0.74644559098E+02  0.99138298719E+02  0.47000000000E+01 0. -1.
        -11    1    6    6    0    0 -0.85624544457E+01 -0.26406988542E+02 -0.11287070038E+02  0.29967359243E+02  0.00000000000E+00 0.  1.
         12    1    6    6    0    0  0.59856872001E+02 -0.75887478409E+02 -0.21779683153E+03  0.23827969769E+03  0.00000000000E+00 0. -1.
         -5    1    3    3    0  503 -0.70464890158E+02  0.77737924503E+02 -0.50191510271E+02  0.11640345078E+03  0.47000000000E+01 0.  1.
         11    1    4    4    0    0 -0.32643893458E+01  0.89821190139E+01 -0.10149715064E+03  0.10194609501E+03  0.00000000000E+00 0. -1.
        -12    1    4    4    0    0 -0.23400542785E+02 -0.30616676823E+02 -0.24412918455E+01  0.38612513622E+02  0.00000000000E+00 0.  1.
</event>
<event>
12    1  0.8747122E-002  0.1895163E+03  0.7818608E-02  0.1159143E+00
         21   -1    0    0  503  502  0.00000000000E+00  0.00000000000E+00  0.26166748358E+03  0.26166748358E+03  0.00000000000E+00 0.  1.
         21   -1    0    0  501  503 -0.00000000000E+00 -0.00000000000E+00 -0.29341727770E+03  0.29341727770E+03  0.00000000000E+00 0.  1.
          6    2    1    2  501    0 -0.35253242765E+02 -0.67726203709E+02  0.18708249987E+03  0.26630112877E+03  0.17345546873E+03 0.  0.
         24    2    3    3    0    0 -0.75154232266E+02 -0.66267458554E+02  0.78935653137E+02  0.15092328272E+03  0.80668861656E+02 0.  0.
         -6    2    1    2    0  502  0.35253242765E+02  0.67726203709E+02 -0.21883229399E+03  0.28878363251E+03  0.17227531372E+03 0.  0.
        -24    2    5    5    0    0  0.56926129877E+02  0.10532134325E+03 -0.15053142012E+03  0.20772681340E+03  0.78470064068E+02 0.  0.
          5    1    3    3  501    0  0.39900989501E+02 -0.14587451551E+01  0.10814684673E+03  0.11537784605E+03  0.47000000000E+01 0. -1.
        -11    1    4    4    0    0 -0.49832692734E+02 -0.22084584142E+02  0.83584782333E+02  0.99786982916E+02  0.00000000000E+00 0.  1.
         12    1    4    4    0    0 -0.25321539533E+02 -0.44182874412E+02 -0.46491291962E+01  0.51136299806E+02  0.00000000000E+00 0. -1.
         -5    1    5    5    0  502 -0.21672887112E+02 -0.37595139541E+02 -0.68300873873E+02  0.81056819113E+02  0.47000000000E+01 0.  1.
         13    1    6    6    0    0 -0.86296177415E+01  0.31687420368E+02 -0.69692003087E+01  0.33572796500E+02  0.00000000000E+00 0. -1.
        -14    1    6    6    0    0  0.65555747618E+02  0.73633922882E+02 -0.14356221981E+03  0.17415401690E+03  0.00000000000E+00 0.  1.
</event>
<event>
12    1  0.8747122E-002  0.2096714E+03  0.7818608E-02  0.1142127E+00
         21   -1    0    0  503  502  0.00000000000E+00  0.00000000000E+00  0.11751150503E+03  0.11751150503E+03  0.00000000000E+00 0.  1.
         21   -1    0    0  501  503 -0.00000000000E+00 -0.00000000000E+00 -0.23041519979E+04  0.23041519979E+04  0.00000000000E+00 0.  1.
          6    2    1    2  501    0  0.54019008550E+02 -0.10417703032E+03 -0.22016374676E+04  0.22114564678E+04  0.17193389267E+03 0.  0.
         24    2    3    3    0    0  0.77460271565E+02 -0.11591103444E+03 -0.13719261494E+04  0.13813178401E+04  0.80138345771E+02 0.  0.
         -6    2    1    2    0  502 -0.54019008550E+02  0.10417703032E+03  0.14996974773E+02  0.21020703505E+03  0.17375609746E+03 0.  0.
        -24    2    5    5    0    0 -0.10427676442E+03  0.83740250019E+02  0.13098981002E+02  0.15571670202E+03  0.78676774938E+02 0.  0.
          5    1    3    3  501    0 -0.23441263015E+02  0.11734004122E+02 -0.82971131822E+03  0.83013862772E+03  0.47000000000E+01 0. -1.
        -13    1    4    4    0    0  0.90428295402E+02 -0.79048485180E+02 -0.94373931078E+03  0.95135157872E+03  0.00000000000E+00 0.  1.
         14    1    4    4    0    0 -0.12968023837E+02 -0.36862549257E+02 -0.42818683861E+03  0.42996626140E+03  0.00000000000E+00 0. -1.
         -5    1    5    5    0  502  0.50257755866E+02  0.20436780297E+02  0.18979937705E+01  0.54490333032E+02  0.47000000000E+01 0.  1.
         11    1    6    6    0    0 -0.38338546975E+01 -0.14364146853E+01 -0.19599114803E+02  0.20022163471E+02  0.00000000000E+00 0. -1.
        -12    1    6    6    0    0 -0.10044290972E+03  0.85176664704E+02  0.32698095806E+02  0.13569453855E+03  0.00000000000E+00 0.  1.
</event>
<event>
12    1  0.8747122E-002  0.2650048E+03  0.7818608E-02  0.1104709E+00
         21   -1    0    0  503  502  0.00000000000E+00  0.00000000000E+00  0.46753373778E+02  0.46753373778E+02  0.00000000000E+00 0.  1.
         21   -1    0    0  501  503 -0.00000000000E+00 -0.00000000000E+00 -0.14887113687E+04  0.14887113687E+04  0.00000000000E+00 0.  1.
          6    2    1    2  501    0 -0.11783658412E+03  0.16309159898E+03 -0.67274575130E+03  0.72305904464E+03  0.17246218693E+03 0.  0.
         24    2    3    3    0    0 -0.10806077826E+03  0.15908937015E+03 -0.41002405467E+03  0.46008306836E+03  0.81056430303E+02 0.  0.
         -6    2    1    2    0  502  0.11783658412E+03 -0.16309159898E+03 -0.76921224364E+03  0.81240569786E+03  0.16682689211E+03 0.  0.
        -24    2    5    5    0    0  0.21236737930E+02 -0.27364435473E+02 -0.16749331954E+03  0.18803309531E+03  0.78119277220E+02 0.  0.
          5    1    3    3  501    0 -0.97758058586E+01  0.40022288326E+01 -0.26272169663E+03  0.26297597628E+03  0.47000000000E+01 0. -1.
        -11    1    4    4    0    0 -0.48695098934E+02  0.11498593177E+03 -0.32047352166E+03  0.34394222662E+03  0.00000000000E+00 0.  1.
         12    1    4    4    0    0 -0.59365679330E+02  0.44103438382E+02 -0.89550533010E+02  0.11614084175E+03  0.00000000000E+00 0. -1.
         -5    1    5    5    0  502  0.96599846193E+02 -0.13572716351E+03 -0.60171892409E+03  0.62437260255E+03  0.47000000000E+01 0.  1.
         11    1    6    6    0    0  0.43141329527E+02  0.22292223464E+01 -0.12250943423E+03  0.12990267595E+03  0.00000000000E+00 0. -1.
        -12    1    6    6    0    0 -0.21904591597E+02 -0.29593657819E+02 -0.44983885317E+02  0.58130419355E+02  0.00000000000E+00 0.  1.
</event>
<event>
12    1  0.8747122E-002  0.1786820E+03  0.7818608E-02  0.1169284E+00
         21   -1    0    0  503  502  0.00000000000E+00  0.00000000000E+00  0.17667128699E+03  0.17667128699E+03  0.00000000000E+00 0. -1.
         21   -1    0    0  501  503 -0.00000000000E+00 -0.00000000000E+00 -0.49553811593E+03  0.49553811593E+03  0.00000000000E+00 0. -1.
          6    2    1    2  501    0  0.98421309814E+01 -0.41144512874E+02 -0.42781179511E+03  0.46362721077E+03  0.17360161303E+03 0.  0.
         24    2    3    3    0    0 -0.20181371838E+02  0.64369380498E+01 -0.38355793043E+03  0.39189228390E+03  0.77550978369E+02 0.  0.
         -6    2    1    2    0  502 -0.98421309814E+01  0.41144512874E+02  0.10894496617E+03  0.20858219214E+03  0.17276512015E+03 0.  0.
        -24    2    5    5    0    0  0.28845616538E+02 -0.11574977588E+02  0.11303747646E+03  0.14289410248E+03  0.81701920053E+02 0.  0.
          5    1    3    3  501    0  0.30023502819E+02 -0.47581450924E+02 -0.44253864686E+02  0.71734926871E+02  0.47000000000E+01 0. -1.
        -13    1    4    4    0    0 -0.19998573377E+02  0.34274343985E+02 -0.11031819842E+03  0.11723812731E+03  0.00000000000E+00 0.  1.
         14    1    4    4    0    0 -0.18279846103E+00 -0.27837405935E+02 -0.27323973200E+03  0.27465415659E+03  0.00000000000E+00 0. -1.
         -5    1    5    5    0  502 -0.38687747519E+02  0.52719490462E+02 -0.40925102823E+01  0.65688089660E+02  0.47000000000E+01 0.  1.
         11    1    6    6    0    0  0.45260535447E+02  0.20824649350E+02  0.77120069820E+02  0.91813328328E+02  0.00000000000E+00 0. -1.
        -12    1    6    6    0    0 -0.16414918910E+02 -0.32399626938E+02  0.35917406637E+02  0.51080774153E+02  0.00000000000E+00 0.  1.
</event>
<event>
12    1  0.8747122E-002  0.2282207E+03  0.7818608E-02  0.1127905E+00
         21   -1    0    0  503  502  0.00000000000E+00  0.00000000000E+00  0.38649574650E+03  0.38649574650E+03  0.00000000000E+00 0. -1.
         21   -1    0    0  501  503 -0.00000000000E+00 -0.00000000000E+00 -0.28494661238E+03  0.28494661238E+03  0.00000000000E+00 0. -1.
          6    2    1    2  501    0 -0.23225130547E+02  0.14756140120E+03 -0.19297593307E+03  0.29884379297E+03  0.17249384928E+03 0.  0.
         24    2    3    3    0    0 -0.79418399372E+02  0.56039224521E+02 -0.10765596152E+03  0.16160101600E+03  0.71255915391E+02 0.  0.
         -6    2    1    2    0  502  0.23225130547E+02 -0.14756140120E+03  0.29452506720E+03  0.37259856591E+03  0.17254246520E+03 0.  0.
        -24    2    5    5    0    0 -0.21316993486E+02 -0.12108083578E+02  0.13785966537E+03  0.16070769730E+03  0.78871140084E+02 0.  0.
          5    1    3    3  501    0  0.56193268825E+02  0.91522176683E+02 -0.85319971551E+02  0.13724277697E+03  0.47000000000E+01 0. -1.
        -13    1    4    4    0    0 -0.61908400069E+00 -0.11599295530E+02  0.54491770666E+00  0.11628579324E+02  0.00000000000E+00 0.  1.
         14    1    4    4    0    0 -0.78799315371E+02  0.67638520050E+02 -0.10820087923E+03  0.14997243668E+03  0.00000000000E+00 0. -1.
         -5    1    5    5    0  502  0.44542124033E+02 -0.13545331763E+03  0.15666540183E+03  0.21189086861E+03  0.47000000000E+01 0.  1.
         11    1    6    6    0    0 -0.41083617675E+02 -0.29869656083E+02  0.11475383100E+03  0.12549303457E+03  0.00000000000E+00 0. -1.
        -12    1    6    6    0    0  0.19766624189E+02  0.17761572506E+02  0.23105834365E+02  0.35214662734E+02  0.00000000000E+00 0.  1.
</event>
<event>
12    1  0.8747122E-002  0.1779747E+03  0.7818608E-02  0.1170409E+00
         21   -1    0    0  503  502  0.00000000000E+00  0.00000000000E+00  0.12705730108E+03  0.12705730108E+03  0.00000000000E+00 0. -1.
         21   -1    0    0  501  503 -0.00000000000E+00 -0.00000000000E+00 -0.25904517000E+03  0.25904517000E+03  0.00000000000E+00 0. -1.
          6    2    1    2  501    0  0.29097036260E+01  0.34725526177E+02 -0.21781908477E+02  0.17676936515E+03  0.17192622945E+03 0.  0.
         24    2    3    3    0    0 -0.31242744105E+02  0.66741897950E+02  0.24238765128E+02  0.11095576361E+03  0.79328896016E+02 0.  0.
         -6    2    1    2    0  502 -0.29097036260E+01 -0.34725526177E+02 -0.11020596044E+03  0.20933310593E+03  0.17452984552E+03 0.  0.
        -24    2    5    5    0    0 -0.18509064499E+02 -0.73178518663E+02 -0.12339193758E+03  0.16553889759E+03  0.80497672586E+02 0.  0.
          5    1    3    3  501    0  0.34152447731E+02 -0.32016371773E+02 -0.46020673606E+02  0.65813601532E+02  0.47000000000E+01 0. -1.
        -13    1    4    4    0    0 -0.18441845153E+02  0.52040398094E+02 -0.23032364465E+02  0.59823026497E+02  0.00000000000E+00 0.  1.
         14    1    4    4    0    0 -0.12800898953E+02  0.14701499856E+02  0.47271129594E+02  0.51132737117E+02  0.00000000000E+00 0. -1.
         -5    1    5    5    0  502  0.15599360873E+02  0.38452992486E+02  0.13185977140E+02  0.43794208338E+02  0.47000000000E+01 0.  1.
         11    1    6    6    0    0 -0.49376767523E+02 -0.53633889351E+02 -0.71815634942E+02  0.10233349735E+03  0.00000000000E+00 0. -1.
        -12    1    6    6    0    0  0.30867703025E+02 -0.19544629312E+02 -0.51576302642E+02  0.63205400238E+02  0.00000000000E+00 0.  1.
</event>
<event>
12    1  0.8747122E-002  0.2742763E+03  0.7818608E-02  0.1098924E+00
         21   -1    0    0  501  502  0.00000000000E+00  0.00000000000E+00  0.45915220228E+03  0.45915220228E+03  0.00000000000E+00 0. -1.
         21   -1    0    0  502  503 -0.00000000000E+00 -0.00000000000E+00 -0.26940470513E+03  0.26940470513E+03  0.00000000000E+00 0.  1.
         -6    2    1    2    0  503  0.20154352037E+03  0.67851094474E+02 -0.13351411092E+03  0.30461641797E+03  0.17245748072E+03 0.  0.
        -24    2    3    3    0    0  0.13396007469E+03  0.54413952771E+02 -0.16072067630E+03  0.23038457773E+03  0.79622471684E+02 0.  0.
          6    2    1    2  501    0 -0.20154352037E+03 -0.67851094474E+02  0.32326160807E+03  0.42394048944E+03  0.17321636675E+03 0.  0.
         24    2    5    5    0    0 -0.11157702790E+03 -0.97182505979E+02  0.14102307521E+03  0.21854507974E+03  0.77334154884E+02 0.  0.
          5    1    5    5  501    0 -0.89966492462E+02  0.29331411505E+02  0.18223853286E+03  0.20539540970E+03  0.47000000000E+01 0. -1.
        -13    1    6    6    0    0 -0.10242890496E+03 -0.41482489358E+02  0.93244953733E+02  0.14459287290E+03  0.00000000000E+00 0.  1.
         14    1    6    6    0    0 -0.91481229386E+01 -0.55700016621E+02  0.47778121480E+02  0.73952206844E+02  0.00000000000E+00 0. -1.
         -5    1    3    3    0  503  0.67583445671E+02  0.13437141704E+02  0.27206565374E+02  0.74231840240E+02  0.47000000000E+01 0.  1.
         11    1    4    4    0    0  0.37608068939E+02  0.57205269243E+02 -0.61044965719E+02  0.91724029121E+02  0.00000000000E+00 0. -1.
        -12    1    4    4    0    0  0.96352005755E+02 -0.27913164725E+01 -0.99675710578E+02  0.13866054861E+03  0.00000000000E+00 0.  1.
</event>
<event>
12    1  0.8747122E-002  0.1734612E+03  0.7818608E-02  0.1174394E+00
         21   -1    0    0  503  502  0.00000000000E+00  0.00000000000E+00  0.36473807984E+02  0.36473807984E+02  0.00000000000E+00 0. -1.
         21   -1    0    0  501  503 -0.00000000000E+00 -0.00000000000E+00 -0.82470463892E+03  0.82470463892E+03  0.00000000000E+00 0. -1.
          6    2    1    2  501    0 -0.22899209602E+02 -0.57917574586E-01 -0.41366851364E+03  0.44840041012E+03  0.17151358975E+03 0.  0.
         24    2    3    3    0    0  0.64930198909E+01 -0.18096130310E+02 -0.79608794121E+02  0.11253248001E+03  0.77177520798E+02 0.  0.
         -6    2    1    2    0  502  0.22899209602E+02  0.57917574586E-01 -0.37456231730E+03  0.41277803678E+03  0.17194301659E+03 0.  0.
        -24    2    5    5    0    0  0.40045027696E+02  0.10945463543E+02 -0.55537643853E+02  0.93072938289E+02  0.62086508531E+02 0.  0.
          5    1    3    3  501    0 -0.29392229493E+02  0.18038212736E+02 -0.33405971952E+03  0.33586793011E+03  0.47000000000E+01 0. -1.
        -11    1    4    4    0    0  0.19505513699E+02 -0.39727141183E+02 -0.74685104426E+02  0.86813453073E+02  0.00000000000E+00 0.  1.
         12    1    4    4    0    0 -0.13012493808E+02  0.21631010872E+02 -0.49236896947E+01  0.25719026939E+02  0.00000000000E+00 0. -1.
         -5    1    5    5    0  502 -0.17145818094E+02 -0.10887545969E+02 -0.31902467345E+03  0.31970509849E+03  0.47000000000E+01 0.  1.
         11    1    6    6    0    0  0.16657250603E+02  0.69208469268E+01 -0.65051050797E+02  0.67505565176E+02  0.00000000000E+00 0. -1.
        -12    1    6    6    0    0  0.23387777092E+02  0.40246166165E+01  0.95134069441E+01  0.25567373113E+02  0.00000000000E+00 0.  1.
</event>
<event>
12    1  0.8747122E-002  0.1861894E+03  0.7818608E-02  0.1162117E+00
         21   -1    0    0  501  502  0.00000000000E+00  0.00000000000E+00  0.19103749279E+03  0.19103749279E+03  0.00000000000E+00 0. -1.
         21   -1    0    0  502  503 -0.00000000000E+00 -0.00000000000E+00 -0.19321473934E+03  0.19321473934E+03  0.00000000000E+00 0. -1.
         -6    2    1    2    0  503 -0.24229239813E+02 -0.62405641164E+02 -0.49907636506E+02  0.19204223104E+03  0.17293908236E+03 0.  0.
        -24    2    3    3    0    0 -0.37277202704E+01 -0.91967299604E+02 -0.78657184819E+02  0.14575151403E+03  0.81145985866E+02 0.  0.
          6    2    1    2  501    0  0.24229239813E+02  0.62405641164E+02  0.47730389950E+02  0.19221000109E+03  0.17373823495E+03 0.  0.
         24    2    5    5    0    0  0.61760407631E+02  0.71968793233E+02 -0.77052150303E+01  0.12442181086E+03  0.80172074493E+02 0.  0.
          5    1    5    5  501    0 -0.37531167818E+02 -0.95631520694E+01  0.55435604980E+02  0.67788190231E+02  0.47000000000E+01 0. -1.
        -11    1    6    6    0    0  0.41480209355E+02 -0.53272964577E+01 -0.14397481983E+02  0.44229801527E+02  0.00000000000E+00 0.  1.
         12    1    6    6    0    0  0.20280198276E+02  0.77296089691E+02  0.66922669526E+01  0.80192009331E+02  0.00000000000E+00 0. -1.
         -5    1    3    3    0  503 -0.20501519542E+02  0.29561658440E+02  0.28749548313E+02  0.46290717012E+02  0.47000000000E+01 0.  1.
         13    1    4    4    0    0 -0.12217254437E+02 -0.77036199456E+02 -0.94398324161E+02  0.12245358687E+03  0.00000000000E+00 0. -1.
        -14    1    4    4    0    0  0.84895341668E+01 -0.14931100148E+02  0.15741139342E+02  0.23297927156E+02  0.00000000000E+00 0.  1.
</event>
<event>
12    1  0.8747122E-002  0.2119418E+03  0.7818608E-02  0.1140296E+00
         21   -1    0    0  501  502  0.00000000000E+00  0.00000000000E+00  0.50340637381E+02  0.50340637381E+02  0.00000000000E+00 0. -1.
         21   -1    0    0  502  503 -0.00000000000E+00 -0.00000000000E+00 -0.12744180082E+04  0.12744180082E+04  0.00000000000E+00 0. -1.
         -6    2    1    2    0  503  0.11817331281E+03 -0.27716156014E+02 -0.97602560222E+03  0.99849341656E+03  0.17213369676E+03 0.  0.
        -24    2    3    3    0    0  0.12688708017E+02  0.31837851264E+02 -0.31766219299E+03  0.32906220259E+03  0.78727455382E+02 0.  0.
          6    2    1    2  501    0 -0.11817331281E+03  0.27716156014E+02 -0.24805176858E+03  0.32626522901E+03  0.17374176987E+03 0.  0.
         24    2    5    5    0    0 -0.10934299761E+03  0.28470495364E+02 -0.82804390090E+02  0.16071363707E+03  0.78777191418E+02 0.  0.
          5    1    5    5  501    0 -0.88303151955E+01 -0.75433934996E+00 -0.16524737849E+03  0.16555159194E+03  0.47000000000E+01 0. -1.
        -11    1    6    6    0    0  0.10579499135E+01  0.62932240915E+01 -0.39588145557E+02  0.40099191964E+02  0.00000000000E+00 0.  1.
         12    1    6    6    0    0 -0.11040094753E+03  0.22177271273E+02 -0.43216244533E+02  0.12061444510E+03  0.00000000000E+00 0. -1.
         -5    1    3    3    0  503  0.10548460479E+03 -0.59554007279E+02 -0.65836340923E+03  0.66943121397E+03  0.47000000000E+01 0.  1.
         11    1    4    4    0    0  0.28160415649E+02  0.41553800647E+01 -0.27189854900E+03  0.27338452250E+03  0.00000000000E+00 0. -1.
        -12    1    4    4    0    0 -0.15471707632E+02  0.27682471200E+02 -0.45763643994E+02  0.55677680092E+02  0.00000000000E+00 0.  1.
</event>
<event>
12    1  0.8747122E-002  0.1931847E+03  0.7818608E-02  0.1155905E+00
         21   -1    0    0  503  502  0.00000000000E+00  0.00000000000E+00  0.17430957127E+03  0.17430957127E+03  0.00000000000E+00 0. -1.
         21   -1    0    0  501  503 -0.00000000000E+00 -0.00000000000E+00 -0.21857044107E+03  0.21857044107E+03  0.00000000000E+00 0. -1.
          6    2    1    2  501    0 -0.42931476002E+02 -0.76357985106E+02  0.10195099700E+02  0.19216684362E+03  0.17073518151E+03 0.  0.
         24    2    3    3    0    0  0.19833545910E+02 -0.38117587935E+02  0.56751450481E+02  0.10503843407E+03  0.77240050800E+02 0.  0.
         -6    2    1    2    0  502  0.42931476002E+02  0.76357985106E+02 -0.54455969505E+02  0.20071316872E+03  0.17218208374E+03 0.  0.
        -24    2    5    5    0    0 -0.23774969545E+01  0.10372901019E+03 -0.85012772776E+01  0.13045649799E+03  0.78621028390E+02 0.  0.
          5    1    3    3  501    0 -0.62765021912E+02 -0.38240397171E+02 -0.46556350781E+02  0.87128409542E+02  0.47000000000E+01 0. -1.
        -11    1    4    4    0    0  0.11638896810E+02  0.23496107643E+02  0.16104088607E+02  0.30771296092E+02  0.00000000000E+00 0.  1.
         12    1    4    4    0    0  0.81946491005E+01 -0.61613695578E+02  0.40647361873E+02  0.74267137982E+02  0.00000000000E+00 0. -1.
         -5    1    5    5    0  502  0.45308972956E+02 -0.27371025085E+02 -0.45954692228E+02  0.70256670731E+02  0.47000000000E+01 0.  1.
         13    1    6    6    0    0 -0.10032145472E+02  0.93046908752E+02 -0.35767750357E+02  0.10018833833E+03  0.00000000000E+00 0. -1.
        -14    1    6    6    0    0  0.76546485173E+01  0.10682101439E+02  0.27266473080E+02  0.30268159661E+02  0.00000000000E+00 0.  1.
</event>
<event>
12    1  0.8747122E-002  0.1738874E+03  0.7818608E-02  0.1173984E+00
         21   -1    0    0  503  502  0.00000000000E+00  0.00000000000E+00  0.24487856680E+03  0.24487856680E+03  0.00000000000E+00 0. -1.
         21   -1    0    0  501  503 -0.00000000000E+00 -0.00000000000E+00 -0.27540713732E+03  0.27540713732E+03  0.00000000000E+00 0. -1.
          6    2    1    2  501    0 -0.31273171710E+02  0.72581993199E+01 -0.20870403083E+03  0.27132119964E+03  0.17037349607E+03 0.  0.
         24    2    3    3    0    0 -0.15710291488E+02  0.26390525953E+02 -0.30978055904E+02  0.91830639089E+02  0.80808125886E+02 0.  0.
         -6    2    1    2    0  502  0.31273171710E+02 -0.72581993199E+01  0.17817546031E+03  0.24896450449E+03  0.17089803134E+03 0.  0.
        -24    2    5    5    0    0 -0.47499354072E+01 -0.61810599717E+02  0.72045435594E+02  0.12422757820E+03  0.79992713862E+02 0.  0.
          5    1    3    3  501    0 -0.15562880222E+02 -0.19132326633E+02 -0.17772597492E+03  0.17949056055E+03  0.47000000000E+01 0. -1.
        -11    1    4    4    0    0 -0.47805411767E+02  0.15591414638E+02 -0.28684161880E+02  0.57889815576E+02  0.00000000000E+00 0.  1.
         12    1    4    4    0    0  0.32095120280E+02  0.10799111315E+02 -0.22938940245E+01  0.33940823513E+02  0.00000000000E+00 0. -1.
         -5    1    5    5    0  502  0.36023107117E+02  0.54552400398E+02  0.10613002471E+03  0.12473692629E+03  0.47000000000E+01 0.  1.
         13    1    6    6    0    0 -0.30872174963E+02 -0.65532426143E+02  0.63945760639E+02  0.96626344062E+02  0.00000000000E+00 0. -1.
        -14    1    6    6    0    0  0.26122239556E+02  0.37218264259E+01  0.80996749556E+01  0.27601234135E+02  0.00000000000E+00 0.  1.
</event>
<event>
12    1  0.8747122E-002  0.1868356E+03  0.7818608E-02  0.1162033E+00
         21   -1    0    0  503  502  0.00000000000E+00  0.00000000000E+00  0.38905600678E+02  0.38905600678E+02  0.00000000000E+00 0.  1.
         21   -1    0    0  501  503 -0.00000000000E+00 -0.00000000000E+00 -0.89355634511E+03  0.89355634511E+03  0.00000000000E+00 0.  1.
          6    2    1    2  501    0  0.50940696508E+02  0.51877415785E+02 -0.37358492481E+03  0.41638842602E+03  0.16890057564E+03 0.  0.
         24    2    3    3    0    0  0.82834244286E+02  0.80709131913E+02 -0.28056693811E+03  0.31380722846E+03  0.79885504760E+02 0.  0.
         -6    2    1    2    0  502 -0.50940696508E+02 -0.51877415785E+02 -0.48106581963E+03  0.51607351977E+03  0.17210849532E+03 0.  0.
        -24    2    5    5    0    0 -0.50123158007E+02  0.34578417714E+02 -0.25572043885E+03  0.27466533814E+03  0.79624790072E+02 0.  0.
          5    1    3    3  501    0 -0.31893547778E+02 -0.28831716128E+02 -0.93017986692E+02  0.10258119756E+03  0.47000000000E+01 0. -1.
        -11    1    4    4    0    0 -0.99238960938E+01  0.15845295921E+02 -0.11620424175E+02  0.22013436227E+02  0.00000000000E+00 0.  1.
         12    1    4    4    0    0  0.92758140380E+02  0.64863835992E+02 -0.26894651394E+03  0.29179379223E+03  0.00000000000E+00 0. -1.
         -5    1    5    5    0  502 -0.81753850093E+00 -0.86455833500E+02 -0.22534538078E+03  0.24140818162E+03  0.47000000000E+01 0.  1.
         13    1    6    6    0    0 -0.39158787669E+02  0.67820300261E+01 -0.23491963036E+03  0.23825750631E+03  0.00000000000E+00 0. -1.
        -14    1    6    6    0    0 -0.10964370338E+02  0.27796387688E+02 -0.20800808485E+02  0.36407831837E+02  0.00000000000E+00 0.  1.
</event>
<event>
12    1  0.8747122E-002  0.1800623E+03  0.7818608E-02  0.1167858E+00
         21   -1    0    0  503  502  0.00000000000E+00  0.00000000000E+00  0.25911879579E+04  0.25911879579E+04  0.00000000000E+00 0.  1.
         21   -1    0    0  501  503 -0.00000000000E+00 -0.00000000000E+00 -0.30791941046E+02  0.30791941046E+02  0.00000000000E+00 0.  1.
          6    2    1    2  501    0 -0.37524211658E+02 -0.38983920644E+02  0.26851242961E+03  0.32303388021E+03  0.17124295716E+03 0.  0.
         24    2    3    3    0    0 -0.51137473498E+02  0.37223481640E+02  0.16484380003E+03  0.19356510474E+03  0.79330590476E+02 0.  0.
         -6    2    1    2    0  502  0.37524211658E+02  0.38983920644E+02  0.22918835873E+04  0.22989460187E+04  0.17173994021E+03 0.  0.
        -24    2    5    5    0    0  0.39948886174E+02  0.17062430522E+01  0.62786372762E+03  0.63450025888E+03  0.82334034780E+02 0.  0.
          5    1    3    3  501    0  0.13613261841E+02 -0.76207402284E+02  0.10366862958E+03  0.12946877546E+03  0.47000000000E+01 0. -1.
        -11    1    4    4    0    0 -0.57320183714E+02  0.11095701710E+02  0.54041867148E+02  0.79556529979E+02  0.00000000000E+00 0.  1.
         12    1    4    4    0    0  0.61827102155E+01  0.26127779930E+02  0.11080193288E+03  0.11400857477E+03  0.00000000000E+00 0. -1.
         -5    1    5    5    0  502 -0.24246745162E+01  0.37277677592E+02  0.16640198596E+04  0.16644457599E+04  0.47000000000E+01 0.  1.
         13    1    6    6    0    0 -0.12396509425E+02  0.25539606248E+02  0.11636353203E+03  0.11977652742E+03  0.00000000000E+00 0. -1.
        -14    1    6    6    0    0  0.52345395599E+02 -0.23833363196E+02  0.51150019559E+03  0.51472373147E+03  0.00000000000E+00 0.  1.
</event>
<event>
12    1  0.8747122E-002  0.1911474E+03  0.7818608E-02  0.1157731E+00
         21   -1    0    0  503  502  0.00000000000E+00  0.00000000000E+00  0.98778133816E+03  0.98778133816E+03  0.00000000000E+00 0.  1.
         21   -1    0    0  501  503 -0.00000000000E+00 -0.00000000000E+00 -0.85530416516E+02  0.85530416516E+02  0.00000000000E+00 0.  1.
          6    2    1    2  501    0 -0.74464262392E+02 -0.36350221076E+02  0.46444661494E+02  0.19670898039E+03  0.17225287063E+03 0.  0.
         24    2    3    3    0    0 -0.89351476668E+02  0.25732358954E+02  0.96891804659E+01  0.12289210375E+03  0.79766836880E+02 0.  0.
         -6    2    1    2    0  502  0.74464262392E+02  0.36350221076E+02  0.85580626015E+03  0.87660277428E+03  0.17076827580E+03 0.  0.
        -24    2    5    5    0    0 -0.14810510813E+02 -0.89208977369E+01  0.51991101514E+03  0.52607864537E+03  0.78436877820E+02 0.  0.
          5    1    3    3  501    0  0.14887214276E+02 -0.62082580030E+02  0.36755481028E+02  0.73816876645E+02  0.47000000000E+01 0. -1.
        -11    1    4    4    0    0 -0.79287185306E+02 -0.13230488128E+02  0.16550632970E+02  0.82069647383E+02  0.00000000000E+00 0.  1.
         12    1    4    4    0    0 -0.10064291362E+02  0.38962847082E+02 -0.68614525038E+01  0.40822456367E+02  0.00000000000E+00 0. -1.
         -5    1    5    5    0  502  0.89274773204E+02  0.45271118813E+02  0.33589524501E+03  0.35052412891E+03  0.47000000000E+01 0.  1.
         13    1    6    6    0    0 -0.46647577801E+02 -0.59750919284E+01  0.35450007044E+03  0.35760592581E+03  0.00000000000E+00 0. -1.
        -14    1    6    6    0    0  0.31837066988E+02 -0.29458058085E+01  0.16541094471E+03  0.16847271956E+03  0.00000000000E+00 0.  1.
</event>
<event>
12    1  0.8747122E-002  0.2719287E+03  0.7818608E-02  0.1100428E+00
         21   -1    0    0  503  502  0.00000000000E+00  0.00000000000E+00  0.52817152593E+03  0.52817152593E+03  0.00000000000E+00 0. -1.
         21   -1    0    0  501  503 -0.00000000000E+00 -0.00000000000E+00 -0.16067938094E+03  0.16067938094E+03  0.00000000000E+00 0.  1.
          6    2    1    2  501    0 -0.20177599840E+03  0.50784292866E+02  0.58063140494E+02  0.27805857616E+03  0.17507896949E+03 0.  0.
         24    2    3    3    0    0 -0.11739486775E+03 -0.37942101815E+02  0.36384050061E+02  0.15362135791E+03  0.83991454582E+02 0.  0.
         -6    2    1    2    0  502  0.20177599840E+03 -0.50784292866E+02  0.30942900450E+03  0.41079233071E+03  0.17237004441E+03 0.  0.
        -24    2    5    5    0    0  0.47745190834E+02 -0.62320553135E+02  0.12997000239E+03  0.17396708202E+03  0.84905179537E+02 0.  0.
          5    1    3    3  501    0 -0.84381130657E+02  0.88726394680E+02  0.21679090433E+02  0.12443721825E+03  0.47000000000E+01 0. -1.
        -13    1    4    4    0    0 -0.52468951523E+02  0.10509433813E+02  0.47871382077E+02  0.71799082828E+02  0.00000000000E+00 0.  1.
         14    1    4    4    0    0 -0.64925916224E+02 -0.48451535628E+02 -0.11487332016E+02  0.81822275079E+02  0.00000000000E+00 0. -1.
         -5    1    5    5    0  502  0.15403080757E+03  0.11536260269E+02  0.17945900211E+03  0.23682524869E+03  0.47000000000E+01 0.  1.
         11    1    6    6    0    0  0.40412258202E+02  0.44052412198E+01  0.20434377309E+02  0.45498577332E+02  0.00000000000E+00 0. -1.
        -12    1    6    6    0    0  0.73329326320E+01 -0.66725794355E+02  0.10953562508E+03  0.12846850468E+03  0.00000000000E+00 0.  1.
</event>
<event>
12    1  0.8747122E-002  0.2526909E+03  0.7818608E-02  0.1111930E+00
         21   -1    0    0  501  502  0.00000000000E+00  0.00000000000E+00  0.11002209306E+04  0.11002209306E+04  0.00000000000E+00 0.  1.
         21   -1    0    0  502  503 -0.00000000000E+00 -0.00000000000E+00 -0.60902315425E+02  0.60902315425E+02  0.00000000000E+00 0. -1.
         -6    2    1    2    0  503  0.44149937107E+01  0.18443135261E+03  0.65336242424E+03  0.69980460085E+03  0.16973392696E+03 0.  0.
        -24    2    3    3    0    0 -0.34108398753E+02  0.27306323089E+02  0.23191019618E+03  0.24834430668E+03  0.77353328454E+02 0.  0.
          6    2    1    2  501    0 -0.44149937107E+01 -0.18443135261E+03  0.38595619089E+03  0.46131864513E+03  0.17267974712E+03 0.  0.
         24    2    5    5    0    0  0.64628616600E+02 -0.89740527265E+02  0.22325250278E+03  0.26074957310E+03  0.76931395150E+02 0.  0.
          5    1    5    5  501    0 -0.69043610311E+02 -0.94690825347E+02  0.16270368811E+03  0.20056907203E+03  0.47000000000E+01 0. -1.
        -11    1    6    6    0    0  0.97608952883E+01 -0.47841874395E+02  0.15940366198E+03  0.16671426896E+03  0.00000000000E+00 0.  1.
         12    1    6    6    0    0  0.54867721312E+02 -0.41898652871E+02  0.63848840803E+02  0.94035304148E+02  0.00000000000E+00 0. -1.
         -5    1    3    3    0  503  0.38523392464E+02  0.15712502952E+03  0.42145222807E+03  0.45146029417E+03  0.47000000000E+01 0.  1.
         13    1    4    4    0    0  0.13828132175E+02  0.12005259770E+02  0.10130387531E+02  0.20927691061E+02  0.00000000000E+00 0. -1.
        -14    1    4    4    0    0 -0.47936530929E+02  0.15301063319E+02  0.22177980865E+03  0.22741661562E+03  0.00000000000E+00 0.  1.
</event>
<event>
12    1  0.8747122E-002  0.3438346E+03  0.7818608E-02  0.1065182E+00
         21   -1    0    0  503  502  0.00000000000E+00  0.00000000000E+00  0.15206969034E+03  0.15206969034E+03  0.00000000000E+00 0.  1.
         21   -1    0    0  501  503 -0.00000000000E+00 -0.00000000000E+00 -0.14050939017E+04  0.14050939017E+04  0.00000000000E+00 0. -1.
          6    2    1    2  501    0  0.29223042706E+02 -0.29646566367E+03 -0.11469969646E+04  0.11974240155E+04  0.17168680826E+03 0.  0.
         24    2    3    3    0    0  0.82970665256E+02 -0.18133589041E+03 -0.77268235752E+03  0.80210492072E+03  0.81039754325E+02 0.  0.
         -6    2    1    2    0  502 -0.29223042706E+02  0.29646566367E+03 -0.10602724678E+03  0.35973957657E+03  0.17153690545E+03 0.  0.
        -24    2    5    5    0    0 -0.35797234245E+02  0.14345758687E+03  0.10603868135E+02  0.16717894060E+03  0.77297056533E+02 0.  0.
          5    1    3    3  501    0 -0.53747622550E+02 -0.11512977326E+03 -0.37431460705E+03  0.39531909474E+03  0.47000000000E+01 0. -1.
        -11    1    4    4    0    0  0.58189449806E+02 -0.41577191587E+02 -0.21211742689E+03  0.22384922989E+03  0.00000000000E+00 0.  1.
         12    1    4    4    0    0  0.24781215450E+02 -0.13975869882E+03 -0.56056493063E+03  0.57825569084E+03  0.00000000000E+00 0. -1.
         -5    1    5    5    0  502  0.65741915394E+01  0.15300807679E+03 -0.11663111492E+03  0.19256063597E+03  0.47000000000E+01 0.  1.
         11    1    6    6    0    0 -0.13974395694E+02  0.21446963762E+02 -0.27438832770E+02  0.37525265267E+02  0.00000000000E+00 0. -1.
        -12    1    6    6    0    0 -0.21822838552E+02  0.12201062311E+03  0.38042700904E+02  0.12965367533E+03  0.00000000000E+00 0.  1.
</event>
<event>
12    1  0.8747122E-002  0.1881112E+03  0.7818608E-02  0.1162273E+00
         21   -1    0    0  501  502  0.00000000000E+00  0.00000000000E+00  0.43666420517E+03  0.43666420517E+03  0.00000000000E+00 0. -1.
         21   -1    0    0  502  503 -0.00000000000E+00 -0.00000000000E+00 -0.18858508995E+03  0.18858508995E+03  0.00000000000E+00 0. -1.
         -6    2    1    2    0  503 -0.30075965699E+02  0.41327702372E+02 -0.11492259075E+03  0.22043825376E+03  0.18103391715E+03 0.  0.
        -24    2    3    3    0    0 -0.17167582095E+01  0.93306098542E+02 -0.10171148034E+03  0.15958908157E+03  0.80090414159E+02 0.  0.
          6    2    1    2  501    0  0.30075965699E+02 -0.41327702372E+02  0.36300170596E+03  0.40481104136E+03  0.17172419159E+03 0.  0.
         24    2    5    5    0    0  0.64736994270E+02 -0.74062466612E+02  0.22126356112E+03  0.25519572331E+03  0.80567774751E+02 0.  0.
          5    1    5    5  501    0 -0.34661028571E+02  0.32734764240E+02  0.14173814484E+03  0.14961531805E+03  0.47000000000E+01 0. -1.
        -11    1    6    6    0    0 -0.13033436433E+02 -0.24148118566E+02  0.20719827919E+02  0.34384783909E+02  0.00000000000E+00 0.  1.
         12    1    6    6    0    0  0.77770430703E+02 -0.49914348046E+02  0.20054373320E+03  0.22081093940E+03  0.00000000000E+00 0. -1.
         -5    1    3    3    0  503 -0.28359207489E+02 -0.51978396170E+02 -0.13211110412E+02  0.60849172189E+02  0.47000000000E+01 0.  1.
         11    1    4    4    0    0 -0.28379815802E+02  0.52078466619E+02 -0.92122274591E+02  0.10956319686E+03  0.00000000000E+00 0. -1.
        -12    1    4    4    0    0  0.26663057593E+02  0.41227631923E+02 -0.95892057461E+01  0.50025884710E+02  0.00000000000E+00 0.  1.
</event>
<event>
12    1  0.8747122E-002  0.1925681E+03  0.7818608E-02  0.1156651E+00
         21   -1    0    0  501  502  0.00000000000E+00  0.00000000000E+00  0.55495831406E+03  0.55495831406E+03  0.00000000000E+00 0. -1.
         21   -1    0    0  502  503 -0.00000000000E+00 -0.00000000000E+00 -0.73320779052E+02  0.73320779052E+02  0.00000000000E+00 0.  1.
         -6    2    1    2    0  503 -0.80823044431E+02 -0.33087458225E+02  0.34086076759E+03  0.39149527516E+03  0.17162559012E+03 0.  0.
        -24    2    3    3    0    0 -0.10012990995E+03  0.25635204086E+02  0.23159593070E+03  0.26586884201E+03  0.79789745452E+02 0.  0.
          6    2    1    2  501    0  0.80823044431E+02  0.33087458225E+02  0.14077676742E+03  0.23678381795E+03  0.16917840819E+03 0.  0.
         24    2    5    5    0    0  0.55019950681E+02  0.48066907395E+02  0.15670626773E+03  0.20263674598E+03  0.10567484997E+03 0.  0.
          5    1    5    5  501    0  0.25803093750E+02 -0.14979449169E+02 -0.15929500310E+02  0.34147071978E+02  0.47000000000E+01 0. -1.
        -13    1    6    6    0    0  0.45610646351E+02 -0.25891961225E+02  0.49975808769E+02  0.72445194311E+02  0.00000000000E+00 0.  1.
         14    1    6    6    0    0  0.94093043299E+01  0.73958868620E+02  0.10673045896E+03  0.13019155167E+03  0.00000000000E+00 0. -1.
         -5    1    3    3    0  503  0.19306865515E+02 -0.58722662312E+02  0.10926483689E+03  0.12562643315E+03  0.47000000000E+01 0.  1.
         11    1    4    4    0    0  0.13682267824E+02  0.57689199182E+01  0.22047628911E+02  0.26581625805E+02  0.00000000000E+00 0. -1.
        -12    1    4    4    0    0 -0.11381217777E+03  0.19866284168E+02  0.20954830179E+03  0.23928721620E+03  0.00000000000E+00 0.  1.
</event>
<event>
12    1  0.8747122E-002  0.1870727E+03  0.7818608E-02  0.1161216E+00
         21   -1    0    0  503  502  0.00000000000E+00  0.00000000000E+00  0.96419704395E+03  0.96419704395E+03  0.00000000000E+00 0.  1.
         21   -1    0    0  501  503 -0.00000000000E+00 -0.00000000000E+00 -0.41660843021E+02  0.41660843021E+02  0.00000000000E+00 0.  1.
          6    2    1    2  501    0 -0.40099474705E+02  0.60313687345E+02  0.64257585313E+03  0.66914736278E+03  0.17207195392E+03 0.  0.
         24    2    3    3    0    0  0.98231973871E+01  0.29979552973E+02  0.56691602154E+03  0.57344504821E+03  0.80313006609E+02 0.  0.
         -6    2    1    2    0  502  0.40099474705E+02 -0.60313687345E+02  0.27996034780E+03  0.33671052420E+03  0.17248325140E+03 0.  0.
        -24    2    5    5    0    0  0.22488207521E+02  0.36382474161E+02  0.11249581342E+03  0.14247673554E+03  0.76255545566E+02 0.  0.
          5    1    3    3  501    0 -0.49922672092E+02  0.30334134372E+02  0.75659831592E+02  0.95702314567E+02  0.47000000000E+01 0. -1.
        -13    1    4    4    0    0 -0.12349235586E+02  0.95860615679E+01  0.18579157348E+02  0.24281294935E+02  0.00000000000E+00 0.  1.
         14    1    4    4    0    0  0.22172432973E+02  0.20393491405E+02  0.54833686419E+03  0.54916375327E+03  0.00000000000E+00 0. -1.
         -5    1    5    5    0  502  0.17611267183E+02 -0.96696161505E+02  0.16746453438E+03  0.19423378866E+03  0.47000000000E+01 0.  1.
         11    1    6    6    0    0 -0.22112225496E+02  0.25738308840E+02  0.20386993103E+02  0.39585862958E+02  0.00000000000E+00 0. -1.
        -12    1    6    6    0    0  0.44600433018E+02  0.10644165321E+02  0.92108820314E+02  0.10289087258E+03  0.00000000000E+00 0.  1.
</event>
<event>
12    1  0.8747122E-002  0.1817446E+03  0.7818608E-02  0.1167730E+00
         21   -1    0    0  503  502  0.00000000000E+00  0.00000000000E+00  0.99258700265E+03  0.99258700265E+03  0.00000000000E+00 0.  1.
         21   -1    0    0  501  503 -0.00000000000E+00 -0.00000000000E+00 -0.41814374473E+02  0.41814374473E+02  0.00000000000E+00 0.  1.
          6    2    1    2  501    0  0.50420268456E+02  0.34359971128E+02  0.21918376353E+03  0.28057554789E+03  0.16418984376E+03 0.  0.
         24    2    3    3    0    0  0.47290673215E+02  0.88804022729E+00  0.43358399538E+02  0.10150345865E+03  0.78649888230E+02 0.  0.
         -6    2    1    2    0  502 -0.50420268456E+02 -0.34359971128E+02  0.73158886465E+03  0.75382582923E+03  0.17119667884E+03 0.  0.
        -24    2    5    5    0    0  0.23987949331E+02 -0.34403651374E+02  0.22943520029E+03  0.24616750180E+03  0.78733060832E+02 0.  0.
          5    1    3    3  501    0  0.31295952405E+01  0.33471930901E+02  0.17582536399E+03  0.17907208924E+03  0.47000000000E+01 0. -1.
        -13    1    4    4    0    0  0.11671334188E+02  0.23176811417E+02 -0.14708734612E+02  0.29828367422E+02  0.00000000000E+00 0.  1.
         14    1    4    4    0    0  0.35619339027E+02 -0.22288771190E+02  0.58067134150E+02  0.71675091226E+02  0.00000000000E+00 0. -1.
         -5    1    5    5    0  502 -0.74408217786E+02  0.43680245638E-01  0.50215366435E+03  0.50765832743E+03  0.47000000000E+01 0.  1.
         13    1    6    6    0    0  0.40197216381E+02 -0.39435287134E+02  0.21926709051E+03  0.22638245307E+03  0.00000000000E+00 0. -1.
        -14    1    6    6    0    0 -0.16209267051E+02  0.50316357602E+01  0.10168109781E+02  0.19785048731E+02  0.00000000000E+00 0.  1.
</event>
<event>
12    1  0.8747122E-002  0.1898168E+03  0.7818608E-02  0.1158964E+00
         21   -1    0    0  501  502  0.00000000000E+00  0.00000000000E+00  0.77098957770E+02  0.77098957770E+02  0.00000000000E+00 0. -1.
         21   -1    0    0  502  503 -0.00000000000E+00 -0.00000000000E+00 -0.47011431256E+03  0.47011431256E+03  0.00000000000E+00 0. -1.
         -6    2    1    2    0  503 -0.69569985841E+02 -0.36838022193E+02 -0.16524334243E+03  0.25166600007E+03  0.17272345112E+03 0.  0.
        -24    2    3    3    0    0  0.12783417973E+02  0.17462630042E+02 -0.37989810392E+02  0.90587772594E+02  0.79338260801E+02 0.  0.
          6    2    1    2  501    0  0.69569985841E+02  0.36838022193E+02 -0.22777201236E+03  0.29554727026E+03  0.17108792047E+03 0.  0.
         24    2    5    5    0    0  0.49461405109E+02  0.42622025989E+02 -0.46685261059E+02  0.11319510762E+03  0.79815732126E+02 0.  0.
          5    1    5    5  501    0  0.20108580732E+02 -0.57840037961E+01 -0.18108675131E+03  0.18235216263E+03  0.47000000000E+01 0. -1.
        -13    1    6    6    0    0  0.95404316382E+01  0.56961136776E+02 -0.39999220622E+02  0.70253317281E+02  0.00000000000E+00 0.  1.
         14    1    6    6    0    0  0.39920973471E+02 -0.14339110787E+02 -0.66860404370E+01  0.42941790342E+02  0.00000000000E+00 0. -1.
         -5    1    3    3    0  503 -0.82353403815E+02 -0.54300652235E+02 -0.12725353203E+03  0.16107822748E+03  0.47000000000E+01 0.  1.
         13    1    4    4    0    0 -0.19598297532E+02  0.38791434670E+02 -0.20293972033E+02  0.47965758316E+02  0.00000000000E+00 0. -1.
        -14    1    4    4    0    0  0.32381715505E+02 -0.21328804628E+02 -0.17695838359E+02  0.42622014278E+02  0.00000000000E+00 0.  1.
</event>
<event>
12    1  0.8747122E-002  0.2712849E+03  0.7818608E-02  0.1100565E+00
         21   -1    0    0  503  502  0.00000000000E+00  0.00000000000E+00  0.92436149912E+03  0.92436149912E+03  0.00000000000E+00 0. -1.
         21   -1    0    0  501  503 -0.00000000000E+00 -0.00000000000E+00 -0.84824771397E+02  0.84824771397E+02  0.00000000000E+00 0. -1.
          6    2    1    2  501    0  0.16515810004E+03 -0.12870153308E+03  0.29418329390E+03  0.40008377293E+03  0.17228445180E+03 0.  0.
         24    2    3    3    0    0  0.88478501027E+02 -0.27821242699E+01  0.17423490745E+03  0.20996495790E+03  0.76754773212E+02 0.  0.
         -6    2    1    2    0  502 -0.16515810004E+03  0.12870153308E+03  0.54535343383E+03  0.60910249759E+03  0.17249406410E+03 0.  0.
        -24    2    5    5    0    0 -0.10803544229E+03  0.14770956038E+03  0.48136283043E+03  0.52111846236E+03  0.79777855835E+02 0.  0.
          5    1    3    3  501    0  0.76679599013E+02 -0.12591940881E+03  0.11994838645E+03  0.19011881504E+03  0.47000000000E+01 0. -1.
        -13    1    4    4    0    0 -0.95206559977E+01  0.14787873425E+02  0.27372940227E+02  0.32536163691E+02  0.00000000000E+00 0.  1.
         14    1    4    4    0    0  0.97999157024E+02 -0.17569997695E+02  0.14686196722E+03  0.17742879421E+03  0.00000000000E+00 0. -1.
         -5    1    5    5    0  502 -0.57122657746E+02 -0.19008027302E+02  0.63990603404E+02  0.87984035222E+02  0.47000000000E+01 0.  1.
         11    1    6    6    0    0 -0.75865625180E+02  0.57187276681E+02  0.16396819649E+03  0.18950342255E+03  0.00000000000E+00 0. -1.
        -12    1    6    6    0    0 -0.32169817113E+02  0.90522283702E+02  0.31739463394E+03  0.33161503981E+03  0.00000000000E+00 0.  1.
</event>
<event>
12    1  0.8747122E-002  0.1977754E+03  0.7818608E-02  0.1151634E+00
         21   -1    0    0  501  502  0.00000000000E+00  0.00000000000E+00  0.17435285602E+03  0.17435285602E+03  0.00000000000E+00 0. -1.
         21   -1    0    0  502  503 -0.00000000000E+00 -0.00000000000E+00 -0.24135224842E+03  0.24135224842E+03  0.00000000000E+00 0. -1.
         -6    2    1    2    0  503  0.11218318247E+02  0.96238741577E+02 -0.88713871112E+02  0.21674120794E+03  0.17239157243E+03 0.  0.
        -24    2    3    3    0    0 -0.30279227394E+02  0.92855637770E+02 -0.11199218226E+03  0.16880936616E+03  0.80095893398E+02 0.  0.
          6    2    1    2  501    0 -0.11218318247E+02 -0.96238741577E+02  0.21714478710E+02  0.19896389651E+03  0.17241626223E+03 0.  0.
         24    2    5    5    0    0  0.29993239489E+02 -0.14881538222E+02  0.48142554407E+02  0.10389591970E+03  0.85764806249E+02 0.  0.
          5    1    5    5  501    0 -0.41211557736E+02 -0.81357203355E+02 -0.26428075697E+02  0.95067976805E+02  0.47000000000E+01 0. -1.
        -13    1    6    6    0    0  0.86065570374E+01 -0.28077614844E+02 -0.17098592656E+02  0.33982159292E+02  0.00000000000E+00 0.  1.
         14    1    6    6    0    0  0.21386682451E+02  0.13196076622E+02  0.65241147063E+02  0.69913760409E+02  0.00000000000E+00 0. -1.
         -5    1    3    3    0  503  0.41497545641E+02  0.33831038064E+01  0.23278311151E+02  0.47931841771E+02  0.47000000000E+01 0.  1.
         13    1    4    4    0    0 -0.14021717307E+02  0.82179113805E+02 -0.12134867205E+03  0.14722606940E+03  0.00000000000E+00 0. -1.
        -14    1    4    4    0    0 -0.16257510087E+02  0.10676523965E+02  0.93564897855E+01  0.21583296767E+02  0.00000000000E+00 0.  1.
</event>
<event>
12    1  0.8747122E-002  0.2178727E+03  0.7818608E-02  0.1135550E+00
         21   -1    0    0  501  502  0.00000000000E+00  0.00000000000E+00  0.17425668509E+03  0.17425668509E+03  0.00000000000E+00 0. -1.
         21   -1    0    0  502  503 -0.00000000000E+00 -0.00000000000E+00 -0.30245419146E+03  0.30245419146E+03  0.00000000000E+00 0. -1.
         -6    2    1    2    0  503 -0.13133324572E+03  0.23647587550E+02  0.11566494334E+02  0.21817948014E+03  0.17222331995E+03 0.  0.
        -24    2    3    3    0    0 -0.14306665373E+03 -0.23591604370E+02  0.24780665461E+02  0.16752458466E+03  0.80160924890E+02 0.  0.
          6    2    1    2  501    0  0.13133324572E+03 -0.23647587550E+02 -0.13976400070E+03  0.25853139642E+03  0.17174654935E+03 0.  0.
         24    2    5    5    0    0  0.59596380879E+01  0.15754926049E+02 -0.72389776777E+02  0.11077323043E+03  0.82138260367E+02 0.  0.
          5    1    5    5  501    0  0.12537360763E+03 -0.39402513599E+02 -0.67374223923E+02  0.14775816599E+03  0.47000000000E+01 0. -1.
        -11    1    6    6    0    0  0.18388685218E+02  0.43266881745E+02 -0.21709900997E+02  0.51783072536E+02  0.00000000000E+00 0.  1.
         12    1    6    6    0    0 -0.12429047130E+02 -0.27511955696E+02 -0.50679875780E+02  0.58990157890E+02  0.00000000000E+00 0. -1.
         -5    1    3    3    0  503  0.11733408018E+02  0.47239191921E+02 -0.13214171127E+02  0.50654895475E+02  0.47000000000E+01 0.  1.
         13    1    4    4    0    0 -0.66958616013E+02  0.28644836459E+02  0.17670250159E+02  0.74941448177E+02  0.00000000000E+00 0. -1.
        -14    1    4    4    0    0 -0.76108037720E+02 -0.52236440830E+02  0.71104153021E+01  0.92583136488E+02  0.00000000000E+00 0.  1.
</event>
<event>
12    1  0.8747122E-002  0.1777017E+03  0.7818608E-02  0.1170211E+00
         21   -1    0    0  503  502  0.00000000000E+00  0.00000000000E+00  0.89674706514E+03  0.89674706514E+03  0.00000000000E+00 0.  1.
         21   -1    0    0  501  503 -0.00000000000E+00 -0.00000000000E+00 -0.74446716227E+02  0.74446716227E+02  0.00000000000E+00 0.  1.
          6    2    1    2  501    0  0.42132632616E+02  0.32503302710E+01  0.57672133505E+02  0.18618792137E+03  0.17191318653E+03 0.  0.
         24    2    3    3    0    0 -0.51172372980E+01  0.57909788972E+01  0.96523731009E+02  0.12478318433E+03  0.78703817506E+02 0.  0.
         -6    2    1    2    0  502 -0.42132632616E+02 -0.32503302710E+01  0.76462821541E+03  0.78500586000E+03  0.17260408178E+03 0.  0.
        -24    2    5    5    0    0  0.55063626764E+01 -0.31968125586E+02  0.65433789336E+03  0.66139262940E+03  0.90718523220E+02 0.  0.
          5    1    3    3  501    0  0.47249869914E+02 -0.25406486263E+01 -0.38851597504E+02  0.61404737040E+02  0.47000000000E+01 0. -1.
        -11    1    4    4    0    0  0.17141901055E+02 -0.26352077940E+02  0.16010995279E+02  0.35279296384E+02  0.00000000000E+00 0.  1.
         12    1    4    4    0    0 -0.22259138353E+02  0.32143056838E+02  0.80512735731E+02  0.89503887949E+02  0.00000000000E+00 0. -1.
         -5    1    5    5    0  502 -0.47638995293E+02  0.28717795315E+02  0.11029032205E+03  0.12361323060E+03  0.47000000000E+01 0.  1.
         13    1    6    6    0    0  0.22349353311E+02  0.92958565090E+01  0.51449793860E+02  0.56859368884E+02  0.00000000000E+00 0. -1.
        -14    1    6    6    0    0 -0.16842990635E+02 -0.41263982095E+02  0.60288809950E+03  0.60453326051E+03  0.00000000000E+00 0.  1.
</event>
<event>
12    1  0.8747122E-002  0.1790293E+03  0.7818608E-02  0.1168983E+00
         21   -1    0    0  501  502  0.00000000000E+00  0.00000000000E+00  0.11926550370E+03  0.11926550370E+03  0.00000000000E+00 0.  1.
         21   -1    0    0  502  503 -0.00000000000E+00 -0.00000000000E+00 -0.43798923728E+03  0.43798923728E+03  0.00000000000E+00 0.  1.
         -6    2    1    2    0  503  0.38726302792E+02  0.22321608094E+02  0.14846051542E+02  0.17867805323E+03  0.17235852385E+03 0.  0.
        -24    2    3    3    0    0  0.56581417772E+02  0.37622739802E+02 -0.44919064686E+02  0.11428171109E+03  0.80160212891E+02 0.  0.
          6    2    1    2  501    0 -0.38726302792E+02 -0.22321608094E+02 -0.33356978513E+03  0.37857668775E+03  0.17335952885E+03 0.  0.
         24    2    5    5    0    0 -0.83592107694E+02 -0.45806718548E+02 -0.14290996325E+03  0.18125018537E+03  0.57814151976E+02 0.  0.
          5    1    5    5  501    0  0.44865804902E+02  0.23485110454E+02 -0.19065982187E+03  0.19732650237E+03  0.47000000000E+01 0. -1.
        -13    1    6    6    0    0 -0.13790910344E+02 -0.46586823564E+01 -0.72371596078E+02  0.73821002759E+02  0.00000000000E+00 0.  1.
         14    1    6    6    0    0 -0.69801197350E+02 -0.41148036192E+02 -0.70538367173E+02  0.10742918262E+03  0.00000000000E+00 0. -1.
         -5    1    3    3    0  503 -0.17855114980E+02 -0.15301131708E+02  0.59765116228E+02  0.64396342134E+02  0.47000000000E+01 0.  1.
         11    1    4    4    0    0 -0.10844175462E+02 -0.13760083494E+02  0.15852991454E+01  0.17591168597E+02  0.00000000000E+00 0. -1.
        -12    1    4    4    0    0  0.67425593234E+02  0.51382823296E+02 -0.46504363832E+02  0.96690542496E+02  0.00000000000E+00 0.  1.
</event>
<event>
12    1  0.8747122E-002  0.2334763E+03  0.7818608E-02  0.1125797E+00
         21   -1    0    0  503  502  0.00000000000E+00  0.00000000000E+00  0.11366639884E+04  0.11366639884E+04  0.00000000000E+00 0.  1.
         21   -1    0    0  501  503 -0.00000000000E+00 -0.00000000000E+00 -0.53575307666E+02  0.53575307666E+02  0.00000000000E+00 0. -1.
          6    2    1    2  501    0  0.74782725601E+02  0.13183018952E+03  0.31063239172E+03  0.38326970317E+03  0.16562465898E+03 0.  0.
         24    2    3    3    0    0  0.58672847225E+02  0.68352896032E+02  0.82287440251E+02  0.14567256128E+03  0.79590520102E+02 0.  0.
         -6    2    1    2    0  502 -0.74782725601E+02 -0.13183018952E+03  0.77245628901E+03  0.80696959289E+03  0.17759377947E+03 0.  0.
        -24    2    5    5    0    0 -0.12497347338E+02 -0.31747082634E+01  0.36887605653E+03  0.37879813746E+03  0.85159975316E+02 0.  0.
          5    1    3    3  501    0  0.16109878376E+02  0.63477293492E+02  0.22834495147E+03  0.23759714189E+03  0.47000000000E+01 0. -1.
        -11    1    4    4    0    0  0.49491028063E+02  0.77708561000E+02  0.91346075675E+02  0.12973853650E+03  0.00000000000E+00 0.  1.
         12    1    4    4    0    0  0.91818191616E+01 -0.93556649677E+01 -0.90586354236E+01  0.15934024785E+02  0.00000000000E+00 0. -1.
         -5    1    5    5    0  502 -0.62285378262E+02 -0.12865548126E+03  0.40358023248E+03  0.42817145543E+03  0.47000000000E+01 0.  1.
         13    1    6    6    0    0  0.12468752895E+02 -0.31182702999E+02  0.70700826562E+02  0.78271563429E+02  0.00000000000E+00 0. -1.
        -14    1    6    6    0    0 -0.24966100233E+02  0.28007994735E+02  0.29817522997E+03  0.30052657403E+03  0.00000000000E+00 0.  1.
</event>
<event>
12    1  0.8747122E-002  0.1859981E+03  0.7818608E-02  0.1162294E+00
         21   -1    0    0  503  502  0.00000000000E+00  0.00000000000E+00  0.28857841660E+03  0.28857841660E+03  0.00000000000E+00 0.  1.
         21   -1    0    0  501  503 -0.00000000000E+00 -0.00000000000E+00 -0.34454776104E+03  0.34454776104E+03  0.00000000000E+00 0.  1.
          6    2    1    2  501    0 -0.42669115537E+01 -0.67159698685E+02 -0.28390119516E+03  0.33940417547E+03  0.17339744535E+03 0.  0.
         24    2    3    3    0    0 -0.43575275336E+02 -0.16208837047E+02 -0.24913800360E+03  0.26611224377E+03  0.81144626606E+02 0.  0.
         -6    2    1    2    0  502  0.42669115537E+01  0.67159698685E+02  0.22793185072E+03  0.29372200217E+03  0.17260085261E+03 0.  0.
        -24    2    5    5    0    0 -0.19018574446E+02  0.10383699771E+03  0.12491515772E+03  0.18182040629E+03  0.79442024450E+02 0.  0.
          5    1    3    3  501    0  0.39308363782E+02 -0.50950861638E+02 -0.34763191552E+02  0.73291931696E+02  0.47000000000E+01 0. -1.
        -13    1    4    4    0    0  0.24418262966E+01 -0.33485996110E+02 -0.45030776965E+02  0.56169790147E+02  0.00000000000E+00 0.  1.
         14    1    4    4    0    0 -0.46017101633E+02  0.17277159063E+02 -0.20410722664E+03  0.20994245363E+03  0.00000000000E+00 0. -1.
         -5    1    5    5    0  502  0.23285485999E+02 -0.36677299028E+02  0.10301669300E+03  0.11190159588E+03  0.47000000000E+01 0.  1.
         11    1    6    6    0    0  0.17111496665E+02  0.73712176695E+02  0.10791259612E+03  0.13180067038E+03  0.00000000000E+00 0. -1.
        -12    1    6    6    0    0 -0.36130071110E+02  0.30124821018E+02  0.17002561597E+02  0.50019735911E+02  0.00000000000E+00 0.  1.
</event>
<event>
12    1  0.8747122E-002  0.2005643E+03  0.7818608E-02  0.1149621E+00
         21   -1    0    0  501  502  0.00000000000E+00  0.00000000000E+00  0.34528985709E+03  0.34528985709E+03  0.00000000000E+00 0.  1.
         21   -1    0    0  502  503 -0.00000000000E+00 -0.00000000000E+00 -0.12477953692E+03  0.12477953692E+03  0.00000000000E+00 0. -1.
         -6    2    1    2    0  503 -0.10233500667E+03  0.11081441188E+02  0.17471797197E+03  0.26599325131E+03  0.17213595814E+03 0.  0.
        -24    2    3    3    0    0 -0.15462059320E+02  0.22124857192E+02  0.15634342620E+02  0.84338201434E+02  0.78357609508E+02 0.  0.
          6    2    1    2  501    0  0.10233500667E+03 -0.11081441188E+02  0.45792348197E+02  0.20407614269E+03  0.17016133795E+03 0.  0.
         24    2    5    5    0    0  0.11157819195E+03 -0.47259840995E+02  0.12643838055E+01  0.14577397550E+03  0.81026340007E+02 0.  0.
          5    1    5    5  501    0 -0.92431852883E+01  0.36178399807E+02  0.44527964391E+02  0.58302167195E+02  0.47000000000E+01 0. -1.
        -13    1    6    6    0    0  0.65672360055E+02 -0.25303373374E+02  0.40786091044E+02  0.81342638278E+02  0.00000000000E+00 0.  1.
         14    1    6    6    0    0  0.45905831899E+02 -0.21956467620E+02 -0.39521707238E+02  0.64431337218E+02  0.00000000000E+00 0. -1.
         -5    1    3    3    0  503 -0.86872947346E+02 -0.11043416004E+02  0.15908362935E+03  0.18165504988E+03  0.47000000000E+01 0.  1.
         11    1    4    4    0    0 -0.78300906591E+01  0.31508589741E+02  0.43313888623E+02  0.54131270952E+02  0.00000000000E+00 0. -1.
        -12    1    4    4    0    0 -0.76319686608E+01 -0.93837325491E+01 -0.27679546004E+02  0.30206930482E+02  0.00000000000E+00 0.  1.
</event>
<event>
12    1  0.8747122E-002  0.1775856E+03  0.7818608E-02  0.1170545E+00
         21   -1    0    0  501  502  0.00000000000E+00  0.00000000000E+00  0.11100622487E+03  0.11100622487E+03  0.00000000000E+00 0.  1.
         21   -1    0    0  502  503 -0.00000000000E+00 -0.00000000000E+00 -0.28818447125E+03  0.28818447125E+03  0.00000000000E+00 0.  1.
         -6    2    1    2    0  503 -0.41593144220E+02  0.24727151411E+01 -0.11834226590E+03  0.21211233470E+03  0.17102820430E+03 0.  0.
        -24    2    3    3    0    0 -0.61232931242E+02  0.58686482821E+02 -0.89827498653E+02  0.14592403617E+03  0.77661249554E+02 0.  0.
          6    2    1    2  501    0  0.41593144220E+02 -0.24727151411E+01 -0.58835980475E+02  0.18707836142E+03  0.17262831965E+03 0.  0.
         24    2    5    5    0    0 -0.23696686798E+02  0.17275016153E+02  0.14650930639E+02  0.86703309586E+02  0.80267396720E+02 0.  0.
          5    1    5    5  501    0  0.65289831018E+02 -0.19747731294E+02 -0.73486911114E+02  0.10037505183E+03  0.47000000000E+01 0. -1.
        -13    1    6    6    0    0  0.93228615984E+01  0.23041796159E+02 -0.24679314329E+02  0.35027256164E+02  0.00000000000E+00 0.  1.
         14    1    6    6    0    0 -0.33019548397E+02 -0.57667800064E+01  0.39330244968E+02  0.51676053422E+02  0.00000000000E+00 0. -1.
         -5    1    3    3    0  503  0.19639787023E+02 -0.56213767680E+02 -0.28514767249E+02  0.66188298530E+02  0.47000000000E+01 0.  1.
         11    1    4    4    0    0 -0.44552118038E+02  0.28694589250E+02 -0.97305722510E+02  0.11080015481E+03  0.00000000000E+00 0. -1.
        -12    1    4    4    0    0 -0.16680813204E+02  0.29991893571E+02  0.74782238563E+01  0.35123881352E+02  0.00000000000E+00 0.  1.
</event>
<event>
12    1  0.8747122E-002  0.3037623E+03  0.7818608E-02  0.1083419E+00
         21   -1    0    0  501  502  0.00000000000E+00  0.00000000000E+00  0.20751588569E+03  0.20751588569E+03  0.00000000000E+00 0. -1.
         21   -1    0    0  502  503 -0.00000000000E+00 -0.00000000000E+00 -0.51196202783E+03  0.51196202783E+03  0.00000000000E+00 0. -1.
         -6    2    1    2    0  503 -0.20555916578E+03  0.14433657324E+03 -0.21190501163E+02  0.30414031190E+03  0.17019011421E+03 0.  0.
        -24    2    3    3    0    0 -0.18985612712E+03  0.12524977851E+03 -0.68431139665E+02  0.25061780185E+03  0.79960025690E+02 0.  0.
          6    2    1    2  501    0  0.20555916578E+03 -0.14433657324E+03 -0.28325564098E+03  0.41533760161E+03  0.17083310030E+03 0.  0.
         24    2    5    5    0    0  0.20183229153E+03 -0.83210442495E+02 -0.20454809990E+03  0.31550143344E+03  0.10020467899E+03 0.  0.
          5    1    5    5  501    0  0.37268742502E+01 -0.61126130744E+02 -0.78707541080E+02  0.99836168167E+02  0.47000000000E+01 0. -1.
        -13    1    6    6    0    0  0.23250908129E+02 -0.15999594415E+01 -0.79194743908E+02  0.82552844056E+02  0.00000000000E+00 0.  1.
         14    1    6    6    0    0  0.17858138340E+03 -0.81610483054E+02 -0.12535335599E+03  0.23294858939E+03  0.00000000000E+00 0. -1.
         -5    1    3    3    0  503 -0.15703038662E+02  0.19086794729E+02  0.47240638501E+02  0.53522510052E+02  0.47000000000E+01 0.  1.
         13    1    4    4    0    0 -0.43365944251E+02  0.71598211072E+02 -0.36790688344E+02  0.91435571297E+02  0.00000000000E+00 0. -1.
        -14    1    4    4    0    0 -0.14649018286E+03  0.53651567438E+02 -0.31640451320E+02  0.15918223055E+03  0.00000000000E+00 0.  1.
</event>
<event>
12    1  0.8747122E-002  0.2672545E+03  0.7818608E-02  0.1103230E+00
         21   -1    0    0  501  502  0.00000000000E+00  0.00000000000E+00  0.84846801899E+03  0.84846801899E+03  0.00000000000E+00 0. -1.
         21   -1    0    0  502  503 -0.00000000000E+00 -0.00000000000E+00 -0.13373427754E+03  0.13373427754E+03  0.00000000000E+00 0. -1.
         -6    2    1    2    0  503 -0.76523010395E+02  0.18543623936E+03  0.54979986563E+02  0.27037368051E+03  0.17273319947E+03 0.  0.
        -24    2    3    3    0    0  0.27210213472E+02  0.81866480615E+02  0.13892790306E+02  0.11806634530E+03  0.79398588810E+02 0.  0.
          6    2    1    2  501    0  0.76523010395E+02 -0.18543623936E+03  0.65975375488E+03  0.71182861602E+03  0.17658593238E+03 0.  0.
         24    2    5    5    0    0 -0.21571060523E+02 -0.11955608134E+03  0.42320247471E+03  0.44736455396E+03  0.79219582819E+02 0.  0.
          5    1    5    5  501    0  0.98094070918E+02 -0.65880158021E+02  0.23655128017E+03  0.26446406206E+03  0.47000000000E+01 0. -1.
        -13    1    6    6    0    0 -0.29735368727E+02 -0.13125069850E+02  0.53871053193E+02  0.62917008703E+02  0.00000000000E+00 0.  1.
         14    1    6    6    0    0  0.81643082041E+01 -0.10643101149E+03  0.36933142152E+03  0.38444754526E+03  0.00000000000E+00 0. -1.
         -5    1    3    3    0  503 -0.10373322387E+03  0.10356975875E+03  0.41087196257E+02  0.15230733521E+03  0.47000000000E+01 0.  1.
         13    1    4    4    0    0  0.22618387906E+02  0.91878619614E+02 -0.65465604298E+01  0.94847929166E+02  0.00000000000E+00 0. -1.
        -14    1    4    4    0    0  0.45918255654E+01 -0.10012138999E+02  0.20439350736E+02  0.23218416136E+02  0.00000000000E+00 0.  1.
</event>
<event>
12    1  0.8747122E-002  0.3885050E+03  0.7818608E-02  0.1047890E+00
         21   -1    0    0  501  502  0.00000000000E+00  0.00000000000E+00  0.39390220628E+03  0.39390220628E+03  0.00000000000E+00 0. -1.
         21   -1    0    0  502  503 -0.00000000000E+00 -0.00000000000E+00 -0.55956965638E+03  0.55956965638E+03  0.00000000000E+00 0.  1.
         -6    2    1    2    0  503 -0.34760435830E+03 -0.22841335508E+02 -0.35100709632E+03  0.52358585600E+03  0.17200479766E+03 0.  0.
        -24    2    3    3    0    0 -0.21738946351E+03 -0.54867637825E+01 -0.12823827222E+03  0.26492557885E+03  0.80325739616E+02 0.  0.
          6    2    1    2  501    0  0.34760435830E+03  0.22841335508E+02  0.18533964622E+03  0.42988600667E+03  0.17058920761E+03 0.  0.
         24    2    5    5    0    0  0.16157143986E+03 -0.30743207885E+02  0.37815148717E+02  0.18644172681E+03  0.79246810745E+02 0.  0.
          5    1    5    5  501    0  0.18603291844E+03  0.53584543392E+02  0.14752449750E+03  0.24344427986E+03  0.47000000000E+01 0. -1.
        -13    1    6    6    0    0  0.89208296933E+02  0.91312096692E+01 -0.11205606393E+02  0.90371814447E+02  0.00000000000E+00 0.  1.
         14    1    6    6    0    0  0.72363142925E+02 -0.39874417554E+02  0.49020755110E+02  0.96069912360E+02  0.00000000000E+00 0. -1.
         -5    1    3    3    0  503 -0.13021489479E+03 -0.17354571725E+02 -0.22276882410E+03  0.25866027715E+03  0.47000000000E+01 0.  1.
         11    1    4    4    0    0 -0.26742278313E+02  0.21030367468E+02 -0.70774375407E+00  0.34028322122E+02  0.00000000000E+00 0. -1.
        -12    1    4    4    0    0 -0.19064718520E+03 -0.26517131251E+02 -0.12753052847E+03  0.23089725673E+03  0.00000000000E+00 0.  1.
</event>
<event>
12    1  0.8747122E-002  0.1716530E+03  0.7818608E-02  0.1176502E+00
         21   -1    0    0  503  502  0.00000000000E+00  0.00000000000E+00  0.79004976090E+02  0.79004976090E+02  0.00000000000E+00 0.  1.
         21   -1    0    0  501  503 -0.00000000000E+00 -0.00000000000E+00 -0.85301315488E+03  0.85301315488E+03  0.00000000000E+00 0.  1.
          6    2    1    2  501    0 -0.86184610858E+01  0.10003110075E+02 -0.73702088168E+03  0.75642543258E+03  0.16972128601E+03 0.  0.
         24    2    3    3    0    0 -0.41618519766E+01 -0.47099622460E+02 -0.60266364901E+03  0.61029350793E+03  0.83779451779E+02 0.  0.
         -6    2    1    2    0  502  0.86184610858E+01 -0.10003110075E+02 -0.36987297110E+02  0.17559269840E+03  0.17114437035E+03 0.  0.
        -24    2    5    5    0    0  0.69820717254E+02  0.10536031284E+02 -0.32701452381E+02  0.11072336086E+03  0.78767614785E+02 0.  0.
          5    1    3    3  501    0 -0.44566091091E+01  0.57102732535E+02 -0.13435723268E+03  0.14613192464E+03  0.47000000000E+01 0. -1.
        -11    1    4    4    0    0 -0.22059889897E+02 -0.83991698506E+01 -0.47717992027E+03  0.47776339448E+03  0.00000000000E+00 0.  1.
         12    1    4    4    0    0  0.17898037920E+02 -0.38700452609E+02 -0.12548372874E+03  0.13253011346E+03  0.00000000000E+00 0. -1.
         -5    1    5    5    0  502 -0.61202256168E+02 -0.20539141359E+02 -0.42858447288E+01  0.64869337540E+02  0.47000000000E+01 0.  1.
         13    1    6    6    0    0 -0.87540380416E+01  0.11853172725E+02 -0.28429718557E+02  0.32021551850E+02  0.00000000000E+00 0. -1.
        -14    1    6    6    0    0  0.78574755296E+02 -0.13171414405E+01 -0.42717338245E+01  0.78701809008E+02  0.00000000000E+00 0.  1.
</event>
<event>
12    1  0.8747122E-002  0.2647850E+03  0.7818608E-02  0.1104514E+00
         21   -1    0    0  501  502  0.00000000000E+00  0.00000000000E+00  0.92394905103E+02  0.92394905103E+02  0.00000000000E+00 0.  1.
         21   -1    0    0  502  503 -0.00000000000E+00 -0.00000000000E+00 -0.21101264189E+04  0.21101264189E+04  0.00000000000E+00 0. -1.
         -6    2    1    2    0  503 -0.19579512087E+03  0.46769153469E+02 -0.18924751268E+04  0.19109090014E+04  0.17201169480E+03 0.  0.
        -24    2    3    3    0    0 -0.18450252008E+03  0.89714231219E+02 -0.15346798888E+04  0.15503381694E+04  0.78843233103E+02 0.  0.
          6    2    1    2  501    0  0.19579512087E+03 -0.46769153469E+02 -0.12525638697E+03  0.29161232254E+03  0.16978074422E+03 0.  0.
         24    2    5    5    0    0  0.18789873469E+03 -0.87278788530E+02 -0.10187454096E+03  0.24394488953E+03  0.78785567224E+02 0.  0.
          5    1    5    5  501    0  0.78963861740E+01  0.40509635061E+02 -0.23381846015E+02  0.47667433017E+02  0.47000000000E+01 0. -1.
        -13    1    6    6    0    0  0.61819373325E+02  0.80450398906E+01 -0.40754726294E+02  0.74480234293E+02  0.00000000000E+00 0.  1.
         14    1    6    6    0    0  0.12607936137E+03 -0.95323828421E+02 -0.61119814666E+02  0.16946465523E+03  0.00000000000E+00 0. -1.
         -5    1    3    3    0  503 -0.11292600785E+02 -0.42945077750E+02 -0.35779523801E+03  0.36057083198E+03  0.47000000000E+01 0.  1.
         11    1    4    4    0    0 -0.17593603212E+02  0.32315106900E+02 -0.43831848462E+03  0.43986008567E+03  0.00000000000E+00 0. -1.
        -12    1    4    4    0    0 -0.16690891687E+03  0.57399124319E+02 -0.10963614041E+04  0.11104780838E+04  0.00000000000E+00 0.  1.
</event>
<event>
12    1  0.8747122E-002  0.1984531E+03  0.7818608E-02  0.1151574E+00
         21   -1    0    0  501  502  0.00000000000E+00  0.00000000000E+00  0.40568468808E+03  0.40568468808E+03  0.00000000000E+00 0.  1.
         21   -1    0    0  502  503 -0.00000000000E+00 -0.00000000000E+00 -0.11161046638E+03  0.11161046638E+03  0.00000000000E+00 0.  1.
         -6    2    1    2    0  503  0.74182946037E+02 -0.58922288229E+02  0.50749701721E+02  0.20483936818E+03  0.17438087337E+03 0.  0.
        -24    2    3    3    0    0  0.23937996473E+02  0.25007343970E+02 -0.13394405967E+02  0.87769753549E+02  0.79534423989E+02 0.  0.
          6    2    1    2  501    0 -0.74182946037E+02  0.58922288229E+02  0.24332451998E+03  0.31245578628E+03  0.17160084739E+03 0.  0.
         24    2    5    5    0    0 -0.61376746189E-02 -0.95362709152E+01  0.16779264078E+03  0.18629744135E+03  0.80382994816E+02 0.  0.
          5    1    5    5  501    0 -0.74176808363E+02  0.68458559145E+02  0.75531879207E+02  0.12615834493E+03  0.47000000000E+01 0. -1.
        -13    1    6    6    0    0  0.12402911024E+01  0.33627222476E+02  0.45401878584E+02  0.56512467583E+02  0.00000000000E+00 0.  1.
         14    1    6    6    0    0 -0.12464287770E+01 -0.43163493391E+02  0.12239076219E+03  0.12978497377E+03  0.00000000000E+00 0. -1.
         -5    1    3    3    0  503  0.50244949564E+02 -0.83929632199E+02  0.64144107688E+02  0.11706961463E+03  0.47000000000E+01 0.  1.
         13    1    4    4    0    0  0.61536349143E+01 -0.22725534984E+02 -0.26222364222E+02  0.35241020819E+02  0.00000000000E+00 0. -1.
        -14    1    4    4    0    0  0.17784361559E+02  0.47732878953E+02  0.12827958255E+02  0.52528732730E+02  0.00000000000E+00 0.  1.
</event>
<event>
12    1  0.8747122E-002  0.2040483E+03  0.7818608E-02  0.1146709E+00
         21   -1    0    0  501  502  0.00000000000E+00  0.00000000000E+00  0.77432254598E+03  0.77432254598E+03  0.00000000000E+00 0. -1.
         21   -1    0    0  502  503 -0.00000000000E+00 -0.00000000000E+00 -0.95319360207E+02  0.95319360207E+02  0.00000000000E+00 0. -1.
         -6    2    1    2    0  503 -0.48397783664E+01 -0.10729988165E+03  0.51700061766E+02  0.21049614012E+03  0.17349075065E+03 0.  0.
        -24    2    3    3    0    0 -0.17519282450E+02 -0.12281720934E+03 -0.77228816176E+01  0.14760946837E+03  0.79611055051E+02 0.  0.
          6    2    1    2  501    0  0.48397783664E+01  0.10729988165E+03  0.62730312401E+03  0.65914576607E+03  0.17154370721E+03 0.  0.
         24    2    5    5    0    0  0.36790658674E+02 -0.63726995483E+01  0.97335618412E+02  0.11616329724E+03  0.51239878507E+02 0.  0.
          5    1    5    5  501    0 -0.31950880307E+02  0.11367258120E+03  0.52996750559E+03  0.54298246883E+03  0.47000000000E+01 0. -1.
        -13    1    6    6    0    0  0.36648449090E+02 -0.22107589905E+02  0.88027037538E+02  0.97880609366E+02  0.00000000000E+00 0.  1.
         14    1    6    6    0    0  0.14220958381E+00  0.15734890357E+02  0.93085808737E+01  0.18282687877E+02  0.00000000000E+00 0. -1.
         -5    1    3    3    0  503  0.12679504083E+02  0.15517327689E+02  0.59422943384E+02  0.62886671742E+02  0.47000000000E+01 0.  1.
         13    1    4    4    0    0 -0.32644305312E+02 -0.15969806659E+02 -0.15301133554E+02  0.39431080154E+02  0.00000000000E+00 0. -1.
        -14    1    4    4    0    0  0.15125022863E+02 -0.10684740268E+03  0.75782519365E+01  0.10817838822E+03  0.00000000000E+00 0.  1.
</event>
<event>
12    1  0.8747122E-002  0.2487363E+03  0.7818608E-02  0.1114164E+00
         21   -1    0    0  501  502  0.00000000000E+00  0.00000000000E+00  0.72178857312E+03  0.72178857312E+03  0.00000000000E+00 0. -1.
         21   -1    0    0  502  503 -0.00000000000E+00 -0.00000000000E+00 -0.87125238735E+02  0.87125238735E+02  0.00000000000E+00 0.  1.
         -6    2    1    2    0  503 -0.17950797109E+03 -0.79540142627E+01  0.37077140600E+03  0.44627253014E+03  0.17146824084E+03 0.  0.
        -24    2    3    3    0    0 -0.78883271525E+02  0.43305324122E+02  0.11006290851E+03  0.16211788809E+03  0.77913055287E+02 0.  0.
          6    2    1    2  501    0  0.17950797109E+03  0.79540142627E+01  0.26389192839E+03  0.36264128172E+03  0.17199817241E+03 0.  0.
         24    2    5    5    0    0  0.53055513328E+02 -0.51303200203E+02  0.11244398600E+03  0.15658252604E+03  0.80171888014E+02 0.  0.
          5    1    5    5  501    0  0.12645245776E+03  0.59257214466E+02  0.15144794239E+03  0.20605875569E+03  0.47000000000E+01 0. -1.
        -13    1    6    6    0    0  0.18419605258E+02 -0.52200458700E+02  0.10837936248E+03  0.12169739503E+03  0.00000000000E+00 0.  1.
         14    1    6    6    0    0  0.34635908070E+02  0.89725849726E+00  0.40646235143E+01  0.34885131001E+02  0.00000000000E+00 0. -1.
         -5    1    3    3    0  503 -0.10062469956E+03 -0.51259338385E+02  0.26070849749E+03  0.28415464205E+03  0.47000000000E+01 0.  1.
         11    1    4    4    0    0 -0.66665417729E+01  0.44038476507E+02  0.27154128152E+02  0.52164900728E+02  0.00000000000E+00 0. -1.
        -12    1    4    4    0    0 -0.72216729753E+02 -0.73315238475E+00  0.82908780361E+02  0.10995298736E+03  0.00000000000E+00 0.  1.
</event>
<event>
12    1  0.8747122E-002  0.2488297E+03  0.7818608E-02  0.1115540E+00
         21   -1    0    0  503  502  0.00000000000E+00  0.00000000000E+00  0.21663116739E+03  0.21663116739E+03  0.00000000000E+00 0.  1.
         21   -1    0    0  501  503 -0.00000000000E+00 -0.00000000000E+00 -0.30620909314E+03  0.30620909314E+03  0.00000000000E+00 0.  1.
          6    2    1    2  501    0  0.16646099816E+03 -0.11302398988E+02 -0.12702293897E+03  0.27120891368E+03  0.17199546419E+03 0.  0.
         24    2    3    3    0    0  0.15751131082E+02  0.11062724908E+02 -0.23708582857E+02  0.87063294720E+02  0.81531824300E+02 0.  0.
         -6    2    1    2    0  502 -0.16646099816E+03  0.11302398988E+02  0.37445013218E+02  0.25163134685E+03  0.18460551879E+03 0.  0.
        -24    2    5    5    0    0 -0.14101060479E+03 -0.33731014384E+02 -0.27996460162E+02  0.16808251513E+03  0.80287969939E+02 0.  0.
          5    1    3    3  501    0  0.15070986708E+03 -0.22365123896E+02 -0.10331435612E+03  0.18414561896E+03  0.47000000000E+01 0. -1.
        -11    1    4    4    0    0 -0.80516164253E+00  0.44981500666E+02 -0.60526002327E+01  0.45394026667E+02  0.00000000000E+00 0.  1.
         12    1    4    4    0    0  0.16556292725E+02 -0.33918775758E+02 -0.17655982624E+02  0.41669268054E+02  0.00000000000E+00 0. -1.
         -5    1    5    5    0  502 -0.25450393375E+02  0.45033413372E+02  0.65441473380E+02  0.83548831715E+02  0.47000000000E+01 0.  1.
         11    1    6    6    0    0 -0.11431852857E+03 -0.16412477555E+02  0.12963749035E+02  0.11621598075E+03  0.00000000000E+00 0. -1.
        -12    1    6    6    0    0 -0.26692076221E+02 -0.17318536829E+02 -0.40960209197E+02  0.51866534378E+02  0.00000000000E+00 0.  1.
</event>
<event>
12    1  0.8747122E-002  0.1898575E+03  0.7818608E-02  0.1159268E+00
         21   -1    0    0  503  502  0.00000000000E+00  0.00000000000E+00  0.17941614343E+03  0.17941614343E+03  0.00000000000E+00 0.  1.
         21   -1    0    0  501  503 -0.00000000000E+00 -0.00000000000E+00 -0.46977213064E+03  0.46977213064E+03  0.00000000000E+00 0. -1.
          6    2    1    2  501    0  0.42947662278E+02  0.66684256385E+02 -0.39265307496E+03  0.43614483284E+03  0.17249517730E+03 0.  0.
         24    2    3    3    0    0 -0.26892135374E+02 -0.82845624455E+01 -0.13329336512E+03  0.15724078084E+03  0.78522105517E+02 0.  0.
         -6    2    1    2    0  502 -0.42947662278E+02 -0.66684256385E+02  0.10229708776E+03  0.21304344123E+03  0.16920851616E+03 0.  0.
        -24    2    5    5    0    0  0.53849382920E+01 -0.32014653495E+02 -0.94466896120E+01  0.86367542086E+02  0.79474378152E+02 0.  0.
          5    1    3    3  501    0  0.69839797652E+02  0.74968818830E+02 -0.25935970985E+03  0.27890405201E+03  0.47000000000E+01 0. -1.
        -13    1    4    4    0    0 -0.24166023525E+02  0.14523026754E+02 -0.72363360820E+01  0.29108066906E+02  0.00000000000E+00 0.  1.
         14    1    4    4    0    0 -0.27261118486E+01 -0.22807589199E+02 -0.12605702903E+03  0.12813271393E+03  0.00000000000E+00 0. -1.
         -5    1    5    5    0  502 -0.48332600570E+02 -0.34669602890E+02  0.11174377737E+03  0.12667589914E+03  0.47000000000E+01 0.  1.
         11    1    6    6    0    0  0.28504840308E+02  0.15350285635E+02  0.19834676872E+01  0.32435957426E+02  0.00000000000E+00 0. -1.
        -12    1    6    6    0    0 -0.23119902016E+02 -0.47364939130E+02 -0.11430157299E+02  0.53931584660E+02  0.00000000000E+00 0.  1.
</event>
<event>
12    1  0.8747122E-002  0.1839953E+03  0.7818608E-02  0.1164195E+00
         21   -1    0    0  501  502  0.00000000000E+00  0.00000000000E+00  0.14379594930E+03  0.14379594930E+03  0.00000000000E+00 0.  1.
         21   -1    0    0  502  503 -0.00000000000E+00 -0.00000000000E+00 -0.30483558200E+03  0.30483558200E+03  0.00000000000E+00 0.  1.
         -6    2    1    2    0  503 -0.97496280285E+01  0.64639381134E+02 -0.18825477819E+03  0.26263437666E+03  0.17106621364E+03 0.  0.
        -24    2    3    3    0    0 -0.30284995367E+02 -0.17166711714E+02 -0.14346963746E+03  0.16702194562E+03  0.78108363881E+02 0.  0.
          6    2    1    2  501    0  0.97496280285E+01 -0.64639381134E+02  0.27215145498E+02  0.18599715464E+03  0.17199119905E+03 0.  0.
         24    2    5    5    0    0 -0.52121872828E+02 -0.11272832401E+02  0.34882975023E+01  0.10078492279E+03  0.85449786802E+02 0.  0.
          5    1    5    5  501    0  0.61871500856E+02 -0.53366548733E+02  0.23726847996E+02  0.85212231855E+02  0.47000000000E+01 0. -1.
        -11    1    6    6    0    0 -0.39580325010E+01 -0.36206679707E+02 -0.20147279093E+02  0.41623341187E+02  0.00000000000E+00 0.  1.
         12    1    6    6    0    0 -0.48163840327E+02  0.24933847306E+02  0.23635576596E+02  0.59161581601E+02  0.00000000000E+00 0. -1.
         -5    1    3    3    0  503  0.20535367338E+02  0.81806092849E+02 -0.44785140730E+02  0.95612431039E+02  0.47000000000E+01 0.  1.
         13    1    4    4    0    0 -0.29694416069E+02  0.22977179823E+02 -0.10462479441E+03  0.11115780109E+03  0.00000000000E+00 0. -1.
        -14    1    4    4    0    0 -0.59057929810E+00 -0.40143891538E+02 -0.38844843057E+02  0.55864144528E+02  0.00000000000E+00 0.  1.
</event>
<event>
12    1  0.8747122E-002  0.1823512E+03  0.7818608E-02  0.1165729E+00
         21   -1    0    0  501  502  0.00000000000E+00  0.00000000000E+00  0.49059896480E+03  0.49059896480E+03  0.00000000000E+00 0. -1.
         21   -1    0    0  502  503 -0.00000000000E+00 -0.00000000000E+00 -0.18689423804E+03  0.18689423804E+03  0.00000000000E+00 0. -1.
         -6    2    1    2    0  503 -0.39384142909E+02 -0.44426592659E+02 -0.11901797309E+03  0.21711679835E+03  0.17160883822E+03 0.  0.
        -24    2    3    3    0    0 -0.18335414103E+02 -0.70149411493E+01 -0.14518370407E+03  0.16662505515E+03  0.79373826080E+02 0.  0.
          6    2    1    2  501    0  0.39384142909E+02  0.44426592659E+02  0.42272269985E+03  0.46037640449E+03  0.17241554453E+03 0.  0.
         24    2    5    5    0    0 -0.30363016179E+02 -0.21638871810E+02  0.17399318075E+03  0.19369724245E+03  0.76516934463E+02 0.  0.
          5    1    5    5  501    0  0.69747159088E+02  0.66065464468E+02  0.24872951910E+03  0.26667916204E+03  0.47000000000E+01 0. -1.
        -11    1    6    6    0    0 -0.21639820259E+02 -0.27171965366E+02  0.17891416884E+03  0.18225497890E+03  0.00000000000E+00 0.  1.
         12    1    6    6    0    0 -0.87231959199E+01  0.55330935565E+01 -0.49209880869E+01  0.11442263549E+02  0.00000000000E+00 0. -1.
         -5    1    3    3    0  503 -0.21048728806E+02 -0.37411651509E+02  0.26165730979E+02  0.50491743193E+02  0.47000000000E+01 0.  1.
         11    1    4    4    0    0 -0.52879983000E+01  0.33754901713E+02 -0.93316145223E+02  0.99374339117E+02  0.00000000000E+00 0. -1.
        -12    1    4    4    0    0 -0.13047415803E+02 -0.40769842863E+02 -0.51867558851E+02  0.67250716036E+02  0.00000000000E+00 0.  1.
</event>
<event>
12    1  0.8747122E-002  0.2434454E+03  0.7818608E-02  0.1118322E+00
         21   -1    0    0  503  502  0.00000000000E+00  0.00000000000E+00  0.42334159413E+03  0.42334159413E+03  0.00000000000E+00 0. -1.
         21   -1    0    0  501  503 -0.00000000000E+00 -0.00000000000E+00 -0.19510071516E+03  0.19510071516E+03  0.00000000000E+00 0.  1.
          6    2    1    2  501    0 -0.14238843363E+03 -0.96692656713E+02 -0.55115899702E+02  0.24486941667E+03  0.16522509775E+03 0.  0.
         24    2    3    3    0    0 -0.82249680990E+02  0.11894591001E+02 -0.32744558943E+02  0.11865362201E+03  0.78102397896E+02 0.  0.
         -6    2    1    2    0  502  0.14238843363E+03  0.96692656713E+02  0.28335677867E+03  0.37357289262E+03  0.17216766882E+03 0.  0.
        -24    2    5    5    0    0  0.11143601202E+03  0.31921653811E+02  0.89427451963E+02  0.16672993533E+03  0.79778602488E+02 0.  0.
          5    1    3    3  501    0 -0.60138752639E+02 -0.10858724771E+03 -0.22371340759E+02  0.12621579466E+03  0.47000000000E+01 0. -1.
        -11    1    4    4    0    0 -0.62565586448E+01  0.31602255410E+02  0.30732597389E+01  0.32361891145E+02  0.00000000000E+00 0.  1.
         12    1    4    4    0    0 -0.75993122345E+02 -0.19707664408E+02 -0.35817818682E+02  0.86291730862E+02  0.00000000000E+00 0. -1.
         -5    1    5    5    0  502  0.30952421611E+02  0.64771002901E+02  0.19392932671E+03  0.20684295729E+03  0.47000000000E+01 0.  1.
         11    1    6    6    0    0  0.35386939429E+02 -0.53133927509E+01  0.71823715814E+02  0.80244088742E+02  0.00000000000E+00 0. -1.
        -12    1    6    6    0    0  0.76049072588E+02  0.37235046562E+02  0.17603736149E+02  0.86485846590E+02  0.00000000000E+00 0.  1.
</event>
<event>
12    1  0.8747122E-002  0.1804160E+03  0.7818608E-02  0.1167936E+00
         21   -1    0    0  501  502  0.00000000000E+00  0.00000000000E+00  0.31547072721E+03  0.31547072721E+03  0.00000000000E+00 0. -1.
         21   -1    0    0  502  503 -0.00000000000E+00 -0.00000000000E+00 -0.27689067638E+03  0.27689067638E+03  0.00000000000E+00 0. -1.
         -6    2    1    2    0  503  0.40679679058E+02  0.22030415903E+02 -0.21610585200E+03  0.28151675604E+03  0.17438397045E+03 0.  0.
        -24    2    3    3    0    0  0.48814221662E+02  0.15826064391E+02 -0.23857591821E+03  0.25638393614E+03  0.78619090622E+02 0.  0.
          6    2    1    2  501    0 -0.40679679058E+02 -0.22030415903E+02  0.25468590282E+03  0.31084464755E+03  0.17210261562E+03 0.  0.
         24    2    5    5    0    0 -0.93203641521E+02 -0.17448865258E+02  0.16532727652E+03  0.20698507248E+03  0.80736176387E+02 0.  0.
          5    1    5    5  501    0  0.52523962463E+02 -0.45815506452E+01  0.89358626302E+02  0.10385957507E+03  0.47000000000E+01 0. -1.
        -11    1    6    6    0    0  0.45648046867E+01  0.15285253236E+02  0.56684978335E+01  0.16929509030E+02  0.00000000000E+00 0.  1.
         12    1    6    6    0    0 -0.97768446208E+02 -0.32734118494E+02  0.15965877869E+03  0.19005556345E+03  0.00000000000E+00 0. -1.
         -5    1    3    3    0  503 -0.81345426040E+01  0.62043515127E+01  0.22470066207E+02  0.25132819905E+02  0.47000000000E+01 0.  1.
         13    1    4    4    0    0  0.66533976976E+02  0.10039238746E+02 -0.13168705569E+03  0.14788183473E+03  0.00000000000E+00 0. -1.
        -14    1    4    4    0    0 -0.17719755315E+02  0.57868256449E+01 -0.10688886252E+03  0.10850210141E+03  0.00000000000E+00 0.  1.
</event>
<event>
12    1  0.8747122E-002  0.1725281E+03  0.7818608E-02  0.1175591E+00
         21   -1    0    0  501  502  0.00000000000E+00  0.00000000000E+00  0.10781272338E+03  0.10781272338E+03  0.00000000000E+00 0.  1.
         21   -1    0    0  502  503 -0.00000000000E+00 -0.00000000000E+00 -0.27592625004E+03  0.27592625004E+03  0.00000000000E+00 0.  1.
         -6    2    1    2    0  503 -0.13447403048E+01 -0.11062123857E+02 -0.10022764257E+03  0.19833550025E+03  0.17078410761E+03 0.  0.
        -24    2    3    3    0    0  0.10891927185E+02  0.24138459663E+02  0.75069951681E+01  0.84240542956E+02  0.79616674060E+02 0.  0.
          6    2    1    2  501    0  0.13447403048E+01  0.11062123857E+02 -0.67885884090E+02  0.18540347317E+03  0.17216787068E+03 0.  0.
         24    2    5    5    0    0 -0.20384956473E+02  0.55186924249E+02  0.27807183907E+01  0.99176815824E+02  0.79794519510E+02 0.  0.
          5    1    5    5  501    0  0.21729696778E+02 -0.44124800392E+02 -0.70666602481E+02  0.86226657350E+02  0.47000000000E+01 0. -1.
        -11    1    6    6    0    0 -0.28970525022E+02 -0.11671283248E+02 -0.37337796747E+01  0.31455544557E+02  0.00000000000E+00 0.  1.
         12    1    6    6    0    0  0.85855685493E+01  0.66858207497E+02  0.65144980655E+01  0.67721271267E+02  0.00000000000E+00 0. -1.
         -5    1    3    3    0  503 -0.12236667490E+02 -0.35200583520E+02 -0.10773463774E+03  0.11409495729E+03  0.47000000000E+01 0.  1.
         13    1    4    4    0    0 -0.18677254162E+01  0.36413137492E+02 -0.27058407879E+02  0.45404431692E+02  0.00000000000E+00 0. -1.
        -14    1    4    4    0    0  0.12759652601E+02 -0.12274677829E+02  0.34565403048E+02  0.38836111265E+02  0.00000000000E+00 0.  1.
</event>
<event>
12    1  0.8747122E-002  0.2514322E+03  0.7818608E-02  0.1112507E+00
         21   -1    0    0  501  502  0.00000000000E+00  0.00000000000E+00  0.27608013926E+03  0.27608013926E+03  0.00000000000E+00 0.  1.
         21   -1    0    0  502  503 -0.00000000000E+00 -0.00000000000E+00 -0.31613369345E+03  0.31613369345E+03  0.00000000000E+00 0.  1.
         -6    2    1    2    0  503 -0.14116590770E+03  0.11598638706E+03  0.13596103605E+03  0.28583835167E+03  0.17273535967E+03 0.  0.
        -24    2    3    3    0    0 -0.38804229984E+02  0.69315414346E+02  0.43425759335E+01  0.11262864697E+03  0.79724269969E+02 0.  0.
          6    2    1    2  501    0  0.14116590770E+03 -0.11598638706E+03 -0.17601459023E+03  0.30637548104E+03  0.17176770339E+03 0.  0.
         24    2    5    5    0    0  0.11560094180E+02 -0.12740392231E+02 -0.53688633806E+02  0.10035817118E+03  0.83026138965E+02 0.  0.
          5    1    5    5  501    0  0.12960581352E+03 -0.10324599483E+03 -0.12232595642E+03  0.20601730986E+03  0.47000000000E+01 0. -1.
        -11    1    6    6    0    0  0.17224562786E+02 -0.46593833229E+02 -0.38380132225E+02  0.62775038094E+02  0.00000000000E+00 0.  1.
         12    1    6    6    0    0 -0.56644686062E+01  0.33853440999E+02 -0.15308501581E+02  0.37583133088E+02  0.00000000000E+00 0. -1.
         -5    1    3    3    0  503 -0.10236167771E+03  0.46670972716E+02  0.13161846011E+03  0.17320970470E+03  0.47000000000E+01 0.  1.
         11    1    4    4    0    0 -0.58355756868E+02  0.39762193291E+02  0.20720085894E+02  0.73591768116E+02  0.00000000000E+00 0. -1.
        -12    1    4    4    0    0  0.19551526884E+02  0.29553221055E+02 -0.16377509960E+02  0.39036878854E+02  0.00000000000E+00 0.  1.
</event>
<event>
12    1  0.8747122E-002  0.2489618E+03  0.7818608E-02  0.1114312E+00
         21   -1    0    0  501  502  0.00000000000E+00  0.00000000000E+00  0.10452824607E+03  0.10452824607E+03  0.00000000000E+00 0.  1.
         21   -1    0    0  502  503 -0.00000000000E+00 -0.00000000000E+00 -0.82898449598E+03  0.82898449598E+03  0.00000000000E+00 0.  1.
         -6    2    1    2    0  503 -0.16827490281E+03 -0.55793152636E+02 -0.61514443568E+03  0.66361484050E+03  0.17479319491E+03 0.  0.
        -24    2    3    3    0    0 -0.13758803550E+03 -0.63100885038E+02 -0.29124875441E+03  0.33815272424E+03  0.81297224789E+02 0.  0.
          6    2    1    2  501    0  0.16827490281E+03  0.55793152636E+02 -0.10931181422E+03  0.26989790155E+03  0.17165804885E+03 0.  0.
         24    2    5    5    0    0  0.29649010740E+02 -0.91375117194E+01 -0.71799148203E+02  0.11221968733E+03  0.80471004620E+02 0.  0.
          5    1    5    5  501    0  0.13862589207E+03  0.64930664356E+02 -0.37512666022E+02  0.15767821422E+03  0.47000000000E+01 0. -1.
        -11    1    6    6    0    0  0.25501868576E+02  0.96565479597E+01  0.93439014331E+01  0.28825383143E+02  0.00000000000E+00 0.  1.
         12    1    6    6    0    0  0.41471421646E+01 -0.18794059679E+02 -0.81143049636E+02  0.83394304192E+02  0.00000000000E+00 0. -1.
         -5    1    3    3    0  503 -0.30686867316E+02  0.73077324015E+01 -0.32389568127E+03  0.32546211627E+03  0.47000000000E+01 0.  1.
         11    1    4    4    0    0 -0.25172902179E+02 -0.33317651176E+01 -0.64610661141E+01  0.26201546486E+02  0.00000000000E+00 0. -1.
        -12    1    4    4    0    0 -0.11241513332E+03 -0.59769119920E+02 -0.28478768830E+03  0.31195117775E+03  0.00000000000E+00 0.  1.
</event>
<event>
12    1  0.8747122E-002  0.2299132E+03  0.7818608E-02  0.1127078E+00
         21   -1    0    0  501  502  0.00000000000E+00  0.00000000000E+00  0.15379634943E+03  0.15379634943E+03  0.00000000000E+00 0.  1.
         21   -1    0    0  502  503 -0.00000000000E+00 -0.00000000000E+00 -0.59663291042E+03  0.59663291042E+03  0.00000000000E+00 0.  1.
         -6    2    1    2    0  503 -0.14734914838E+03 -0.41916190526E+02 -0.46783806233E+03  0.52127970166E+03  0.17143901609E+03 0.  0.
        -24    2    3    3    0    0 -0.15897323327E+03 -0.74391847085E+02 -0.36555422105E+03  0.41323405479E+03  0.79535273355E+02 0.  0.
          6    2    1    2  501    0  0.14734914838E+03  0.41916190526E+02  0.25001501340E+02  0.22914955819E+03  0.16856958916E+03 0.  0.
         24    2    5    5    0    0  0.14463966673E+03  0.64786753265E+02 -0.20353079925E+02  0.17806597988E+03  0.78583005400E+02 0.  0.
          5    1    5    5  501    0  0.27094816519E+01 -0.22870562738E+02  0.45354581266E+02  0.51083578306E+02  0.47000000000E+01 0. -1.
        -13    1    6    6    0    0  0.38410514736E+02  0.80404608439E+01  0.28081878369E+02  0.48255658172E+02  0.00000000000E+00 0.  1.
         14    1    6    6    0    0  0.10622915199E+03  0.56746292421E+02 -0.48434958295E+02  0.12981032171E+03  0.00000000000E+00 0. -1.
         -5    1    3    3    0  503  0.11624084885E+02  0.32475656558E+02 -0.10228384129E+03  0.10804564687E+03  0.47000000000E+01 0.  1.
         13    1    4    4    0    0 -0.50598522723E+01 -0.29724322967E+02 -0.37439245873E+02  0.48071141159E+02  0.00000000000E+00 0. -1.
        -14    1    4    4    0    0 -0.15391338099E+03 -0.44667524118E+02 -0.32811497517E+03  0.36516291363E+03  0.00000000000E+00 0.  1.
</event>
<event>
12    1  0.8747122E-002  0.2082761E+03  0.7818608E-02  0.1143823E+00
         21   -1    0    0  503  502  0.00000000000E+00  0.00000000000E+00  0.78251773172E+03  0.78251773172E+03  0.00000000000E+00 0. -1.
         21   -1    0    0  501  503 -0.00000000000E+00 -0.00000000000E+00 -0.71410068372E+02  0.71410068372E+02  0.00000000000E+00 0.  1.
          6    2    1    2  501    0  0.48973791509E+02  0.96128822431E+02  0.56754133067E+03  0.60455115949E+03  0.17815655943E+03 0.  0.
         24    2    3    3    0    0  0.51518552641E+02 -0.15716207928E+02  0.27959989340E+03  0.29560432277E+03  0.79401856350E+02 0.  0.
         -6    2    1    2    0  502 -0.48973791509E+02 -0.96128822431E+02  0.14356633268E+03  0.24937664060E+03  0.17302668650E+03 0.  0.
        -24    2    5    5    0    0 -0.11576570896E+02 -0.12570412590E+03  0.82545131607E+02  0.17179489233E+03  0.82245012099E+02 0.  0.
          5    1    3    3  501    0 -0.25447611316E+01  0.11184503036E+03  0.28794143727E+03  0.30894683672E+03  0.47000000000E+01 0. -1.
        -13    1    4    4    0    0  0.21886710453E+02 -0.19962086563E+02  0.23638426100E+02  0.37898392880E+02  0.00000000000E+00 0.  1.
         14    1    4    4    0    0  0.29631842188E+02  0.42458786350E+01  0.25596146730E+03  0.25770592989E+03  0.00000000000E+00 0. -1.
         -5    1    5    5    0  502 -0.37397220613E+02  0.29575303471E+02  0.61021201069E+02  0.77581748272E+02  0.47000000000E+01 0.  1.
         11    1    6    6    0    0 -0.18108579952E+02 -0.26227596903E+02  0.62429983741E+02  0.70095009644E+02  0.00000000000E+00 0. -1.
        -12    1    6    6    0    0  0.65320090555E+01 -0.99476528999E+02  0.20115147866E+02  0.10169988268E+03  0.00000000000E+00 0.  1.
</event>
<event>
12    1  0.8747122E-002  0.1949809E+03  0.7818608E-02  0.1154086E+00
         21   -1    0    0  503  502  0.00000000000E+00  0.00000000000E+00  0.10214211964E+04  0.10214211964E+04  0.00000000000E+00 0.  1.
         21   -1    0    0  501  503 -0.00000000000E+00 -0.00000000000E+00 -0.37440262256E+02  0.37440262256E+02  0.00000000000E+00 0.  1.
          6    2    1    2  501    0 -0.51439154232E+02 -0.74339795692E+02  0.44841438966E+03  0.48897140000E+03  0.17275755657E+03 0.  0.
         24    2    3    3    0    0 -0.18999345350E+02 -0.11602256277E+03  0.32757137162E+03  0.35700580115E+03  0.79548276858E+02 0.  0.
         -6    2    1    2    0  502  0.51439154232E+02  0.74339795692E+02  0.53556654453E+03  0.56989005870E+03  0.17254206321E+03 0.  0.
        -24    2    5    5    0    0  0.28829193130E+02 -0.25299644449E+02  0.21394727846E+03  0.23239891706E+03  0.82247336181E+02 0.  0.
          5    1    3    3  501    0 -0.32439808882E+02  0.41682767081E+02  0.12084301804E+03  0.13196559885E+03  0.47000000000E+01 0. -1.
        -11    1    4    4    0    0 -0.36033035899E+02 -0.45857456995E+02  0.79224557146E+02  0.98375893862E+02  0.00000000000E+00 0.  1.
         12    1    4    4    0    0  0.17033690549E+02 -0.70165105777E+02  0.24834681448E+03  0.25862990729E+03  0.00000000000E+00 0. -1.
         -5    1    5    5    0  502  0.22609961101E+02  0.99639440141E+02  0.32161926607E+03  0.33749114163E+03  0.47000000000E+01 0.  1.
         11    1    6    6    0    0 -0.18074810988E+02 -0.20725126975E+02  0.23392612733E+02  0.36103241002E+02  0.00000000000E+00 0. -1.
        -12    1    6    6    0    0  0.46904004118E+02 -0.45745174738E+01  0.19055466572E+03  0.19629567606E+03  0.00000000000E+00 0.  1.
</event>
<event>
12    1  0.8747122E-002  0.2140040E+03  0.7818608E-02  0.1138438E+00
         21   -1    0    0  501  502  0.00000000000E+00  0.00000000000E+00  0.60905328058E+03  0.60905328058E+03  0.00000000000E+00 0.  1.
         21   -1    0    0  502  503 -0.00000000000E+00 -0.00000000000E+00 -0.75612453565E+02  0.75612453565E+02  0.00000000000E+00 0.  1.
         -6    2    1    2    0  503  0.79731193974E+02  0.99884464787E+02  0.24108318870E+03  0.32236444775E+03  0.17165012002E+03 0.  0.
        -24    2    3    3    0    0  0.48803302514E+02  0.23535824822E+02  0.21549381253E+03  0.23597836399E+03  0.79451291036E+02 0.  0.
          6    2    1    2  501    0 -0.79731193974E+02 -0.99884464787E+02  0.29235763831E+03  0.36230128639E+03  0.17162535897E+03 0.  0.
         24    2    5    5    0    0 -0.78359692828E+02 -0.45356730153E+02  0.84335854448E+02  0.14719594610E+03  0.79728512917E+02 0.  0.
          5    1    5    5  501    0 -0.13715011463E+01 -0.54527734634E+02  0.20802178386E+03  0.21510534029E+03  0.47000000000E+01 0. -1.
        -11    1    6    6    0    0 -0.13075473054E+02 -0.46793829595E+02  0.60699009442E+02  0.77749599555E+02  0.00000000000E+00 0.  1.
         12    1    6    6    0    0 -0.65284219774E+02  0.14370994418E+01  0.23636845006E+02  0.69446346543E+02  0.00000000000E+00 0. -1.
         -5    1    3    3    0  503  0.30927891460E+02  0.76348639965E+02  0.25589376169E+02  0.86386083759E+02  0.47000000000E+01 0.  1.
         11    1    4    4    0    0  0.10393152752E+02 -0.10011757769E+02 -0.10373461283E+00  0.14431343618E+02  0.00000000000E+00 0. -1.
        -12    1    4    4    0    0  0.38410149762E+02  0.33547582591E+02  0.21559754714E+03  0.22154702037E+03  0.00000000000E+00 0.  1.
</event>
<event>
12    1  0.8747122E-002  0.1838037E+03  0.7818608E-02  0.1164216E+00
         21   -1    0    0  501  502  0.00000000000E+00  0.00000000000E+00  0.29428387845E+03  0.29428387845E+03  0.00000000000E+00 0. -1.
         21   -1    0    0  502  503 -0.00000000000E+00 -0.00000000000E+00 -0.21004615547E+03  0.21004615547E+03  0.00000000000E+00 0. -1.
         -6    2    1    2    0  503 -0.30536021388E+02 -0.56423450760E+02 -0.12780371390E+03  0.22371400225E+03  0.17204101580E+03 0.  0.
        -24    2    3    3    0    0 -0.46008565573E+02  0.24199401371E+02 -0.27751534812E+02  0.94207352035E+02  0.73501553454E+02 0.  0.
          6    2    1    2  501    0  0.30536021388E+02  0.56423450760E+02  0.21204143688E+03  0.28061603167E+03  0.17224323465E+03 0.  0.
         24    2    5    5    0    0 -0.19888374617E+02 -0.24065469862E+02  0.12419266326E+03  0.15115336106E+03  0.80304586848E+02 0.  0.
          5    1    5    5  501    0  0.50424396006E+02  0.80488920622E+02  0.87848773622E+02  0.12946267061E+03  0.47000000000E+01 0. -1.
        -13    1    6    6    0    0 -0.26263339120E+02 -0.29714594798E+02  0.16221770678E+02  0.42847006542E+02  0.00000000000E+00 0.  1.
         14    1    6    6    0    0  0.63749645022E+01  0.56491249365E+01  0.10797089258E+03  0.10830635452E+03  0.00000000000E+00 0. -1.
         -5    1    3    3    0  503  0.15472544185E+02 -0.80622852131E+02 -0.10005217909E+03  0.12950665022E+03  0.47000000000E+01 0.  1.
         13    1    4    4    0    0 -0.23576754307E+02  0.14382289889E+02 -0.52545113451E+02  0.59360782960E+02  0.00000000000E+00 0. -1.
        -14    1    4    4    0    0 -0.22431811266E+02  0.98171114816E+01  0.24793578639E+02  0.34846569074E+02  0.00000000000E+00 0.  1.
</event>
<event>
12    1  0.8747122E-002  0.1821401E+03  0.7818608E-02  0.1166066E+00
         21   -1    0    0  501  502  0.00000000000E+00  0.00000000000E+00  0.11119124840E+04  0.11119124840E+04  0.00000000000E+00 0. -1.
         21   -1    0    0  502  503 -0.00000000000E+00 -0.00000000000E+00 -0.39562171347E+02  0.39562171347E+02  0.00000000000E+00 0. -1.
         -6    2    1    2    0  503  0.54873174213E+02 -0.12259701274E+02  0.24900525992E+03  0.30851036979E+03  0.17324451876E+03 0.  0.
        -24    2    3    3    0    0  0.61122731169E+01 -0.69292052694E+02  0.15035136242E+03  0.18447410060E+03  0.81156719751E+02 0.  0.
          6    2    1    2  501    0 -0.54873174213E+02  0.12259701274E+02  0.82334505272E+03  0.84296428554E+03  0.17184395634E+03 0.  0.
         24    2    5    5    0    0 -0.81325200982E+02 -0.37868598285E+02  0.46627008253E+03  0.48138831776E+03  0.79240794831E+02 0.  0.
          5    1    5    5  501    0  0.26452026769E+02  0.50128299559E+02  0.35707497019E+03  0.36157596778E+03  0.47000000000E+01 0. -1.
        -13    1    6    6    0    0 -0.19296047805E+02 -0.51639599190E+02  0.18547975614E+03  0.19349864497E+03  0.00000000000E+00 0.  1.
         14    1    6    6    0    0 -0.62029153177E+02  0.13771000905E+02  0.28079032638E+03  0.28788967279E+03  0.00000000000E+00 0. -1.
         -5    1    3    3    0  503  0.48760901096E+02  0.57032351419E+02  0.98653897495E+02  0.12403626919E+03  0.47000000000E+01 0.  1.
         13    1    4    4    0    0  0.85912090071E+01 -0.81703045102E+02  0.86169138633E+02  0.11905594023E+03  0.00000000000E+00 0. -1.
        -14    1    4    4    0    0 -0.24789358902E+01  0.12410992408E+02  0.64182223792E+02  0.65418160373E+02  0.00000000000E+00 0.  1.
</event>
<event>
12    1  0.8747122E-002  0.2044595E+03  0.7818608E-02  0.1146038E+00
         21   -1    0    0  501  502  0.00000000000E+00  0.00000000000E+00  0.16910669860E+03  0.16910669860E+03  0.00000000000E+00 0. -1.
         21   -1    0    0  502  503 -0.00000000000E+00 -0.00000000000E+00 -0.24729466965E+03  0.24729466965E+03  0.00000000000E+00 0.  1.
         -6    2    1    2    0  503 -0.39532210494E+02  0.10216005475E+03 -0.34132489241E+02  0.20724938434E+03  0.17259144832E+03 0.  0.
        -24    2    3    3    0    0 -0.89583523645E+02  0.49505793149E+02 -0.63337968298E+01  0.12932337769E+03  0.78793323129E+02 0.  0.
          6    2    1    2  501    0  0.39532210494E+02 -0.10216005475E+03 -0.44055481816E+02  0.20915198391E+03  0.17263891347E+03 0.  0.
         24    2    5    5    0    0  0.30292177911E+02 -0.66865785397E+02 -0.96331490807E+02  0.14523066691E+03  0.80146997390E+02 0.  0.
          5    1    5    5  501    0  0.92400325831E+01 -0.35294269355E+02  0.52276008991E+02  0.63921317004E+02  0.47000000000E+01 0. -1.
        -11    1    6    6    0    0 -0.15862652826E+02  0.10023124823E+02 -0.20476773313E+02  0.27773819168E+02  0.00000000000E+00 0.  1.
         12    1    6    6    0    0  0.46154830737E+02 -0.76888910220E+02 -0.75854717494E+02  0.11745684774E+03  0.00000000000E+00 0. -1.
         -5    1    3    3    0  503  0.50051313151E+02  0.52654261603E+02 -0.27798692411E+02  0.77926006653E+02  0.47000000000E+01 0.  1.
         13    1    4    4    0    0 -0.20984085657E+02 -0.11719307109E+02  0.22538250980E+02  0.32949154272E+02  0.00000000000E+00 0. -1.
        -14    1    4    4    0    0 -0.68599437988E+02  0.61225100258E+02 -0.28872047810E+02  0.96374223414E+02  0.00000000000E+00 0.  1.
</event>
<event>
12    1  0.8747122E-002  0.2164724E+03  0.7818608E-02  0.1136591E+00
         21   -1    0    0  501  502  0.00000000000E+00  0.00000000000E+00  0.10104500310E+03  0.10104500310E+03  0.00000000000E+00 0.  1.
         21   -1    0    0  502  503 -0.00000000000E+00 -0.00000000000E+00 -0.52920284666E+03  0.52920284666E+03  0.00000000000E+00 0.  1.
         -6    2    1    2    0  503 -0.99292906906E+02  0.85265013091E+02 -0.32526034477E+03  0.39056429168E+03  0.17209581703E+03 0.  0.
        -24    2    3    3    0    0 -0.39970320152E+02 -0.10528649603E+01 -0.65788322501E+02  0.11071117716E+03  0.79562091175E+02 0.  0.
          6    2    1    2  501    0  0.99292906906E+02 -0.85265013091E+02 -0.10289749879E+03  0.23968355807E+03  0.17242711194E+03 0.  0.
         24    2    5    5    0    0 -0.10987065755E+02 -0.66696158933E+02 -0.61749192827E+02  0.12042858837E+03  0.78236748729E+02 0.  0.
          5    1    5    5  501    0  0.11027997266E+03 -0.18568854158E+02 -0.41148305967E+02  0.11925496970E+03  0.47000000000E+01 0. -1.
        -11    1    6    6    0    0  0.19272130835E+02 -0.47338253889E+00  0.67864039810E+01  0.20437573167E+02  0.00000000000E+00 0.  1.
         12    1    6    6    0    0 -0.30259196590E+02 -0.66222776394E+02 -0.68535596808E+02  0.99991015204E+02  0.00000000000E+00 0. -1.
         -5    1    3    3    0  503 -0.59322586754E+02  0.86317878052E+02 -0.25947202227E+03  0.27985311453E+03  0.47000000000E+01 0.  1.
         11    1    4    4    0    0  0.24171665131E+02 -0.50803054253E+01 -0.20338948596E+02  0.31996120521E+02  0.00000000000E+00 0. -1.
        -12    1    4    4    0    0 -0.64141985283E+02  0.40274404650E+01 -0.45449373905E+02  0.78715056635E+02  0.00000000000E+00 0.  1.
</event>
<event>
12    1  0.8747122E-002  0.1755307E+03  0.7818608E-02  0.1172313E+00
         21   -1    0    0  501  502  0.00000000000E+00  0.00000000000E+00  0.67216838124E+03  0.67216838124E+03  0.00000000000E+00 0.  1.
         21   -1    0    0  502  503 -0.00000000000E+00 -0.00000000000E+00 -0.10869930736E+03  0.10869930736E+03  0.00000000000E+00 0.  1.
         -6    2    1    2    0  503 -0.35024217391E+02  0.61389633230E+01 -0.15606148596E+02  0.17577335502E+03  0.17143027091E+03 0.  0.
        -24    2    3    3    0    0 -0.37137858740E+02 -0.61417448499E+02 -0.12143492033E+02  0.10793224470E+03  0.79690535923E+02 0.  0.
          6    2    1    2  501    0  0.35024217391E+02 -0.61389633230E+01  0.57907522248E+03  0.60509433359E+03  0.17189140925E+03 0.  0.
         24    2    5    5    0    0 -0.32834654096E+02  0.39512682360E+01  0.15718432048E+03  0.17763595853E+03  0.75854440403E+02 0.  0.
          5    1    5    5  501    0  0.67858871487E+02 -0.10090231559E+02  0.42189090200E+03  0.42745837506E+03  0.47000000000E+01 0. -1.
        -13    1    6    6    0    0 -0.13770711821E+02 -0.19977553734E+02  0.14090712144E+03  0.14298094988E+03  0.00000000000E+00 0.  1.
         14    1    6    6    0    0 -0.19063942275E+02  0.23928821970E+02  0.16277199041E+02  0.34655008650E+02  0.00000000000E+00 0. -1.
         -5    1    3    3    0  503  0.21136413495E+01  0.67556411822E+02 -0.34626565634E+01  0.67841110313E+02  0.47000000000E+01 0.  1.
         11    1    4    4    0    0 -0.20426787454E+01 -0.58021896599E+02  0.18794599718E+02  0.61024175537E+02  0.00000000000E+00 0. -1.
        -12    1    4    4    0    0 -0.35095179995E+02 -0.33955518999E+01 -0.30938091751E+02  0.46908069165E+02  0.00000000000E+00 0.  1.
</event>
<event>
12    1  0.8747122E-002  0.1798068E+03  0.7818608E-02  0.1168183E+00
         21   -1    0    0  503  502  0.00000000000E+00  0.00000000000E+00  0.15627211505E+03  0.15627211505E+03  0.00000000000E+00 0. -1.
         21   -1    0    0  501  503 -0.00000000000E+00 -0.00000000000E+00 -0.61417296604E+03  0.61417296604E+03  0.00000000000E+00 0. -1.
          6    2    1    2  501    0  0.19090870830E+02  0.47723137606E+02 -0.54283336523E+03  0.57158826038E+03  0.17147337340E+03 0.  0.
         24    2    3    3    0    0  0.21057332749E+02  0.19020874846E+01 -0.12105598948E+03  0.14729864195E+03  0.81211502473E+02 0.  0.
         -6    2    1    2    0  502 -0.19090870830E+02 -0.47723137606E+02  0.84932514236E+02  0.19885682071E+03  0.17230363884E+03 0.  0.
        -24    2    5    5    0    0  0.15053646730E+02  0.27938296401E+02  0.77678317439E+01  0.85424114234E+02  0.78928951577E+02 0.  0.
          5    1    3    3  501    0 -0.19664619190E+01  0.45821050122E+02 -0.42177737575E+03  0.42428961842E+03  0.47000000000E+01 0. -1.
        -13    1    4    4    0    0 -0.17926608978E+02  0.23246403874E+02 -0.16468943550E+02  0.33659838148E+02  0.00000000000E+00 0.  1.
         14    1    4    4    0    0  0.38983941726E+02 -0.21344316390E+02 -0.10458704593E+03  0.11363880381E+03  0.00000000000E+00 0. -1.
         -5    1    5    5    0  502 -0.34144517560E+02 -0.75661434007E+02  0.77164682492E+02  0.11343270648E+03  0.47000000000E+01 0.  1.
         13    1    6    6    0    0  0.28101556198E+02  0.13455240444E+02  0.38193162085E+02  0.49289538304E+02  0.00000000000E+00 0. -1.
        -14    1    6    6    0    0 -0.13047909467E+02  0.14483055957E+02 -0.30425330341E+02  0.36134575930E+02  0.00000000000E+00 0.  1.
</event>
<event>
12    1  0.8747122E-002  0.2116780E+03  0.7818608E-02  0.1140848E+00
         21   -1    0    0  503  502  0.00000000000E+00  0.00000000000E+00  0.17635183313E+04  0.17635183313E+04  0.00000000000E+00 0.  1.
         21   -1    0    0  501  503 -0.00000000000E+00 -0.00000000000E+00 -0.29240505611E+02  0.29240505611E+02  0.00000000000E+00 0.  1.
          6    2    1    2  501    0 -0.12312773492E+03  0.86682326948E+01  0.12121866600E+04  0.12305299998E+04  0.17196512577E+03 0.  0.
         24    2    3    3    0    0 -0.25763292764E+02  0.67057462283E+02  0.43596419199E+03  0.44603490964E+03  0.61007486531E+02 0.  0.
         -6    2    1    2    0  502  0.12312773492E+03 -0.86682326948E+01  0.52209116570E+03  0.56222883707E+03  0.16818591667E+03 0.  0.
        -24    2    5    5    0    0  0.13305402022E+03 -0.25419543780E+01  0.52657195176E+03  0.54887856105E+03  0.79245318950E+02 0.  0.
          5    1    3    3  501    0 -0.97364442157E+02 -0.58389229588E+02  0.77622246800E+03  0.78449509020E+03  0.47000000000E+01 0. -1.
        -13    1    4    4    0    0  0.85532217110E+00  0.35673735300E+01  0.20490032601E+03  0.20493316308E+03  0.00000000000E+00 0.  1.
         14    1    4    4    0    0 -0.26618614935E+02  0.63490088753E+02  0.23106386598E+03  0.24110174655E+03  0.00000000000E+00 0. -1.
         -5    1    5    5    0  502 -0.99262853014E+01 -0.61262783168E+01 -0.44807860632E+01  0.13350276014E+02  0.47000000000E+01 0.  1.
         11    1    6    6    0    0  0.33312749475E+01 -0.22528698803E+02  0.10050705572E+03  0.10305487815E+03  0.00000000000E+00 0. -1.
        -12    1    6    6    0    0  0.12972274528E+03  0.19986744425E+02  0.42606489604E+03  0.44582368290E+03  0.00000000000E+00 0.  1.
</event>
<event>
12    1  0.8747122E-002  0.2230436E+03  0.7818608E-02  0.1131675E+00
         21   -1    0    0  501  502  0.00000000000E+00  0.00000000000E+00  0.21757165337E+03  0.21757165337E+03  0.00000000000E+00 0.  1.
         21   -1    0    0  502  503 -0.00000000000E+00 -0.00000000000E+00 -0.23105814332E+03  0.23105814332E+03  0.00000000000E+00 0. -1.
         -6    2    1    2    0  503 -0.14231906263E+03 -0.16716099410E+02  0.17201182719E+02  0.22370589071E+03  0.17092191574E+03 0.  0.
        -24    2    3    3    0    0 -0.32900475205E+02 -0.36813552715E+02 -0.35573247434E+02  0.10048427985E+03  0.79962213774E+02 0.  0.
          6    2    1    2  501    0  0.14231906263E+03  0.16716099410E+02 -0.30687672670E+02  0.22492390599E+03  0.17063084910E+03 0.  0.
         24    2    5    5    0    0  0.42413996351E+02 -0.35487756040E+02  0.20311152049E+02  0.10111261848E+03  0.82175974609E+02 0.  0.
          5    1    5    5  501    0  0.99905066281E+02  0.52203855450E+02 -0.50998824719E+02  0.12381128751E+03  0.47000000000E+01 0. -1.
        -11    1    6    6    0    0 -0.16504537262E+02 -0.36356358865E+02  0.11358620659E+02  0.41511478454E+02  0.00000000000E+00 0.  1.
         12    1    6    6    0    0  0.58918533613E+02  0.86860282499E+00  0.89525313899E+01  0.59601140025E+02  0.00000000000E+00 0. -1.
         -5    1    3    3    0  503 -0.10941858743E+03  0.20097453305E+02  0.52774430153E+02  0.12322161086E+03  0.47000000000E+01 0.  1.
         13    1    4    4    0    0 -0.50551961511E+02  0.21385525345E+01 -0.13542409578E+02  0.52378154576E+02  0.00000000000E+00 0. -1.
        -14    1    4    4    0    0  0.17651486307E+02 -0.38952105250E+02 -0.22030837856E+02  0.48106125274E+02  0.00000000000E+00 0.  1.
</event>
<event>
12    1  0.8747122E-002  0.1781113E+03  0.7818608E-02  0.1170505E+00
         21   -1    0    0  503  502  0.00000000000E+00  0.00000000000E+00  0.96882734090E+02  0.96882734090E+02  0.00000000000E+00 0.  1.
         21   -1    0    0  501  503 -0.00000000000E+00 -0.00000000000E+00 -0.37682169954E+03  0.37682169954E+03  0.00000000000E+00 0.  1.
          6    2    1    2  501    0  0.20612992626E+02  0.29411038525E+02 -0.23222928343E+03  0.29266718074E+03  0.17445266965E+03 0.  0.
         24    2    3    3    0    0 -0.14337538748E+02  0.10584946751E+02 -0.26995013283E+02  0.83575915937E+02  0.77062292124E+02 0.  0.
         -6    2    1    2    0  502 -0.20612992626E+02 -0.29411038525E+02 -0.47709682016E+02  0.18103725289E+03  0.17090455969E+03 0.  0.
        -24    2    5    5    0    0  0.37091639430E+02 -0.48015736370E+02 -0.20890505066E+01  0.10501560227E+03  0.85689042087E+02 0.  0.
          5    1    3    3  501    0  0.34950531374E+02  0.18826091774E+02 -0.20523427015E+03  0.20909126480E+03  0.47000000000E+01 0. -1.
        -11    1    4    4    0    0  0.56637059349E+01 -0.11739950911E+02 -0.46182302359E+02  0.47986550860E+02  0.00000000000E+00 0.  1.
         12    1    4    4    0    0 -0.20001244683E+02  0.22324897662E+02  0.19187289076E+02  0.35589365076E+02  0.00000000000E+00 0. -1.
         -5    1    5    5    0  502 -0.57704632056E+02  0.18604697846E+02 -0.45620631510E+02  0.76021650614E+02  0.47000000000E+01 0.  1.
         11    1    6    6    0    0 -0.20485482032E+02 -0.34297427740E+01 -0.21250031062E+02  0.29715011858E+02  0.00000000000E+00 0. -1.
        -12    1    6    6    0    0  0.57577121462E+02 -0.44585993596E+02  0.19160980556E+02  0.75300590414E+02  0.00000000000E+00 0.  1.
</event>
<event>
12    1  0.8747122E-002  0.1872837E+03  0.7818608E-02  0.1161539E+00
         21   -1    0    0  501  502  0.00000000000E+00  0.00000000000E+00  0.31675139957E+03  0.31675139957E+03  0.00000000000E+00 0.  1.
         21   -1    0    0  502  503 -0.00000000000E+00 -0.00000000000E+00 -0.13999327956E+03  0.13999327956E+03  0.00000000000E+00 0.  1.
         -6    2    1    2    0  503  0.61180943803E+02  0.23435451090E+02 -0.19221128281E+02  0.18566711471E+03  0.17265716742E+03 0.  0.
        -24    2    3    3    0    0  0.61798191555E+02  0.39939247930E+02  0.45200079143E+02  0.11899674445E+03  0.81871961198E+02 0.  0.
          6    2    1    2  501    0 -0.61180943803E+02 -0.23435451090E+02  0.19597924830E+03  0.27107756442E+03  0.17545042581E+03 0.  0.
         24    2    5    5    0    0 -0.10747111628E+03  0.45776069323E+00  0.14428860281E+03  0.19754064533E+03  0.81565037102E+02 0.  0.
          5    1    5    5  501    0  0.46290172482E+02 -0.23893211783E+02  0.51690645490E+02  0.73536919087E+02  0.47000000000E+01 0. -1.
        -11    1    6    6    0    0 -0.79487102108E+02 -0.36614104791E+02  0.82766206177E+02  0.12045346386E+03  0.00000000000E+00 0.  1.
         12    1    6    6    0    0 -0.27984014177E+02  0.37071865484E+02  0.61522396630E+02  0.77087181470E+02  0.00000000000E+00 0. -1.
         -5    1    3    3    0  503 -0.61724775220E+00 -0.16503796840E+02 -0.64421207424E+02  0.66670370262E+02  0.47000000000E+01 0.  1.
         13    1    4    4    0    0  0.58090651095E+02  0.28745341190E+01  0.55454251443E+02  0.80361437855E+02  0.00000000000E+00 0. -1.
        -14    1    4    4    0    0  0.37075404605E+01  0.37064713811E+02 -0.10254172300E+02  0.38635306595E+02  0.00000000000E+00 0.  1.
</event>
<event>
12    1  0.8747122E-002  0.2183133E+03  0.7818608E-02  0.1135361E+00
         21   -1    0    0  501  502  0.00000000000E+00  0.00000000000E+00  0.75133341219E+02  0.75133341219E+02  0.00000000000E+00 0.  1.
         21   -1    0    0  502  503 -0.00000000000E+00 -0.00000000000E+00 -0.12575492565E+04  0.12575492565E+04  0.00000000000E+00 0. -1.
         -6    2    1    2    0  503 -0.87536710134E+02 -0.10016510580E+03 -0.10622967955E+04  0.10844976561E+04  0.17310390088E+03 0.  0.
        -24    2    3    3    0    0 -0.13116253609E+03 -0.75368996006E+02 -0.75725449389E+03  0.77531978582E+03  0.69298667633E+02 0.  0.
          6    2    1    2  501    0  0.87536710134E+02  0.10016510580E+03 -0.12011911978E+03  0.24818494153E+03  0.17167247370E+03 0.  0.
         24    2    5    5    0    0 -0.10247012221E+02  0.84925074900E+02 -0.80319652863E+02  0.14141414746E+03  0.78926832320E+02 0.  0.
          5    1    5    5  501    0  0.97783722356E+02  0.15240030902E+02 -0.39799466919E+02  0.10677079407E+03  0.47000000000E+01 0. -1.
        -11    1    6    6    0    0  0.17150793082E+02  0.83543397050E+02 -0.74781576073E+02  0.11342809623E+03  0.00000000000E+00 0.  1.
         12    1    6    6    0    0 -0.27397805303E+02  0.13816778496E+01 -0.55380767896E+01  0.27986051233E+02  0.00000000000E+00 0. -1.
         -5    1    3    3    0  503  0.43625825960E+02 -0.24796109796E+02 -0.30504230157E+03  0.30917787033E+03  0.47000000000E+01 0.  1.
         13    1    4    4    0    0 -0.43822321430E+02 -0.50362501142E+02 -0.44968143229E+03  0.45460990742E+03  0.00000000000E+00 0. -1.
        -14    1    4    4    0    0 -0.87340214665E+02 -0.25006494864E+02 -0.30757306160E+03  0.32070987840E+03  0.00000000000E+00 0.  1.
</event>
<event>
12    1  0.8747122E-002  0.1837632E+03  0.7818608E-02  0.1164388E+00
         21   -1    0    0  501  502  0.00000000000E+00  0.00000000000E+00  0.45166698154E+03  0.45166698154E+03  0.00000000000E+00 0. -1.
         21   -1    0    0  502  503 -0.00000000000E+00 -0.00000000000E+00 -0.15644211472E+03  0.15644211472E+03  0.00000000000E+00 0. -1.
         -6    2    1    2    0  503  0.53726906146E+02 -0.35340025846E+02 -0.72640047954E+02  0.19689930064E+03  0.17133960475E+03 0.  0.
        -24    2    3    3    0    0 -0.99305689320E+01 -0.56916351699E+02 -0.82741172135E+02  0.12876755561E+03  0.79980588410E+02 0.  0.
          6    2    1    2  501    0 -0.53726906146E+02  0.35340025846E+02  0.36786491478E+03  0.41120979562E+03  0.17214355236E+03 0.  0.
         24    2    5    5    0    0 -0.57754065441E+02  0.44466334374E+02  0.12171830725E+03  0.16481630968E+03  0.83882552704E+02 0.  0.
          5    1    5    5  501    0  0.40271592949E+01 -0.91263085280E+01  0.24614660753E+03  0.24639348594E+03  0.47000000000E+01 0. -1.
        -13    1    6    6    0    0  0.60325228384E+01 -0.19422711735E+02  0.28846388495E+02  0.35295144031E+02  0.00000000000E+00 0.  1.
         14    1    6    6    0    0 -0.63786588279E+02  0.63889046109E+02  0.92871918756E+02  0.12952116565E+03  0.00000000000E+00 0. -1.
         -5    1    3    3    0  503  0.63657475078E+02  0.21576325853E+02  0.10101124181E+02  0.68131745026E+02  0.47000000000E+01 0.  1.
         13    1    4    4    0    0  0.61711870360E+01 -0.36190046963E+01 -0.71638493357E+02  0.71994822556E+02  0.00000000000E+00 0. -1.
        -14    1    4    4    0    0 -0.16101755968E+02 -0.53297347003E+02 -0.11102678778E+02  0.56772733058E+02  0.00000000000E+00 0.  1.
</event>
<event>
12    1  0.8747122E-002  0.2041412E+03  0.7818608E-02  0.1146852E+00
         21   -1    0    0  503  502  0.00000000000E+00  0.00000000000E+00  0.16155660212E+03  0.16155660212E+03  0.00000000000E+00 0. -1.
         21   -1    0    0  501  503 -0.00000000000E+00 -0.00000000000E+00 -0.26796059734E+03  0.26796059734E+03  0.00000000000E+00 0. -1.
          6    2    1    2  501    0 -0.45147553832E+02 -0.10027015732E+03 -0.10160205968E+03  0.22802767553E+03  0.17199196554E+03 0.  0.
         24    2    3    3    0    0 -0.38226100560E+02 -0.14008345035E+03 -0.92558522925E+02  0.18635177873E+03  0.71241121864E+02 0.  0.
         -6    2    1    2    0  502  0.45147553832E+02  0.10027015732E+03 -0.48019355343E+01  0.20148952393E+03  0.16876778010E+03 0.  0.
        -24    2    5    5    0    0  0.76409426054E+02  0.31263542703E+02  0.29483449879E+02  0.11820209889E+03  0.79288415759E+02 0.  0.
          5    1    3    3  501    0 -0.69214532718E+01  0.39813293027E+02 -0.90435367566E+01  0.41675896801E+02  0.47000000000E+01 0. -1.
        -11    1    4    4    0    0  0.17641877591E+02 -0.11812230029E+02 -0.70027895970E+01  0.22356289615E+02  0.00000000000E+00 0.  1.
         12    1    4    4    0    0 -0.55867978152E+02 -0.12827122032E+03 -0.85555733328E+02  0.16399548911E+03  0.00000000000E+00 0. -1.
         -5    1    5    5    0  502 -0.31261872222E+02  0.69006614617E+02 -0.34285385413E+02  0.83287425033E+02  0.47000000000E+01 0.  1.
         13    1    6    6    0    0 -0.15593160104E+02  0.10226244878E+02  0.12122766589E+02  0.22241497165E+02  0.00000000000E+00 0. -1.
        -14    1    6    6    0    0  0.92002586159E+02  0.21037297825E+02  0.17360683289E+02  0.95960601728E+02  0.00000000000E+00 0.  1.
</event>
<event>
12    1  0.8747122E-002  0.2903701E+03  0.7818608E-02  0.1090190E+00
         21   -1    0    0  501  502  0.00000000000E+00  0.00000000000E+00  0.11578381261E+04  0.11578381261E+04  0.00000000000E+00 0.  1.
         21   -1    0    0  502  503 -0.00000000000E+00 -0.00000000000E+00 -0.72817026627E+02  0.72817026627E+02  0.00000000000E+00 0.  1.
         -6    2    1    2    0  503 -0.81412032879E+02  0.21898827167E+03  0.56014548240E+03  0.63081418100E+03  0.17198775325E+03 0.  0.
        -24    2    3    3    0    0 -0.24727805167E+02  0.34158499621E+02  0.24368221476E+03  0.25994191717E+03  0.80065667235E+02 0.  0.
          6    2    1    2  501    0  0.81412032879E+02 -0.21898827167E+03  0.52487561711E+03  0.59984097176E+03  0.17242678372E+03 0.  0.
         24    2    5    5    0    0  0.95858405869E+02 -0.12491410616E+03  0.23057918801E+03  0.29050115136E+03  0.80198435792E+02 0.  0.
          5    1    5    5  501    0 -0.14446372989E+02 -0.94074165514E+02  0.29429642910E+03  0.30933982040E+03  0.47000000000E+01 0. -1.
        -13    1    6    6    0    0  0.75788012682E+02 -0.41624383546E+02  0.14859031945E+03  0.17191711726E+03  0.00000000000E+00 0.  1.
         14    1    6    6    0    0  0.20070393186E+02 -0.83289722613E+02  0.81988868560E+02  0.11858403410E+03  0.00000000000E+00 0. -1.
         -5    1    3    3    0  503 -0.56684227712E+02  0.18482977205E+03  0.31646326764E+03  0.37087226383E+03  0.47000000000E+01 0.  1.
         13    1    4    4    0    0 -0.18297484276E+02  0.29228996881E+02  0.28860138665E+02  0.44967096785E+02  0.00000000000E+00 0. -1.
        -14    1    4    4    0    0 -0.64303208906E+01  0.49295027399E+01  0.21482207609E+03  0.21497482039E+03  0.00000000000E+00 0.  1.
</event>
<event>
12    1  0.8747122E-002  0.2061955E+03  0.7818608E-02  0.1145771E+00
         21   -1    0    0  501  502  0.00000000000E+00  0.00000000000E+00  0.28089475030E+03  0.28089475030E+03  0.00000000000E+00 0.  1.
         21   -1    0    0  502  503 -0.00000000000E+00 -0.00000000000E+00 -0.15016489308E+03  0.15016489308E+03  0.00000000000E+00 0.  1.
         -6    2    1    2    0  503 -0.48588023270E+02  0.89521348437E+02  0.34525538717E+02  0.20352537537E+03  0.17278801395E+03 0.  0.
        -24    2    3    3    0    0 -0.87682575442E+01  0.46122292663E+02  0.85244320179E+02  0.12565640480E+03  0.79490815342E+02 0.  0.
          6    2    1    2  501    0  0.48588023270E+02 -0.89521348437E+02  0.96204318505E+02  0.22753426801E+03  0.17928107649E+03 0.  0.
         24    2    5    5    0    0  0.21700478162E+02 -0.12435880860E+03  0.39151802469E+02  0.15532853210E+03  0.81596968191E+02 0.  0.
          5    1    5    5  501    0  0.26887545108E+02  0.34837460164E+02  0.57052516036E+02  0.72205735913E+02  0.47000000000E+01 0. -1.
        -11    1    6    6    0    0 -0.23602182809E+02 -0.33145270105E+02  0.34551476613E+02  0.53380488007E+02  0.00000000000E+00 0.  1.
         12    1    6    6    0    0  0.45302660971E+02 -0.91213538496E+02  0.46003258558E+01  0.10194804409E+03  0.00000000000E+00 0. -1.
         -5    1    3    3    0  503 -0.39819765726E+02  0.43399055773E+02 -0.50718781462E+02  0.77868970569E+02  0.47000000000E+01 0.  1.
         11    1    4    4    0    0  0.48902673348E+01 -0.22125656649E+02  0.22895180087E+02  0.32212554508E+02  0.00000000000E+00 0. -1.
        -12    1    4    4    0    0 -0.13658524879E+02  0.68247949312E+02  0.62349140092E+02  0.93443850292E+02  0.00000000000E+00 0.  1.
</event>
<event>
12    1  0.8747122E-002  0.2723568E+03  0.7818608E-02  0.1100244E+00
         21   -1    0    0  503  502  0.00000000000E+00  0.00000000000E+00  0.54180296329E+03  0.54180296329E+03  0.00000000000E+00 0.  1.
         21   -1    0    0  501  503 -0.00000000000E+00 -0.00000000000E+00 -0.16998056112E+03  0.16998056112E+03  0.00000000000E+00 0. -1.
          6    2    1    2  501    0 -0.12812578309E+03  0.16650209997E+03  0.26984065787E+02  0.27369025944E+03  0.17331777959E+03 0.  0.
         24    2    3    3    0    0 -0.10713901715E+03  0.92754275955E+02 -0.44634264774E+02  0.16866425712E+03  0.79832883795E+02 0.  0.
         -6    2    1    2    0  502  0.12812578309E+03 -0.16650209997E+03  0.34483833639E+03  0.43809326497E+03  0.16992076088E+03 0.  0.
        -24    2    5    5    0    0  0.11516972965E+03 -0.18268743496E+03  0.34746679155E+03  0.41667310703E+03  0.79022410605E+02 0.  0.
          5    1    3    3  501    0 -0.20986765943E+02  0.73747824016E+02  0.71618330561E+02  0.10502600232E+03  0.47000000000E+01 0. -1.
        -11    1    4    4    0    0 -0.79549891324E+02  0.39665734518E+02  0.76356851786E+01  0.89218044098E+02  0.00000000000E+00 0.  1.
         12    1    4    4    0    0 -0.27589125822E+02  0.53088541437E+02 -0.52269949953E+02  0.79446213022E+02  0.00000000000E+00 0. -1.
         -5    1    5    5    0  502  0.12956053443E+02  0.16185334986E+02 -0.26284551582E+01  0.21420157935E+02  0.47000000000E+01 0.  1.
         13    1    6    6    0    0  0.51446462379E+02 -0.21959364342E+02  0.68063769468E+02  0.88100107195E+02  0.00000000000E+00 0. -1.
        -14    1    6    6    0    0  0.63723267267E+02 -0.16072807062E+03  0.27940302208E+03  0.32857299984E+03  0.00000000000E+00 0.  1.
</event>
<event>
12    1  0.8747122E-002  0.1732736E+03  0.7818608E-02  0.1174621E+00
         21   -1    0    0  503  502  0.00000000000E+00  0.00000000000E+00  0.12124730703E+03  0.12124730703E+03  0.00000000000E+00 0.  1.
         21   -1    0    0  501  503 -0.00000000000E+00 -0.00000000000E+00 -0.41583853764E+03  0.41583853764E+03  0.00000000000E+00 0.  1.
          6    2    1    2  501    0 -0.67807603350E+01 -0.16983926106E+02 -0.31836081004E+03  0.36218945920E+03  0.17173574621E+03 0.  0.
         24    2    3    3    0    0 -0.38969507621E+02 -0.37194191223E+02 -0.30807383681E+03  0.32253492495E+03  0.78849594178E+02 0.  0.
         -6    2    1    2    0  502  0.67807603350E+01  0.16983926106E+02  0.23769579433E+02  0.17489638547E+03  0.17230589162E+03 0.  0.
        -24    2    5    5    0    0  0.69654671324E+01 -0.76771734539E+01 -0.48575646967E+02  0.98318805653E+02  0.84850087462E+02 0.  0.
          5    1    3    3  501    0  0.32188747286E+02  0.20210265117E+02 -0.10286973231E+02  0.39654534245E+02  0.47000000000E+01 0. -1.
        -11    1    4    4    0    0 -0.15676116858E+02 -0.58247219708E+02 -0.15604389780E+03  0.16729667445E+03  0.00000000000E+00 0.  1.
         12    1    4    4    0    0 -0.23293390763E+02  0.21053028485E+02 -0.15202993902E+03  0.15523825050E+03  0.00000000000E+00 0. -1.
         -5    1    5    5    0  502 -0.18470679743E+00  0.24661099560E+02  0.72345226400E+02  0.76577579820E+02  0.47000000000E+01 0.  1.
         13    1    6    6    0    0  0.38870585866E+02 -0.18469567342E+02 -0.48226124811E+02  0.64635953444E+02  0.00000000000E+00 0. -1.
        -14    1    6    6    0    0 -0.31905118733E+02  0.10792393888E+02 -0.34952215615E+00  0.33682852209E+02  0.00000000000E+00 0.  1.
</event>
<event>
12    1  0.8747122E-002  0.2078958E+03  0.7818608E-02  0.1143879E+00
         21   -1    0    0  503  502  0.00000000000E+00  0.00000000000E+00  0.71878751833E+02  0.71878751833E+02  0.00000000000E+00 0. -1.
         21   -1    0    0  501  503 -0.00000000000E+00 -0.00000000000E+00 -0.91809685723E+03  0.91809685723E+03  0.00000000000E+00 0. -1.
          6    2    1    2  501    0 -0.77349190161E+02 -0.80365077222E+02 -0.72008004550E+03  0.74949045678E+03  0.17544010382E+03 0.  0.
         24    2    3    3    0    0 -0.11712211056E+03 -0.48347642154E+02 -0.59973183422E+03  0.61867461943E+03  0.83814846316E+02 0.  0.
         -6    2    1    2    0  502  0.77349190161E+02  0.80365077222E+02 -0.12613805990E+03  0.24048515228E+03  0.17169989941E+03 0.  0.
        -24    2    5    5    0    0  0.10895706837E+03  0.82536817031E+02 -0.13408633380E+03  0.20748455416E+03  0.79916996859E+02 0.  0.
          5    1    3    3  501    0  0.39772920395E+02 -0.32017435069E+02 -0.12034821128E+03  0.13081583736E+03  0.47000000000E+01 0. -1.
        -11    1    4    4    0    0 -0.27678526060E+02 -0.26287764602E+01 -0.33190180060E+02  0.43296643322E+02  0.00000000000E+00 0.  1.
         12    1    4    4    0    0 -0.89443584495E+02 -0.45718865693E+02 -0.56654165416E+03  0.57537797610E+03  0.00000000000E+00 0. -1.
         -5    1    5    5    0  502 -0.31607878210E+02 -0.21717398082E+01  0.79482739027E+01  0.33000598128E+02  0.47000000000E+01 0.  1.
         11    1    6    6    0    0  0.13520125956E+02  0.73407215830E+01  0.10499325386E+02  0.18625676707E+02  0.00000000000E+00 0. -1.
        -12    1    6    6    0    0  0.95436942415E+02  0.75196095448E+02 -0.14458565919E+03  0.18885887745E+03  0.00000000000E+00 0.  1.
</event>
<event>
12    1  0.8747122E-002  0.1747930E+03  0.7818608E-02  0.1173576E+00
         21   -1    0    0  503  502  0.00000000000E+00  0.00000000000E+00  0.37643167458E+03  0.37643167458E+03  0.00000000000E+00 0.  1.
         21   -1    0    0  501  503 -0.00000000000E+00 -0.00000000000E+00 -0.80027376280E+02  0.80027376280E+02  0.00000000000E+00 0.  1.
          6    2    1    2  501    0 -0.50029057546E+01  0.30018003243E+02  0.14304182835E+03  0.22392378968E+03  0.16957237200E+03 0.  0.
         24    2    3    3    0    0 -0.26759224760E+02 -0.30993382785E+02  0.13451526210E+03  0.15842173648E+03  0.72982497664E+02 0.  0.
         -6    2    1    2    0  502  0.50029057546E+01 -0.30018003243E+02  0.15336246995E+03  0.23253526117E+03  0.17212347578E+03 0.  0.
        -24    2    5    5    0    0 -0.15314975636E+02 -0.18397852709E+02  0.55183917870E+01  0.82776102353E+02  0.79046827955E+02 0.  0.
          5    1    3    3  501    0  0.21756319006E+02  0.61011386028E+02  0.85265662450E+01  0.65502053202E+02  0.47000000000E+01 0. -1.
        -13    1    4    4    0    0  0.19385598359E+02  0.96628348421E+01  0.27656193833E+02  0.35128860760E+02  0.00000000000E+00 0.  1.
         14    1    4    4    0    0 -0.46144823120E+02 -0.40656217627E+02  0.10685906827E+03  0.12329287572E+03  0.00000000000E+00 0. -1.
         -5    1    5    5    0  502  0.20317881391E+02 -0.11620150534E+02  0.14784407816E+03  0.14975915882E+03  0.47000000000E+01 0.  1.
         13    1    6    6    0    0  0.17166383039E+02  0.23292929671E+02 -0.35542510126E+01  0.29152666766E+02  0.00000000000E+00 0. -1.
        -14    1    6    6    0    0 -0.32481358675E+02 -0.41690782380E+02  0.90726427996E+01  0.53623435587E+02  0.00000000000E+00 0.  1.
</event>
<event>
12    1  0.8747122E-002  0.1902872E+03  0.7818608E-02  0.1158910E+00
         21   -1    0    0  501  502  0.00000000000E+00  0.00000000000E+00  0.14198933758E+04  0.14198933758E+04  0.00000000000E+00 0. -1.
         21   -1    0    0  502  503 -0.00000000000E+00 -0.00000000000E+00 -0.55525071544E+02  0.55525071544E+02  0.00000000000E+00 0. -1.
         -6    2    1    2    0  503 -0.78414709351E+02 -0.11322325091E+02  0.13852632676E+03  0.23536937937E+03  0.17300907448E+03 0.  0.
        -24    2    3    3    0    0 -0.69058491732E+02 -0.26590992561E+02  0.13760276467E+02  0.10923719347E+03  0.79166047409E+02 0.  0.
          6    2    1    2  501    0  0.78414709351E+02  0.11322325091E+02  0.12258419775E+04  0.12400490680E+04  0.16957616434E+03 0.  0.
         24    2    5    5    0    0  0.13893722438E+02  0.21232489077E+02  0.30515276566E+03  0.31703667159E+03  0.82159519377E+02 0.  0.
          5    1    5    5  501    0  0.64520986913E+02 -0.99101639867E+01  0.92068921186E+03  0.92301239642E+03  0.47000000000E+01 0. -1.
        -13    1    6    6    0    0 -0.29467451111E+02  0.29288838632E+02  0.16209795965E+03  0.16733772816E+03  0.00000000000E+00 0.  1.
         14    1    6    6    0    0  0.43361173549E+02 -0.80563495551E+01  0.14305480601E+03  0.14969894343E+03  0.00000000000E+00 0. -1.
         -5    1    3    3    0  503 -0.93562176190E+01  0.15268667470E+02  0.12476605030E+03  0.12613218590E+03  0.47000000000E+01 0.  1.
         11    1    4    4    0    0  0.33332315838E+01 -0.36770853531E+01 -0.23948752787E+02  0.24457599015E+02  0.00000000000E+00 0. -1.
        -12    1    4    4    0    0 -0.72391723315E+02 -0.22913907208E+02  0.37709029254E+02  0.84779594452E+02  0.00000000000E+00 0.  1.
</event>
<event>
12    1  0.8747122E-002  0.1763097E+03  0.7818608E-02  0.1172635E+00
         21   -1    0    0  501  502  0.00000000000E+00  0.00000000000E+00  0.89425025916E+02  0.89425025916E+02  0.00000000000E+00 0.  1.
         21   -1    0    0  502  503 -0.00000000000E+00 -0.00000000000E+00 -0.36716589242E+03  0.36716589242E+03  0.00000000000E+00 0.  1.
         -6    2    1    2    0  503  0.27186580975E+02  0.80016619730E+01 -0.20474756072E+03  0.27019744915E+03  0.17401712883E+03 0.  0.
        -24    2    3    3    0    0  0.11725824516E+02 -0.36579476293E+02 -0.20431681612E+03  0.22277605714E+03  0.80051591093E+02 0.  0.
          6    2    1    2  501    0 -0.27186580975E+02 -0.80016619730E+01 -0.72993305783E+02  0.18639346918E+03  0.16914894586E+03 0.  0.
         24    2    5    5    0    0 -0.65172644687E+02 -0.29990321132E+02 -0.57162595426E+01  0.10592774282E+03  0.77724629939E+02 0.  0.
          5    1    5    5  501    0  0.37986063712E+02  0.21988659159E+02 -0.67277046241E+02  0.80465726361E+02  0.47000000000E+01 0. -1.
        -13    1    6    6    0    0 -0.70445488444E+01  0.13575879686E+01  0.30000308182E+02  0.30846186224E+02  0.00000000000E+00 0.  1.
         14    1    6    6    0    0 -0.58128095842E+02 -0.31347909101E+02 -0.35716567725E+02  0.75081556599E+02  0.00000000000E+00 0. -1.
         -5    1    3    3    0  503  0.15460756459E+02  0.44581138266E+02 -0.43074459282E+00  0.47421392011E+02  0.47000000000E+01 0.  1.
         13    1    4    4    0    0 -0.31669723848E+02 -0.31320056847E+02 -0.90879168576E+02  0.10120741401E+03  0.00000000000E+00 0. -1.
        -14    1    4    4    0    0  0.43395548365E+02 -0.52594194458E+01 -0.11343764755E+03  0.12156864313E+03  0.00000000000E+00 0.  1.
</event>
<event>
12    1  0.8747122E-002  0.2003709E+03  0.7818608E-02  0.1149658E+00
         21   -1    0    0  503  502  0.00000000000E+00  0.00000000000E+00  0.34359022763E+03  0.34359022763E+03  0.00000000000E+00 0.  1.
         21   -1    0    0  501  503 -0.00000000000E+00 -0.00000000000E+00 -0.23320175662E+03  0.23320175662E+03  0.00000000000E+00 0.  1.
          6    2    1    2  501    0 -0.10257122775E+03  0.12237003443E+02 -0.14914806503E+03  0.24890827971E+03  0.17041005074E+03 0.  0.
         24    2    3    3    0    0 -0.45037717410E+02 -0.56436706050E+02 -0.63849539297E+02  0.12511768363E+03  0.79775768930E+02 0.  0.
         -6    2    1    2    0  502  0.10257122775E+03 -0.12237003443E+02  0.25953653604E+03  0.32788370454E+03  0.17169131937E+03 0.  0.
        -24    2    5    5    0    0  0.13748948764E+03  0.40618319334E+01  0.19736557177E+03  0.25458803136E+03  0.83318900027E+02 0.  0.
          5    1    3    3  501    0 -0.57533510344E+02  0.68673709493E+02 -0.85298525730E+02  0.12379059609E+03  0.47000000000E+01 0. -1.
        -11    1    4    4    0    0 -0.10865762598E+02 -0.17428000561E+02 -0.69948115057E+02  0.72900883400E+02  0.00000000000E+00 0.  1.
         12    1    4    4    0    0 -0.34171954812E+02 -0.39008705489E+02  0.60985757607E+01  0.52216800226E+02  0.00000000000E+00 0. -1.
         -5    1    5    5    0  502 -0.34918259887E+02 -0.16298835376E+02  0.62170964269E+02  0.73295673176E+02  0.47000000000E+01 0.  1.
         13    1    6    6    0    0  0.73890661710E+02  0.40756554855E+02  0.12971941514E+03  0.15475158583E+03  0.00000000000E+00 0. -1.
        -14    1    6    6    0    0  0.63598825931E+02 -0.36694722922E+02  0.67646156630E+02  0.99836445535E+02  0.00000000000E+00 0.  1.
</event>
<event>
12    1  0.8747122E-002  0.2800739E+03  0.7818608E-02  0.1096708E+00
         21   -1    0    0  501  502  0.00000000000E+00  0.00000000000E+00  0.41007107668E+03  0.41007107668E+03  0.00000000000E+00 0.  1.
         21   -1    0    0  502  503 -0.00000000000E+00 -0.00000000000E+00 -0.26340063292E+03  0.26340063292E+03  0.00000000000E+00 0. -1.
         -6    2    1    2    0  503 -0.18624429900E+03  0.97904330354E+02 -0.10835379351E+03  0.30030308978E+03  0.18484913944E+03 0.  0.
        -24    2    3    3    0    0 -0.20234233528E+03  0.42405268562E+02 -0.72867480275E+02  0.23232764525E+03  0.76979462301E+02 0.  0.
          6    2    1    2  501    0  0.18624429900E+03 -0.97904330354E+02  0.25502423726E+03  0.37316861982E+03  0.17304698905E+03 0.  0.
         24    2    5    5    0    0  0.21020702894E+03 -0.75462359629E+02  0.20635032385E+03  0.31426960181E+03  0.79393726005E+02 0.  0.
          5    1    5    5  501    0 -0.23962729946E+02 -0.22441970725E+02  0.48673913407E+02  0.58899018013E+02  0.47000000000E+01 0. -1.
        -13    1    6    6    0    0  0.14014317768E+03 -0.79268977418E+02  0.10967132181E+03  0.19481139561E+03  0.00000000000E+00 0.  1.
         14    1    6    6    0    0  0.70063851261E+02  0.38066177891E+01  0.96679002040E+02  0.11945820620E+03  0.00000000000E+00 0. -1.
         -5    1    3    3    0  503  0.16098036284E+02  0.55499061792E+02 -0.35486313231E+02  0.67975444527E+02  0.47000000000E+01 0.  1.
         11    1    4    4    0    0 -0.13570432187E+03  0.58842019179E+02 -0.28590964744E+02  0.15065022223E+03  0.00000000000E+00 0. -1.
        -12    1    4    4    0    0 -0.66638013414E+02 -0.16436750616E+02 -0.44276515530E+02  0.81677423013E+02  0.00000000000E+00 0.  1.
</event>
<event>
12    1  0.8747122E-002  0.1748774E+03  0.7818608E-02  0.1172868E+00
         21   -1    0    0  503  502  0.00000000000E+00  0.00000000000E+00  0.16364563282E+03  0.16364563282E+03  0.00000000000E+00 0.  1.
         21   -1    0    0  501  503 -0.00000000000E+00 -0.00000000000E+00 -0.32701416455E+03  0.32701416455E+03  0.00000000000E+00 0.  1.
          6    2    1    2  501    0 -0.34918592856E+02 -0.86115430279E+00 -0.24232063737E+03  0.29883336564E+03  0.17135355092E+03 0.  0.
         24    2    3    3    0    0 -0.72194890048E+02  0.41197297066E+02 -0.18089619136E+03  0.21544578724E+03  0.82365865238E+02 0.  0.
         -6    2    1    2    0  502  0.34918592856E+02  0.86115430279E+00  0.78952105641E+02  0.19182643173E+03  0.17130059898E+03 0.  0.
        -24    2    5    5    0    0  0.13625819596E+02 -0.46370775920E+01 -0.27614213412E+02  0.82913241052E+02  0.76843316633E+02 0.  0.
          5    1    3    3  501    0  0.37276297193E+02 -0.42058451369E+02 -0.61424446013E+02  0.83387578403E+02  0.47000000000E+01 0. -1.
        -13    1    4    4    0    0 -0.37054886673E+02 -0.13227142360E+02 -0.12092824437E+03  0.12716785053E+03  0.00000000000E+00 0.  1.
         14    1    4    4    0    0 -0.35140003376E+02  0.54424439426E+02 -0.59967946988E+02  0.88277936712E+02  0.00000000000E+00 0. -1.
         -5    1    5    5    0  502  0.21292773259E+02  0.54982318947E+01  0.10656631905E+03  0.10891319068E+03  0.47000000000E+01 0.  1.
         13    1    6    6    0    0 -0.13274270636E+02 -0.34568987508E+02 -0.19534741365E+02  0.41866780130E+02  0.00000000000E+00 0. -1.
        -14    1    6    6    0    0  0.26900090232E+02  0.29931909916E+02 -0.80794720463E+01  0.41046460922E+02  0.00000000000E+00 0.  1.
</event>
<event>
12    1  0.8747122E-002  0.2494958E+03  0.7818608E-02  0.1115369E+00
         21   -1    0    0  503  502  0.00000000000E+00  0.00000000000E+00  0.19437308343E+03  0.19437308343E+03  0.00000000000E+00 0. -1.
         21   -1    0    0  501  503 -0.00000000000E+00 -0.00000000000E+00 -0.34689971641E+03  0.34689971641E+03  0.00000000000E+00 0.  1.
          6    2    1    2  501    0  0.15081701418E+03 -0.79867064075E+02 -0.16701549380E+03  0.29135669957E+03  0.16694319850E+03 0.  0.
         24    2    3    3    0    0  0.15666689319E+02 -0.57388017691E+01 -0.81854339044E+02  0.11518881980E+03  0.79309220063E+02 0.  0.
         -6    2    1    2    0  502 -0.15081701418E+03  0.79867064075E+02  0.14488860825E+02  0.24991610027E+03  0.18199892965E+03 0.  0.
        -24    2    5    5    0    0 -0.12614701359E+03  0.11002292241E+03  0.53721332756E+02  0.19442500571E+03  0.83048111122E+02 0.  0.
          5    1    3    3  501    0  0.13515032487E+03 -0.74128262306E+02 -0.85161154757E+02  0.17616787977E+03  0.47000000000E+01 0. -1.
        -13    1    4    4    0    0  0.28712593073E+02  0.29430884596E+02 -0.28746418801E+02  0.50169179413E+02  0.00000000000E+00 0.  1.
         14    1    4    4    0    0 -0.13045903754E+02 -0.35169686365E+02 -0.53107920242E+02  0.65019640388E+02  0.00000000000E+00 0. -1.
         -5    1    5    5    0  502 -0.24670000593E+02 -0.30155858331E+02 -0.39232471931E+02  0.55491094553E+02  0.47000000000E+01 0.  1.
         13    1    6    6    0    0  0.71026407759E+01  0.31278069362E+02  0.96699684071E+01  0.33500349520E+02  0.00000000000E+00 0. -1.
        -14    1    6    6    0    0 -0.13324965437E+03  0.78744853044E+02  0.44051364349E+02  0.16092465619E+03  0.00000000000E+00 0.  1.
</event>
<event>
12    1  0.8747122E-002  0.1928630E+03  0.7818608E-02  0.1156026E+00
         21   -1    0    0  501  502  0.00000000000E+00  0.00000000000E+00  0.44755773407E+03  0.44755773407E+03  0.00000000000E+00 0.  1.
         21   -1    0    0  502  503 -0.00000000000E+00 -0.00000000000E+00 -0.83051359916E+02  0.83051359916E+02  0.00000000000E+00 0.  1.
         -6    2    1    2    0  503 -0.41570017065E+02 -0.75881470718E+02  0.17017094500E+03  0.25720478597E+03  0.17236614368E+03 0.  0.
        -24    2    3    3    0    0  0.39264573893E+02 -0.38895247506E+02  0.55202114815E+02  0.11180143760E+03  0.79985879554E+02 0.  0.
          6    2    1    2  501    0  0.41570017065E+02  0.75881470718E+02  0.19433542915E+03  0.27340430801E+03  0.17174863231E+03 0.  0.
         24    2    5    5    0    0 -0.26355601103E+02  0.85177807879E+02  0.10141097432E+03  0.15783028068E+03  0.81708843602E+02 0.  0.
          5    1    5    5  501    0  0.67925618168E+02 -0.92963371607E+01  0.92924454832E+02  0.11557402733E+03  0.47000000000E+01 0. -1.
        -11    1    6    6    0    0  0.19532594462E+02  0.39263728704E+01 -0.13059243132E+00  0.19923747255E+02  0.00000000000E+00 0.  1.
         12    1    6    6    0    0 -0.45888195565E+02  0.81251435008E+02  0.10154156675E+03  0.13790653343E+03  0.00000000000E+00 0. -1.
         -5    1    3    3    0  503 -0.80834590959E+02 -0.36986223212E+02  0.11496883018E+03  0.14540334837E+03  0.47000000000E+01 0.  1.
         11    1    4    4    0    0  0.43575563581E+02 -0.13944228362E+02  0.69133057050E+02  0.82901452479E+02  0.00000000000E+00 0. -1.
        -12    1    4    4    0    0 -0.43109896879E+01 -0.24951019145E+02 -0.13930942236E+02  0.28899985122E+02  0.00000000000E+00 0.  1.
</event>
<event>
12    1  0.8747122E-002  0.3811278E+03  0.7818608E-02  0.1050565E+00
         21   -1    0    0  501  502  0.00000000000E+00  0.00000000000E+00  0.35974497832E+03  0.35974497832E+03  0.00000000000E+00 0.  1.
         21   -1    0    0  502  503 -0.00000000000E+00 -0.00000000000E+00 -0.62783152964E+03  0.62783152964E+03  0.00000000000E+00 0. -1.
         -6    2    1    2    0  503  0.33236392941E+03  0.71498153101E+02 -0.42943809891E+03  0.57417371676E+03  0.17228061049E+03 0.  0.
        -24    2    3    3    0    0  0.24021008718E+03  0.59200994041E+02 -0.20462524528E+03  0.33084994087E+03  0.79903370926E+02 0.  0.
          6    2    1    2  501    0 -0.33236392941E+03 -0.71498153101E+02  0.16135154759E+03  0.41340279120E+03  0.17114256745E+03 0.  0.
         24    2    5    5    0    0 -0.81689941614E+02 -0.61597335272E+02  0.71362654385E+02  0.14684029337E+03  0.77472350177E+02 0.  0.
          5    1    5    5  501    0 -0.25067398780E+03 -0.99008178292E+01  0.89988893207E+02  0.26656249783E+03  0.47000000000E+01 0. -1.
        -11    1    6    6    0    0 -0.56731026468E+02 -0.79039534353E+02  0.48166332623E+02  0.10856174719E+03  0.00000000000E+00 0.  1.
         12    1    6    6    0    0 -0.24958915146E+02  0.17442199082E+02  0.23196321762E+02  0.38278546176E+02  0.00000000000E+00 0. -1.
         -5    1    3    3    0  503  0.92153842226E+02  0.12297159060E+02 -0.22481285363E+03  0.24332377589E+03  0.47000000000E+01 0.  1.
         13    1    4    4    0    0  0.13676288824E+03 -0.59572057118E+01 -0.12124860800E+03  0.18286826089E+03  0.00000000000E+00 0. -1.
        -14    1    4    4    0    0  0.10344719895E+03  0.65158199753E+02 -0.83376637286E+02  0.14798167998E+03  0.00000000000E+00 0.  1.
</event>
<event>
12    1  0.8747122E-002  0.1898551E+03  0.7818608E-02  0.1159455E+00
         21   -1    0    0  501  502  0.00000000000E+00  0.00000000000E+00  0.44282700209E+03  0.44282700209E+03  0.00000000000E+00 0.  1.
         21   -1    0    0  502  503 -0.00000000000E+00 -0.00000000000E+00 -0.94845522723E+02  0.94845522723E+02  0.00000000000E+00 0. -1.
         -6    2    1    2    0  503 -0.74865817589E+02 -0.25894836990E+02  0.68339229480E+02  0.20178011676E+03  0.17253849428E+03 0.  0.
        -24    2    3    3    0    0 -0.59952968460E+02 -0.18346817433E+02 -0.25430958686E+02  0.10641605719E+03  0.82138172802E+02 0.  0.
          6    2    1    2  501    0  0.74865817589E+02  0.25894836990E+02  0.27964224989E+03  0.33589240806E+03  0.16837009426E+03 0.  0.
         24    2    5    5    0    0  0.82940930545E+02 -0.16730705032E+02  0.10902293458E+03  0.15978112211E+03  0.80528828795E+02 0.  0.
          5    1    5    5  501    0 -0.80751129554E+01  0.42625542022E+02  0.17061931531E+03  0.17611128595E+03  0.47000000000E+01 0. -1.
        -13    1    6    6    0    0  0.43527471014E+02 -0.41042625869E+02  0.93382063327E+02  0.11090242388E+03  0.00000000000E+00 0.  1.
         14    1    6    6    0    0  0.39413459530E+02  0.24311920837E+02  0.15640871252E+02  0.48878698228E+02  0.00000000000E+00 0. -1.
         -5    1    3    3    0  503 -0.14912849129E+02 -0.75480195568E+01  0.93770188166E+02  0.95364059567E+02  0.47000000000E+01 0.  1.
         11    1    4    4    0    0 -0.13065613568E+02 -0.22198448125E+02  0.26079284939E+02  0.36655292387E+02  0.00000000000E+00 0. -1.
        -12    1    4    4    0    0 -0.46887354892E+02  0.38516306917E+01 -0.51510243625E+02  0.69760764804E+02  0.00000000000E+00 0.  1.
</event>
<event>
12    1  0.8747122E-002  0.1803175E+03  0.7818608E-02  0.1167571E+00
         21   -1    0    0  503  502  0.00000000000E+00  0.00000000000E+00  0.14006784569E+03  0.14006784569E+03  0.00000000000E+00 0.  1.
         21   -1    0    0  501  503 -0.00000000000E+00 -0.00000000000E+00 -0.59214767516E+03  0.59214767516E+03  0.00000000000E+00 0.  1.
          6    2    1    2  501    0  0.62237841373E+01  0.51886392807E+02 -0.51173885224E+03  0.54257816882E+03  0.17257891859E+03 0.  0.
         24    2    3    3    0    0  0.29605680129E+02  0.63205016028E+02 -0.17835558362E+03  0.20815131870E+03  0.81516175806E+02 0.  0.
         -6    2    1    2    0  502 -0.62237841373E+01 -0.51886392807E+02  0.59659022769E+02  0.18963735202E+03  0.17225618432E+03 0.  0.
        -24    2    5    5    0    0 -0.50729290614E+02 -0.40551222269E+02  0.87789756982E+02  0.13557577227E+03  0.80348528561E+02 0.  0.
          5    1    3    3  501    0 -0.23381895992E+02 -0.11318623220E+02 -0.33338326862E+03  0.33442685013E+03  0.47000000000E+01 0. -1.
        -11    1    4    4    0    0 -0.25420303123E+02  0.13793610886E+02 -0.80186382888E+02  0.85242662515E+02  0.00000000000E+00 0.  1.
         12    1    4    4    0    0  0.55025983252E+02  0.49411405141E+02 -0.98169200736E+02  0.12290865618E+03  0.00000000000E+00 0. -1.
         -5    1    5    5    0  502  0.44505506477E+02 -0.11335170539E+02 -0.28130734213E+02  0.54061579752E+02  0.47000000000E+01 0.  1.
         11    1    6    6    0    0  0.41177420743E+01  0.20652329545E+02  0.19980803535E+02  0.29029416552E+02  0.00000000000E+00 0. -1.
        -12    1    6    6    0    0 -0.54847032689E+02 -0.61203551813E+02  0.67808953447E+02  0.10654635572E+03  0.00000000000E+00 0.  1.
</event>
<event>
12    1  0.8747122E-002  0.2522598E+03  0.7818608E-02  0.1111949E+00
         21   -1    0    0  503  502  0.00000000000E+00  0.00000000000E+00  0.50491975699E+03  0.50491975699E+03  0.00000000000E+00 0. -1.
         21   -1    0    0  501  503 -0.00000000000E+00 -0.00000000000E+00 -0.12681034226E+03  0.12681034226E+03  0.00000000000E+00 0.  1.
          6    2    1    2  501    0  0.17589824681E+03  0.53294984099E+02  0.16108629202E+03  0.29896287725E+03  0.17219018535E+03 0.  0.
         24    2    3    3    0    0  0.19766657492E+03  0.27367855796E+02  0.14699174657E+03  0.26199231731E+03  0.84925416678E+02 0.  0.
         -6    2    1    2    0  502 -0.17589824681E+03 -0.53294984099E+02  0.21702312271E+03  0.33276722201E+03  0.17278437339E+03 0.  0.
        -24    2    5    5    0    0 -0.16207368534E+03  0.13838299512E+02  0.17778579154E+03  0.25364924412E+03  0.79188214739E+02 0.  0.
          5    1    3    3  501    0 -0.21768328105E+02  0.25927128302E+02  0.14094545450E+02  0.36970559936E+02  0.47000000000E+01 0. -1.
        -11    1    4    4    0    0  0.13631811561E+03  0.52174850183E+02  0.74627898518E+02  0.16393342207E+03  0.00000000000E+00 0.  1.
         12    1    4    4    0    0  0.61348459311E+02 -0.24806994387E+02  0.72363848052E+02  0.98058895238E+02  0.00000000000E+00 0. -1.
         -5    1    5    5    0  502 -0.13824561475E+02 -0.67133283611E+02  0.39237331168E+02  0.79117977891E+02  0.47000000000E+01 0.  1.
         11    1    6    6    0    0 -0.10852415169E+03 -0.20019922979E+02  0.76851111696E+02  0.13447818480E+03  0.00000000000E+00 0. -1.
        -12    1    6    6    0    0 -0.53549533646E+02  0.33858222491E+02  0.10093467985E+03  0.11917105932E+03  0.00000000000E+00 0.  1.
</event>
<event>
12    1  0.8747122E-002  0.2545385E+03  0.7818608E-02  0.1111149E+00
         21   -1    0    0  503  502  0.00000000000E+00  0.00000000000E+00  0.84976648978E+02  0.84976648978E+02  0.00000000000E+00 0. -1.
         21   -1    0    0  501  503 -0.00000000000E+00 -0.00000000000E+00 -0.76938265492E+03  0.76938265492E+03  0.00000000000E+00 0.  1.
          6    2    1    2  501    0  0.96147802910E+02  0.15953355068E+03 -0.27631401889E+03  0.37568511570E+03  0.17347770845E+03 0.  0.
         24    2    3    3    0    0  0.13471405611E+03  0.14422332277E+03 -0.22606947454E+03  0.31035240413E+03  0.79138888555E+02 0.  0.
         -6    2    1    2    0  502 -0.96147802910E+02 -0.15953355068E+03 -0.40809198705E+03  0.47867418820E+03  0.16701663018E+03 0.  0.
        -24    2    5    5    0    0 -0.46974875142E+02 -0.31709076308E+02 -0.25568117194E+03  0.27371512000E+03  0.79592718374E+02 0.  0.
          5    1    3    3  501    0 -0.38566253204E+02  0.15310227903E+02 -0.50244544353E+02  0.65332711576E+02  0.47000000000E+01 0. -1.
        -11    1    4    4    0    0  0.17792194871E+02  0.69665987916E+02 -0.98325105893E+02  0.12181025622E+03  0.00000000000E+00 0.  1.
         12    1    4    4    0    0  0.11692186124E+03  0.74557334857E+02 -0.12774436865E+03  0.18854214791E+03  0.00000000000E+00 0. -1.
         -5    1    5    5    0  502 -0.49172927768E+02 -0.12782447437E+03 -0.15241081511E+03  0.20495906820E+03  0.47000000000E+01 0.  1.
         11    1    6    6    0    0 -0.61080714139E+02  0.91342264119E-01 -0.18705232241E+03  0.19677254204E+03  0.00000000000E+00 0. -1.
        -12    1    6    6    0    0  0.14105838997E+02 -0.31800418572E+02 -0.68628849532E+02  0.76942577961E+02  0.00000000000E+00 0.  1.
</event>
<event>
12    1  0.8747122E-002  0.2220142E+03  0.7818608E-02  0.1135162E+00
         21   -1    0    0  501  502  0.00000000000E+00  0.00000000000E+00  0.74727110396E+03  0.74727110396E+03  0.00000000000E+00 0. -1.
         21   -1    0    0  502  503 -0.00000000000E+00 -0.00000000000E+00 -0.12365937832E+03  0.12365937832E+03  0.00000000000E+00 0. -1.
         -6    2    1    2    0  503  0.10178930899E+03  0.56087268664E+02 -0.15641102386E+01  0.20750367593E+03  0.17189672468E+03 0.  0.
        -24    2    3    3    0    0  0.53101280192E+02  0.22978177145E+02 -0.64290708975E+02  0.12134421749E+03  0.85108056468E+02 0.  0.
          6    2    1    2  501    0 -0.10178930899E+03 -0.56087268664E+02  0.62517583589E+03  0.66342680634E+03  0.18916515659E+03 0.  0.
         24    2    5    5    0    0 -0.29831447878E+02 -0.99791610723E+01  0.12181540760E+03  0.15284116012E+03  0.86786679627E+02 0.  0.
          5    1    5    5  501    0 -0.71957861114E+02 -0.46108107592E+02  0.50336042829E+03  0.51058564623E+03  0.47000000000E+01 0. -1.
        -11    1    6    6    0    0 -0.58516454344E+02 -0.13145322387E+02  0.61102349072E+02  0.85618175592E+02  0.00000000000E+00 0.  1.
         12    1    6    6    0    0  0.28685006466E+02  0.31661613147E+01  0.60713058523E+02  0.67222984526E+02  0.00000000000E+00 0. -1.
         -5    1    3    3    0  503  0.48688028800E+02  0.33109091518E+02  0.62726598737E+02  0.86159458440E+02  0.47000000000E+01 0.  1.
         11    1    4    4    0    0  0.58071562291E+02  0.24124576389E+01 -0.49355560955E+01  0.58330832437E+02  0.00000000000E+00 0. -1.
        -12    1    4    4    0    0 -0.49702820995E+01  0.20565719507E+02 -0.59355152880E+02  0.63013385057E+02  0.00000000000E+00 0.  1.
</event>
<event>
12    1  0.8747122E-002  0.2572013E+03  0.7818608E-02  0.1109179E+00
         21   -1    0    0  503  502  0.00000000000E+00  0.00000000000E+00  0.18470898888E+03  0.18470898888E+03  0.00000000000E+00 0. -1.
         21   -1    0    0  501  503 -0.00000000000E+00 -0.00000000000E+00 -0.38437710530E+03  0.38437710530E+03  0.00000000000E+00 0. -1.
          6    2    1    2  501    0  0.16948253124E+03 -0.84625144411E+02 -0.17884959249E+03  0.31327254864E+03  0.17397347366E+03 0.  0.
         24    2    3    3    0    0  0.11653063737E+03 -0.10970879308E+03 -0.76029329519E+02  0.19483611433E+03  0.81026191905E+02 0.  0.
         -6    2    1    2    0  502 -0.16948253124E+03  0.84625144411E+02 -0.20818523928E+02  0.25581354553E+03  0.17064998001E+03 0.  0.
        -24    2    5    5    0    0 -0.95395291053E+02  0.27702654332E+02 -0.75248630988E+02  0.14758316352E+03  0.79061590402E+02 0.  0.
          5    1    3    3  501    0  0.52951893876E+02  0.25083648671E+02 -0.10282026297E+03  0.11843643432E+03  0.47000000000E+01 0. -1.
        -13    1    4    4    0    0 -0.89443748064E+01 -0.11702727248E+02  0.57928946575E+01  0.15827611766E+02  0.00000000000E+00 0.  1.
         14    1    4    4    0    0  0.12547501217E+03 -0.98006065835E+02 -0.81822224176E+02  0.17900850256E+03  0.00000000000E+00 0. -1.
         -5    1    5    5    0  502 -0.74087240189E+02  0.56922490079E+02  0.54430107061E+02  0.10823038201E+03  0.47000000000E+01 0.  1.
         11    1    6    6    0    0 -0.10020972826E+03  0.43982711718E+02 -0.69585168661E+02  0.12968640740E+03  0.00000000000E+00 0. -1.
        -12    1    6    6    0    0  0.48144372027E+01 -0.16280057385E+02 -0.56634623276E+01  0.17896756119E+02  0.00000000000E+00 0.  1.
</event>
<event>
12    1  0.8747122E-002  0.1756629E+03  0.7818608E-02  0.1173133E+00
         21   -1    0    0  501  502  0.00000000000E+00  0.00000000000E+00  0.10800006069E+04  0.10800006069E+04  0.00000000000E+00 0.  1.
         21   -1    0    0  502  503 -0.00000000000E+00 -0.00000000000E+00 -0.52695002039E+02  0.52695002039E+02  0.00000000000E+00 0.  1.
         -6    2    1    2    0  503  0.17073540954E+02  0.16270110718E+02  0.12840559133E+03  0.21759007916E+03  0.17407246870E+03 0.  0.
        -24    2    3    3    0    0  0.33688895780E+02 -0.26714706878E+02  0.48234115489E+02  0.12499785433E+03  0.10700147862E+03 0.  0.
          6    2    1    2  501    0 -0.17073540954E+02 -0.16270110718E+02  0.89890001352E+03  0.91510552977E+03  0.16982542216E+03 0.  0.
         24    2    5    5    0    0 -0.36407291067E+02  0.61363266805E+01  0.86682091982E+03  0.87120791500E+03  0.79130138185E+02 0.  0.
          5    1    5    5  501    0  0.19333750114E+02 -0.22406437398E+02  0.32079093701E+02  0.43897614776E+02  0.47000000000E+01 0. -1.
        -13    1    6    6    0    0 -0.42280145666E+02 -0.26856340583E+02  0.38868903087E+03  0.39190309576E+03  0.00000000000E+00 0.  1.
         14    1    6    6    0    0  0.58728545989E+01  0.32992667264E+02  0.47813188895E+03  0.47930481924E+03  0.00000000000E+00 0. -1.
         -5    1    3    3    0  503 -0.16615354826E+02  0.42984817596E+02  0.80171475841E+02  0.92592224826E+02  0.47000000000E+01 0.  1.
         13    1    4    4    0    0 -0.23484904950E+02  0.27724861177E+02  0.16653986534E+02  0.39969537842E+02  0.00000000000E+00 0. -1.
        -14    1    4    4    0    0  0.57173800729E+02 -0.54439568056E+02  0.31580128955E+02  0.85028316488E+02  0.00000000000E+00 0.  1.
</event>
<event>
12    1  0.8747122E-002  0.1864426E+03  0.7818608E-02  0.1161944E+00
         21   -1    0    0  503  502  0.00000000000E+00  0.00000000000E+00  0.37180535820E+03  0.37180535820E+03  0.00000000000E+00 0. -1.
         21   -1    0    0  501  503 -0.00000000000E+00 -0.00000000000E+00 -0.16397147642E+03  0.16397147642E+03  0.00000000000E+00 0. -1.
          6    2    1    2  501    0  0.19307769652E+02  0.67388145239E+02 -0.72505117995E+02  0.19910072347E+03  0.17166873292E+03 0.  0.
         24    2    3    3    0    0 -0.14850361920E+01  0.11132703708E+03 -0.17120738096E+02  0.12525976920E+03  0.54781160902E+02 0.  0.
         -6    2    1    2    0  502 -0.19307769652E+02 -0.67388145239E+02  0.28033899977E+03  0.33667611115E+03  0.17276254496E+03 0.  0.
        -24    2    5    5    0    0 -0.56932155107E+02  0.12102198725E+02  0.14259896556E+03  0.17318691827E+03  0.79192866992E+02 0.  0.
          5    1    3    3  501    0  0.20792805844E+02 -0.43938891837E+02 -0.55384379899E+02  0.73840954270E+02  0.47000000000E+01 0. -1.
        -11    1    4    4    0    0  0.17938995782E+01  0.91310236239E+02 -0.35406078888E+02  0.97950843488E+02  0.00000000000E+00 0.  1.
         12    1    4    4    0    0 -0.32789357702E+01  0.20016800836E+02  0.18285340792E+02  0.27308925709E+02  0.00000000000E+00 0. -1.
         -5    1    5    5    0  502  0.37624385455E+02 -0.79490343963E+02  0.13774003421E+03  0.16348919288E+03  0.47000000000E+01 0.  1.
         13    1    6    6    0    0 -0.33598406206E+02  0.19890689606E+02  0.14335394216E+03  0.14857605852E+03  0.00000000000E+00 0. -1.
        -14    1    6    6    0    0 -0.23333748901E+02 -0.77884908810E+01 -0.75497660113E+00  0.24610859750E+02  0.00000000000E+00 0.  1.
</event>
<event>
12    1  0.8747122E-002  0.2792921E+03  0.7818608E-02  0.1096139E+00
         21   -1    0    0  503  502  0.00000000000E+00  0.00000000000E+00  0.88906662874E+03  0.88906662874E+03  0.00000000000E+00 0.  1.
         21   -1    0    0  501  503 -0.00000000000E+00 -0.00000000000E+00 -0.88895610922E+02  0.88895610922E+02  0.00000000000E+00 0. -1.
          6    2    1    2  501    0 -0.19308101300E+03 -0.10465747054E+03  0.45894255599E+03  0.53700763569E+03  0.17180066174E+03 0.  0.
         24    2    3    3    0    0 -0.14759636436E+03 -0.12321668040E+03  0.26611515049E+03  0.33796543956E+03  0.80226728172E+02 0.  0.
         -6    2    1    2    0  502  0.19308101300E+03  0.10465747054E+03  0.34122846183E+03  0.44095460397E+03  0.17254169315E+03 0.  0.
        -24    2    5    5    0    0  0.12635105263E+03 -0.19595979509E+01  0.22100034143E+03  0.26689433325E+03  0.80143656557E+02 0.  0.
          5    1    3    3  501    0 -0.45484648642E+02  0.18559209853E+02  0.19282740550E+03  0.19904219614E+03  0.47000000000E+01 0. -1.
        -13    1    4    4    0    0 -0.67231853974E+02 -0.37223541112E+02  0.16796938016E+03  0.18471444684E+03  0.00000000000E+00 0.  1.
         14    1    4    4    0    0 -0.80364510389E+02 -0.85993139284E+02  0.98145770337E+02  0.15325099272E+03  0.00000000000E+00 0. -1.
         -5    1    5    5    0  502  0.66729960375E+02  0.10661706849E+03  0.12022812040E+03  0.17406027071E+03  0.47000000000E+01 0.  1.
         11    1    6    6    0    0  0.24293674135E+02  0.11579846127E+02  0.46681938345E+01  0.27314235720E+02  0.00000000000E+00 0. -1.
        -12    1    6    6    0    0  0.10205737849E+03 -0.13539444078E+02  0.21633214759E+03  0.23958009753E+03  0.00000000000E+00 0.  1.
</event>
<event>
12    1  0.8747122E-002  0.2072709E+03  0.7818608E-02  0.1143780E+00
         21   -1    0    0  501  502  0.00000000000E+00  0.00000000000E+00  0.12713984841E+04  0.12713984841E+04  0.00000000000E+00 0.  1.
         21   -1    0    0  502  503 -0.00000000000E+00 -0.00000000000E+00 -0.80755947834E+02  0.80755947834E+02  0.00000000000E+00 0.  1.
         -6    2    1    2    0  503 -0.59281868015E+02  0.98421611563E+02  0.79485587730E+02  0.22183102459E+03  0.17230754864E+03 0.  0.
        -24    2    3    3    0    0  0.13976826962E+02  0.10345073603E+03  0.65399524537E+02  0.14691349888E+03  0.80056679092E+02 0.  0.
          6    2    1    2  501    0  0.59281868015E+02 -0.98421611563E+02  0.11111569485E+04  0.11303234073E+04  0.17251112255E+03 0.  0.
         24    2    5    5    0    0  0.34683970496E+02 -0.66072126594E+02  0.10555294526E+04  0.10612723100E+04  0.81166415082E+02 0.  0.
          5    1    5    5  501    0  0.24597897518E+02 -0.32349484969E+02  0.55627495931E+02  0.69051097338E+02  0.47000000000E+01 0. -1.
        -13    1    6    6    0    0  0.54315215690E+02 -0.54368820748E+02  0.56400545216E+03  0.56921723568E+03  0.00000000000E+00 0.  1.
         14    1    6    6    0    0 -0.19631245194E+02 -0.11703305846E+02  0.49152400042E+03  0.49205507430E+03  0.00000000000E+00 0. -1.
         -5    1    3    3    0  503 -0.73258694976E+02 -0.50291244663E+01  0.14086063193E+02  0.74917525712E+02  0.47000000000E+01 0.  1.
         11    1    4    4    0    0  0.36300281027E+02  0.60082701771E+02  0.65856319997E+01  0.70505404074E+02  0.00000000000E+00 0. -1.
        -12    1    4    4    0    0 -0.22323454065E+02  0.43368034258E+02  0.58813892538E+02  0.76408094808E+02  0.00000000000E+00 0.  1.
</event>
<event>
12    1  0.8747122E-002  0.1823907E+03  0.7818608E-02  0.1165528E+00
         21   -1    0    0  501  502  0.00000000000E+00  0.00000000000E+00  0.41623647191E+03  0.41623647191E+03  0.00000000000E+00 0. -1.
         21   -1    0    0  502  503 -0.00000000000E+00 -0.00000000000E+00 -0.14207621382E+03  0.14207621382E+03  0.00000000000E+00 0. -1.
         -6    2    1    2    0  503 -0.56605737908E+02 -0.23008951102E+02 -0.47593990464E+02  0.18849815180E+03  0.17185093514E+03 0.  0.
        -24    2    3    3    0    0 -0.28247036833E+02 -0.68224320086E+02  0.11352367632E+02  0.10884007843E+03  0.79150701082E+02 0.  0.
          6    2    1    2  501    0  0.56605737908E+02  0.23008951102E+02  0.32175424856E+03  0.36981453393E+03  0.17176545534E+03 0.  0.
         24    2    5    5    0    0  0.78643368925E+02  0.47840229647E+02  0.13993650113E+03  0.18493069782E+03  0.78381576917E+02 0.  0.
          5    1    5    5  501    0 -0.22037631018E+02 -0.24831278545E+02  0.18181774743E+03  0.18488383611E+03  0.47000000000E+01 0. -1.
        -11    1    6    6    0    0  0.52521326467E+02  0.30330929967E+02  0.24711308325E+02  0.65491249841E+02  0.00000000000E+00 0.  1.
         12    1    6    6    0    0  0.26122042458E+02  0.17509299679E+02  0.11522519280E+03  0.11943944798E+03  0.00000000000E+00 0. -1.
         -5    1    3    3    0  503 -0.28358701075E+02  0.45215368984E+02 -0.58946358096E+02  0.79658073362E+02  0.47000000000E+01 0.  1.
         11    1    4    4    0    0 -0.48216993287E+02 -0.69934055501E+02  0.19582752278E+02  0.87173016165E+02  0.00000000000E+00 0. -1.
        -12    1    4    4    0    0  0.19969956454E+02  0.17097354152E+01 -0.82303846461E+01  0.21667062270E+02  0.00000000000E+00 0.  1.
</event>
<event>
12    1  0.8747122E-002  0.2671793E+03  0.7818608E-02  0.1103076E+00
         21   -1    0    0  503  502  0.00000000000E+00  0.00000000000E+00  0.15772880637E+03  0.15772880637E+03  0.00000000000E+00 0.  1.
         21   -1    0    0  501  503 -0.00000000000E+00 -0.00000000000E+00 -0.49524056040E+03  0.49524056040E+03  0.00000000000E+00 0. -1.
          6    2    1    2  501    0  0.14897920255E+03 -0.13909679425E+03 -0.26645352771E+03  0.37650228319E+03  0.17092034944E+03 0.  0.
         24    2    3    3    0    0  0.86289766199E+02 -0.59875913657E+02 -0.23739084100E+03  0.27127565580E+03  0.78771957263E+02 0.  0.
         -6    2    1    2    0  502 -0.14897920255E+03  0.13909679425E+03 -0.71058226326E+02  0.27646708358E+03  0.17274853346E+03 0.  0.
        -24    2    5    5    0    0 -0.10448528717E+03  0.15752555896E+03 -0.23662181436E+02  0.20873376132E+03  0.85313582279E+02 0.  0.
          5    1    3    3  501    0  0.62689436351E+02 -0.79220880597E+02 -0.29062686709E+02  0.10522662739E+03  0.47000000000E+01 0. -1.
        -11    1    4    4    0    0  0.47635659224E+02 -0.11818419491E+02 -0.36593159012E+02  0.61220015970E+02  0.00000000000E+00 0.  1.
         12    1    4    4    0    0  0.38654106976E+02 -0.48057494167E+02 -0.20079768199E+03  0.21005563983E+03  0.00000000000E+00 0. -1.
         -5    1    5    5    0  502 -0.44493915376E+02 -0.18428764704E+02 -0.47396044890E+02  0.67733322266E+02  0.47000000000E+01 0.  1.
         11    1    6    6    0    0 -0.77465649235E+02  0.51067027850E+02 -0.33062839040E+02  0.98498322169E+02  0.00000000000E+00 0. -1.
        -12    1    6    6    0    0 -0.27019637939E+02  0.10645853111E+03  0.94006576042E+01  0.11023543915E+03  0.00000000000E+00 0.  1.
</event>
<event>
12    1  0.8747122E-002  0.2165143E+03  0.7818608E-02  0.1137713E+00
         21   -1    0    0  503  502  0.00000000000E+00  0.00000000000E+00  0.47974418837E+02  0.47974418837E+02  0.00000000000E+00 0. -1.
         21   -1    0    0  501  503 -0.00000000000E+00 -0.00000000000E+00 -0.10567587555E+04  0.10567587555E+04  0.00000000000E+00 0. -1.
          6    2    1    2  501    0  0.77772414421E+02 -0.93453732472E+02 -0.67395015601E+03  0.70599471805E+03  0.17157383415E+03 0.  0.
         24    2    3    3    0    0  0.27818323448E+02 -0.11489264668E+03 -0.55314798856E+03  0.57344174031E+03  0.94279122281E+02 0.  0.
         -6    2    1    2    0  502 -0.77772414421E+02  0.93453732472E+02 -0.33483418069E+03  0.39873845633E+03  0.17915434529E+03 0.  0.
        -24    2    5    5    0    0 -0.11436190139E+03  0.10338026403E+03 -0.23871248218E+03  0.29530346462E+03  0.80339053930E+02 0.  0.
          5    1    3    3  501    0  0.49954090974E+02  0.21438914204E+02 -0.12080216745E+03  0.13255297774E+03  0.47000000000E+01 0. -1.
        -13    1    4    4    0    0 -0.16625723157E+02 -0.33039519258E+02 -0.52603073767E+02  0.64304804431E+02  0.00000000000E+00 0.  1.
         14    1    4    4    0    0  0.44444046604E+02 -0.81853127418E+02 -0.50054491479E+03  0.50913693587E+03  0.00000000000E+00 0. -1.
         -5    1    5    5    0  502  0.36589486966E+02 -0.99265315626E+01 -0.96121698511E+02  0.10343499171E+03  0.47000000000E+01 0.  1.
         13    1    6    6    0    0 -0.36251885842E+02  0.10419543270E+02 -0.11883123726E+03  0.12467409136E+03  0.00000000000E+00 0. -1.
        -14    1    6    6    0    0 -0.78110015545E+02  0.92960720765E+02 -0.11988124493E+03  0.17062937326E+03  0.00000000000E+00 0.  1.
</event>
<event>
12    1  0.8747122E-002  0.2696579E+03  0.7818608E-02  0.1101526E+00
         21   -1    0    0  501  502  0.00000000000E+00  0.00000000000E+00  0.20242560619E+03  0.20242560619E+03  0.00000000000E+00 0. -1.
         21   -1    0    0  502  503 -0.00000000000E+00 -0.00000000000E+00 -0.57460487299E+03  0.57460487299E+03  0.00000000000E+00 0.  1.
         -6    2    1    2    0  503 -0.17490609308E+03 -0.11130296224E+03 -0.42428712081E+03  0.50272751730E+03  0.17243811924E+03 0.  0.
        -24    2    3    3    0    0 -0.20391971970E+02 -0.71722391287E+02 -0.17151721343E+03  0.20380285908E+03  0.80978496727E+02 0.  0.
          6    2    1    2  501    0  0.17490609308E+03  0.11130296224E+03  0.52107854014E+02  0.27430296188E+03  0.17189065027E+03 0.  0.
         24    2    5    5    0    0  0.52020572355E+02  0.63830398737E+02 -0.33764477574E+02  0.11697959165E+03  0.75919201563E+02 0.  0.
          5    1    5    5  501    0  0.12288552072E+03  0.47472563503E+02  0.85872331588E+02  0.15732337023E+03  0.47000000000E+01 0. -1.
        -11    1    6    6    0    0  0.68786513260E+02  0.41071102950E+02 -0.11374184888E+02  0.80918427975E+02  0.00000000000E+00 0.  1.
         12    1    6    6    0    0 -0.16765940905E+02  0.22759295786E+02 -0.22390292686E+02  0.36061163676E+02  0.00000000000E+00 0. -1.
         -5    1    3    3    0  503 -0.15451412111E+03 -0.39580570953E+02 -0.25276990738E+03  0.29892465822E+03  0.47000000000E+01 0.  1.
         13    1    4    4    0    0  0.27263149613E+01 -0.20944490978E+01 -0.10412735019E+03  0.10418408981E+03  0.00000000000E+00 0. -1.
        -14    1    4    4    0    0 -0.23118286931E+02 -0.69627942189E+02 -0.67389863240E+02  0.99618769274E+02  0.00000000000E+00 0.  1.
</event>
<event>
12    1  0.8747122E-002  0.1917153E+03  0.7818608E-02  0.1157015E+00
         21   -1    0    0  501  502  0.00000000000E+00  0.00000000000E+00  0.67346056570E+02  0.67346056570E+02  0.00000000000E+00 0.  1.
         21   -1    0    0  502  503 -0.00000000000E+00 -0.00000000000E+00 -0.59217477977E+03  0.59217477977E+03  0.00000000000E+00 0. -1.
         -6    2    1    2    0  503  0.22004370422E+02 -0.81375846341E+02 -0.35615853570E+03  0.40447949106E+03  0.17218750085E+03 0.  0.
        -24    2    3    3    0    0 -0.43872915649E+02 -0.55648993001E+02 -0.29099507723E+03  0.30819837077E+03  0.72708030011E+02 0.  0.
          6    2    1    2  501    0 -0.22004370422E+02  0.81375846341E+02 -0.16867018750E+03  0.25504134528E+03  0.17172721091E+03 0.  0.
         24    2    5    5    0    0 -0.90713465489E+01  0.41653882675E+02 -0.70112681861E+01  0.88006038543E+02  0.76671830996E+02 0.  0.
          5    1    5    5  501    0 -0.12933023873E+02  0.39721963666E+02 -0.16165891931E+03  0.16703530674E+03  0.47000000000E+01 0. -1.
        -11    1    6    6    0    0  0.18003562033E+02 -0.14869344761E+02  0.57482723028E+01  0.24047209692E+02  0.00000000000E+00 0.  1.
         12    1    6    6    0    0 -0.27074908582E+02  0.56523227436E+02 -0.12759540489E+02  0.63958828851E+02  0.00000000000E+00 0. -1.
         -5    1    3    3    0  503  0.65877286071E+02 -0.25726853340E+02 -0.65163458476E+02  0.96281120285E+02  0.47000000000E+01 0.  1.
         11    1    4    4    0    0 -0.25621562327E+02 -0.15350833827E+02 -0.23473913449E+03  0.23663172614E+03  0.00000000000E+00 0. -1.
        -12    1    4    4    0    0 -0.18251353323E+02 -0.40298159174E+02 -0.56255942737E+02  0.71566644634E+02  0.00000000000E+00 0.  1.
</event>
<event>
12    1  0.8747122E-002  0.2750206E+03  0.7818608E-02  0.1099334E+00
         21   -1    0    0  503  502  0.00000000000E+00  0.00000000000E+00  0.11597115970E+03  0.11597115970E+03  0.00000000000E+00 0. -1.
         21   -1    0    0  501  503 -0.00000000000E+00 -0.00000000000E+00 -0.63730269528E+03  0.63730269528E+03  0.00000000000E+00 0.  1.
          6    2    1    2  501    0 -0.84336349321E+02 -0.19755296016E+03 -0.26249031392E+03  0.38018086862E+03  0.17174555620E+03 0.  0.
         24    2    3    3    0    0 -0.89368445798E+02 -0.70654772302E+02 -0.18450817752E+03  0.23107763031E+03  0.79842267647E+02 0.  0.
         -6    2    1    2    0  502  0.84336349321E+02  0.19755296016E+03 -0.25884122166E+03  0.37309298637E+03  0.16143050071E+03 0.  0.
        -24    2    5    5    0    0  0.47372869544E+02  0.16965957868E+03 -0.12023003550E+03  0.22687571483E+03  0.77387125125E+02 0.  0.
          5    1    3    3  501    0  0.50320964778E+01 -0.12689818786E+03 -0.77982136394E+02  0.14910323831E+03  0.47000000000E+01 0. -1.
        -11    1    4    4    0    0 -0.10831859068E+02 -0.21491574443E+02 -0.10878539311E+03  0.11141579196E+03  0.00000000000E+00 0.  1.
         12    1    4    4    0    0 -0.78536586731E+02 -0.49163197859E+02 -0.75722784414E+02  0.11966183835E+03  0.00000000000E+00 0. -1.
         -5    1    5    5    0  502  0.36963479777E+02  0.27893381479E+02 -0.13861118616E+03  0.14621727154E+03  0.47000000000E+01 0.  1.
         11    1    6    6    0    0  0.53464718139E+01  0.41178307201E+02  0.59604261891E+01  0.41949546185E+02  0.00000000000E+00 0. -1.
        -12    1    6    6    0    0  0.42026397730E+02  0.12848127148E+03 -0.12619046169E+03  0.18492616864E+03  0.00000000000E+00 0.  1.
</event>
<event>
12    1  0.8747122E-002  0.1726849E+03  0.7818608E-02  0.1175577E+00
         21   -1    0    0  501  502  0.00000000000E+00  0.00000000000E+00  0.12310636947E+02  0.12310636947E+02  0.00000000000E+00 0.  1.
         21   -1    0    0  502  503 -0.00000000000E+00 -0.00000000000E+00 -0.31699374374E+04  0.31699374374E+04  0.00000000000E+00 0.  1.
         -6    2    1    2    0  503  0.53705475434E+01 -0.52437362401E+01 -0.23587137640E+04  0.23648851685E+04  0.17057227306E+03 0.  0.
        -24    2    3    3    0    0 -0.16168241779E+02 -0.44454111398E+02 -0.21141599282E+04  0.21162286955E+04  0.80710034720E+02 0.  0.
          6    2    1    2  501    0 -0.53705475434E+01  0.52437362401E+01 -0.79891303649E+03  0.81736290585E+03  0.17252171002E+03 0.  0.
         24    2    5    5    0    0 -0.30267922832E+02  0.20347177000E+02 -0.77279150849E+03  0.77796217687E+03  0.81781894555E+02 0.  0.
          5    1    5    5  501    0  0.24897375288E+02 -0.15103440759E+02 -0.26121528000E+02  0.39400728979E+02  0.47000000000E+01 0. -1.
        -13    1    6    6    0    0 -0.31505286705E+02  0.49887458472E+02 -0.45792351597E+03  0.46170909465E+03  0.00000000000E+00 0.  1.
         14    1    6    6    0    0  0.12373638730E+01 -0.29540281473E+02 -0.31486799252E+03  0.31625308222E+03  0.00000000000E+00 0. -1.
         -5    1    3    3    0  503  0.21538789322E+02  0.39210375158E+02 -0.24455383578E+03  0.24865647299E+03  0.47000000000E+01 0.  1.
         11    1    4    4    0    0 -0.85348797941E+01  0.18436942608E+02 -0.10424120864E+04  0.10426100531E+04  0.00000000000E+00 0. -1.
        -12    1    4    4    0    0 -0.76333619846E+01 -0.62891054005E+02 -0.10717478418E+04  0.10736186424E+04  0.00000000000E+00 0.  1.
</event>
<event>
12    1  0.8747122E-002  0.1807102E+03  0.7818608E-02  0.1167371E+00
         21   -1    0    0  503  502  0.00000000000E+00  0.00000000000E+00  0.70415607127E+02  0.70415607127E+02  0.00000000000E+00 0. -1.
         21   -1    0    0  501  503 -0.00000000000E+00 -0.00000000000E+00 -0.75006856089E+03  0.75006856089E+03  0.00000000000E+00 0.  1.
          6    2    1    2  501    0  0.44756417265E+02  0.28615854369E+02 -0.59508009712E+03  0.62191357976E+03  0.17272572102E+03 0.  0.
         24    2    3    3    0    0  0.61447955489E+02 -0.25674308095E+02 -0.50001971652E+03  0.51107768689E+03  0.82131990133E+02 0.  0.
         -6    2    1    2    0  502 -0.44756417265E+02 -0.28615854369E+02 -0.84572856646E+02  0.19857058825E+03  0.17162664837E+03 0.  0.
        -24    2    5    5    0    0  0.40285289715E+02 -0.16474339894E+02 -0.48006443579E+02  0.10508956952E+03  0.82733853734E+02 0.  0.
          5    1    3    3  501    0 -0.16691538224E+02  0.54290162464E+02 -0.95060380600E+02  0.11083589287E+03  0.47000000000E+01 0. -1.
        -13    1    4    4    0    0 -0.72911576887E-01 -0.41628925394E+02 -0.22398741557E+03  0.22782303457E+03  0.00000000000E+00 0.  1.
         14    1    4    4    0    0  0.61520867066E+02  0.15954617299E+02 -0.27603230094E+03  0.28325465232E+03  0.00000000000E+00 0. -1.
         -5    1    5    5    0  502 -0.85041706979E+02 -0.12141514475E+02 -0.36566413067E+02  0.93481018738E+02  0.47000000000E+01 0.  1.
         11    1    6    6    0    0  0.11478904495E+02 -0.44908742391E+02 -0.59726194297E+01  0.46735774033E+02  0.00000000000E+00 0. -1.
        -12    1    6    6    0    0  0.28806385220E+02  0.28434402497E+02 -0.42033824149E+02  0.58353795484E+02  0.00000000000E+00 0.  1.
</event>
<event>
12    1  0.8747122E-002  0.2564416E+03  0.7818608E-02  0.1109325E+00
         21   -1    0    0  501  502  0.00000000000E+00  0.00000000000E+00  0.13931991698E+03  0.13931991698E+03  0.00000000000E+00 0.  1.
         21   -1    0    0  502  503 -0.00000000000E+00 -0.00000000000E+00 -0.63850076178E+03  0.63850076178E+03  0.00000000000E+00 0. -1.
         -6    2    1    2    0  503 -0.17313719634E+03 -0.79979851812E+02 -0.50887823581E+02  0.26144194341E+03  0.17143235907E+03 0.  0.
        -24    2    3    3    0    0 -0.16269261738E+02 -0.34243473811E+02  0.56002216123E+01  0.88490058694E+02  0.79761040799E+02 0.  0.
          6    2    1    2  501    0  0.17313719634E+03  0.79979851812E+02 -0.44829302122E+03  0.51637873534E+03  0.17119316571E+03 0.  0.
         24    2    5    5    0    0  0.42526528927E+02  0.38664517624E+02 -0.94204838480E+02  0.13668591945E+03  0.80653818248E+02 0.  0.
          5    1    5    5  501    0  0.13061066741E+03  0.41315334188E+02 -0.35408818274E+03  0.37969281589E+03  0.47000000000E+01 0. -1.
        -13    1    6    6    0    0 -0.58542693076E+01  0.32080979517E+02 -0.79128032806E+02  0.85584503805E+02  0.00000000000E+00 0.  1.
         14    1    6    6    0    0  0.48380798235E+02  0.65835381070E+01 -0.15076805674E+02  0.51101415648E+02  0.00000000000E+00 0. -1.
         -5    1    3    3    0  503 -0.15686793460E+03 -0.45736378001E+02 -0.56488045194E+02  0.17295188472E+03  0.47000000000E+01 0.  1.
         13    1    4    4    0    0  0.17605709580E+02 -0.10825979308E+02 -0.28373986189E+02  0.35103360666E+02  0.00000000000E+00 0. -1.
        -14    1    4    4    0    0 -0.33874971318E+02 -0.23417494502E+02  0.33974207801E+02  0.53386698028E+02  0.00000000000E+00 0.  1.
</event>
<event>
12    1  0.8747122E-002  0.2270253E+03  0.7818608E-02  0.1129403E+00
         21   -1    0    0  503  502  0.00000000000E+00  0.00000000000E+00  0.36418835645E+03  0.36418835645E+03  0.00000000000E+00 0. -1.
         21   -1    0    0  501  503 -0.00000000000E+00 -0.00000000000E+00 -0.14313963200E+03  0.14313963200E+03  0.00000000000E+00 0.  1.
          6    2    1    2  501    0 -0.13681303851E+03 -0.59851889716E+02  0.69732296003E+02  0.23749330740E+03  0.17099830919E+03 0.  0.
         24    2    3    3    0    0 -0.15347187905E+03 -0.35401987553E+02  0.91874949418E+02  0.20024143786E+03  0.82756925541E+02 0.  0.
         -6    2    1    2    0  502  0.13681303851E+03  0.59851889716E+02  0.15131642845E+03  0.26983468105E+03  0.16617471940E+03 0.  0.
        -24    2    5    5    0    0  0.76026378743E+02 -0.13783184149E+02  0.13153076115E+03  0.17220935268E+03  0.79910785205E+02 0.  0.
          5    1    3    3  501    0  0.16658840540E+02 -0.24449902163E+02 -0.22142653415E+02  0.37251869539E+02  0.47000000000E+01 0. -1.
        -13    1    4    4    0    0 -0.53756006857E+01 -0.50956827249E+01 -0.13895620000E+02  0.15746470092E+02  0.00000000000E+00 0.  1.
         14    1    4    4    0    0 -0.14809627836E+03 -0.30306304828E+02  0.10577056942E+03  0.18449496777E+03  0.00000000000E+00 0. -1.
         -5    1    5    5    0  502  0.60786659766E+02  0.73635073865E+02  0.19785667302E+02  0.97625328369E+02  0.47000000000E+01 0.  1.
         11    1    6    6    0    0  0.65182602416E+02 -0.18819968076E+02  0.14131655784E+03  0.15675883508E+03  0.00000000000E+00 0. -1.
        -12    1    6    6    0    0  0.10843776327E+02  0.50367839266E+01 -0.97857966882E+01  0.15450517602E+02  0.00000000000E+00 0.  1.
</event>
<event>
12    1  0.8747122E-002  0.1898585E+03  0.7818608E-02  0.1159068E+00
         21   -1    0    0  503  502  0.00000000000E+00  0.00000000000E+00  0.43919520828E+03  0.43919520828E+03  0.00000000000E+00 0. -1.
         21   -1    0    0  501  503 -0.00000000000E+00 -0.00000000000E+00 -0.12602591421E+03  0.12602591421E+03  0.00000000000E+00 0. -1.
          6    2    1    2  501    0  0.68916056996E+02  0.30946179627E+02 -0.11466039758E+02  0.19020446616E+03  0.17418145692E+03 0.  0.
         24    2    3    3    0    0  0.63097840505E+02  0.83750856485E+02 -0.27646443417E+02  0.13447224026E+03  0.79516753764E+02 0.  0.
         -6    2    1    2    0  502 -0.68916056996E+02 -0.30946179627E+02  0.32463533383E+03  0.37501665633E+03  0.17187874682E+03 0.  0.
        -24    2    5    5    0    0 -0.10809265131E+03 -0.12886584264E+01  0.20185809693E+03  0.24268860183E+03  0.80407613165E+02 0.  0.
          5    1    3    3  501    0  0.58182164913E+01 -0.52804676858E+02  0.16180403658E+02  0.55732225900E+02  0.47000000000E+01 0. -1.
        -11    1    4    4    0    0 -0.13344406381E+02  0.14705378676E+02  0.13000210528E+02  0.23734506893E+02  0.00000000000E+00 0.  1.
         12    1    4    4    0    0  0.76442246886E+02  0.69045477809E+02 -0.40646653945E+02  0.11073773337E+03  0.00000000000E+00 0. -1.
         -5    1    5    5    0  502  0.39176594318E+02 -0.29657521201E+02  0.12277723690E+03  0.13232805450E+03  0.47000000000E+01 0.  1.
         11    1    6    6    0    0 -0.21665945657E+02 -0.21730085982E+02  0.11286454269E+03  0.11696159556E+03  0.00000000000E+00 0. -1.
        -12    1    6    6    0    0 -0.86426705657E+02  0.20441427556E+02  0.88993554234E+02  0.12572700627E+03  0.00000000000E+00 0.  1.
</event>
<event>
12    1  0.8747122E-002  0.2236180E+03  0.7818608E-02  0.1131938E+00
         21   -1    0    0  501  502  0.00000000000E+00  0.00000000000E+00  0.28634785973E+03  0.28634785973E+03  0.00000000000E+00 0.  1.
         21   -1    0    0  502  503 -0.00000000000E+00 -0.00000000000E+00 -0.23171750521E+03  0.23171750521E+03  0.00000000000E+00 0. -1.
         -6    2    1    2    0  503  0.81389263147E+02 -0.11777157693E+03 -0.10447068090E+03  0.24681800366E+03  0.17178663300E+03 0.  0.
        -24    2    3    3    0    0  0.47151366026E+02 -0.42189465150E+02  0.50208753222E+01  0.10935753624E+03  0.89054248946E+02 0.  0.
          6    2    1    2  501    0 -0.81389263147E+02  0.11777157693E+03  0.15910103543E+03  0.27124736128E+03  0.16663623567E+03 0.  0.
         24    2    5    5    0    0  0.11097151692E+02  0.90094186001E+02  0.69093088450E+02  0.13917429280E+03  0.79721513900E+02 0.  0.
          5    1    5    5  501    0 -0.92486414839E+02  0.27677390928E+02  0.90007946975E+02  0.13207306848E+03  0.47000000000E+01 0. -1.
        -13    1    6    6    0    0 -0.88900825237E+01  0.98617722940E+02  0.54868210775E+02  0.11320339835E+03  0.00000000000E+00 0.  1.
         14    1    6    6    0    0  0.19987234215E+02 -0.85235369396E+01  0.14224877676E+02  0.25970894448E+02  0.00000000000E+00 0. -1.
         -5    1    3    3    0  503  0.34237897122E+02 -0.75582111779E+02 -0.10949155622E+03  0.13746046742E+03  0.47000000000E+01 0.  1.
         11    1    4    4    0    0  0.72094008492E+02 -0.37689948919E+02  0.13842680735E+02  0.82520895050E+02  0.00000000000E+00 0. -1.
        -12    1    4    4    0    0 -0.24942642466E+02 -0.44995162309E+01 -0.88218054124E+01  0.26836641188E+02  0.00000000000E+00 0.  1.
</event>
<event>
12    1  0.8747122E-002  0.1885249E+03  0.7818608E-02  0.1160345E+00
         21   -1    0    0  501  502  0.00000000000E+00  0.00000000000E+00  0.15326021693E+03  0.15326021693E+03  0.00000000000E+00 0.  1.
         21   -1    0    0  502  503 -0.00000000000E+00 -0.00000000000E+00 -0.60308655043E+03  0.60308655043E+03  0.00000000000E+00 0.  1.
         -6    2    1    2    0  503 -0.65550149699E+02  0.28338356501E+02 -0.52221793422E+03  0.55440082373E+03  0.17189769619E+03 0.  0.
        -24    2    3    3    0    0 -0.93496292041E+02  0.25722513582E+02 -0.50620343269E+03  0.52174529180E+03  0.81074224793E+02 0.  0.
          6    2    1    2  501    0  0.65550149699E+02 -0.28338356501E+02  0.72391600718E+02  0.20194594363E+03  0.17447560207E+03 0.  0.
         24    2    5    5    0    0  0.11287674715E+03 -0.30238735570E+02  0.58930603351E+02  0.15248174732E+03  0.78245294293E+02 0.  0.
          5    1    5    5  501    0 -0.47326597447E+02  0.19003790681E+01  0.13460997367E+02  0.49464196310E+02  0.47000000000E+01 0. -1.
        -11    1    6    6    0    0 -0.28581260689E+00 -0.26784513876E+02  0.17135990898E+02  0.31798334178E+02  0.00000000000E+00 0.  1.
         12    1    6    6    0    0  0.11316255975E+03 -0.34542216938E+01  0.41794612453E+02  0.12068341314E+03  0.00000000000E+00 0. -1.
         -5    1    3    3    0  503  0.27946142342E+02  0.26158429190E+01 -0.16014501534E+02  0.32655531925E+02  0.47000000000E+01 0.  1.
         13    1    4    4    0    0 -0.48968540250E+02 -0.12195322489E+02 -0.10726799149E+03  0.11854562760E+03  0.00000000000E+00 0. -1.
        -14    1    4    4    0    0 -0.44527751791E+02  0.37917836072E+02 -0.39893544119E+03  0.40319966420E+03  0.00000000000E+00 0.  1.
</event>
<event>
12    1  0.8747122E-002  0.2781574E+03  0.7818608E-02  0.1096851E+00
         21   -1    0    0  503  502  0.00000000000E+00  0.00000000000E+00  0.12851224732E+04  0.12851224732E+04  0.00000000000E+00 0.  1.
         21   -1    0    0  501  503 -0.00000000000E+00 -0.00000000000E+00 -0.12396708717E+03  0.12396708717E+03  0.00000000000E+00 0.  1.
          6    2    1    2  501    0  0.18340132054E+03 -0.11696943868E+03  0.73802577022E+02  0.28672256820E+03  0.17159579477E+03 0.  0.
         24    2    3    3    0    0  0.20650464405E+03 -0.86171636718E+02  0.71674414817E+02  0.24787817044E+03  0.78972442373E+02 0.  0.
         -6    2    1    2    0  502 -0.18340132054E+03  0.11696943868E+03  0.10873528090E+04  0.11223669921E+04  0.17335985664E+03 0.  0.
        -24    2    5    5    0    0 -0.36021626896E+02  0.90378217559E+02  0.56222389447E+03  0.57628061253E+03  0.80857016125E+02 0.  0.
          5    1    3    3  501    0 -0.23103323513E+02 -0.30797801958E+02  0.21281622046E+01  0.38844397758E+02  0.47000000000E+01 0. -1.
        -13    1    4    4    0    0  0.10834105766E+03 -0.80417503334E+02  0.18790004215E+02  0.13622710404E+03  0.00000000000E+00 0.  1.
         14    1    4    4    0    0  0.98163586387E+02 -0.57541333840E+01  0.52884410602E+02  0.11165106640E+03  0.00000000000E+00 0. -1.
         -5    1    5    5    0  502 -0.14737969364E+03  0.26591221117E+02  0.52512891451E+03  0.54608637960E+03  0.47000000000E+01 0.  1.
         13    1    6    6    0    0  0.55364906317E+00 -0.81200854814E+01  0.17098883512E+03  0.17118242915E+03  0.00000000000E+00 0. -1.
        -14    1    6    6    0    0 -0.36575275959E+02  0.98498303040E+02  0.39123505935E+03  0.40509818338E+03  0.00000000000E+00 0.  1.
</event>
<event>
12    1  0.8747122E-002  0.1821934E+03  0.7818608E-02  0.1166021E+00
         21   -1    0    0  501  502  0.00000000000E+00  0.00000000000E+00  0.61436348114E+03  0.61436348114E+03  0.00000000000E+00 0. -1.
         21   -1    0    0  502  503 -0.00000000000E+00 -0.00000000000E+00 -0.64977633145E+02  0.64977633145E+02  0.00000000000E+00 0. -1.
         -6    2    1    2    0  503  0.20726203533E+02 -0.55033203724E+02  0.41749310590E+03  0.45551612542E+03  0.17244192652E+03 0.  0.
        -24    2    3    3    0    0 -0.12501353891E+02 -0.68248586998E+02  0.14022914966E+03  0.17591621777E+03  0.80424795838E+02 0.  0.
          6    2    1    2  501    0 -0.20726203533E+02  0.55033203724E+02  0.13189274209E+03  0.22382498886E+03  0.17100789805E+03 0.  0.
         24    2    5    5    0    0 -0.27258950473E+02  0.10003611421E+03  0.57687869281E+02  0.13666770641E+03  0.67822541863E+02 0.  0.
          5    1    5    5  501    0  0.65327469396E+01 -0.45002910490E+02  0.74204872811E+02  0.87157282450E+02  0.47000000000E+01 0. -1.
        -11    1    6    6    0    0 -0.16750310802E+02  0.35419782523E+01  0.31950955725E+02  0.36248890930E+02  0.00000000000E+00 0.  1.
         12    1    6    6    0    0 -0.10508639671E+02  0.96494135961E+02  0.25736913557E+02  0.10041881548E+03  0.00000000000E+00 0. -1.
         -5    1    3    3    0  503  0.33227557424E+02  0.13215383275E+02  0.27726395624E+03  0.27959990765E+03  0.47000000000E+01 0.  1.
         13    1    4    4    0    0 -0.39980997143E+02 -0.28439906140E+02  0.10555282633E+03  0.11639891554E+03  0.00000000000E+00 0. -1.
        -14    1    4    4    0    0  0.27479643252E+02 -0.39808680859E+02  0.34676323326E+02  0.59517302227E+02  0.00000000000E+00 0.  1.
</event>
<event>
12    1  0.8747122E-002  0.1888817E+03  0.7818608E-02  0.1159982E+00
         21   -1    0    0  503  502  0.00000000000E+00  0.00000000000E+00  0.32250723479E+03  0.32250723479E+03  0.00000000000E+00 0.  1.
         21   -1    0    0  501  503 -0.00000000000E+00 -0.00000000000E+00 -0.15422279231E+03  0.15422279231E+03  0.00000000000E+00 0.  1.
          6    2    1    2  501    0 -0.33805424943E+02 -0.69582948886E+02  0.21240223577E+03  0.28276434540E+03  0.16987163312E+03 0.  0.
         24    2    3    3    0    0 -0.83922148425E+02 -0.40846634295E+02  0.17565439945E+03  0.21413523187E+03  0.79297256927E+02 0.  0.
         -6    2    1    2    0  502  0.33805424943E+02  0.69582948886E+02 -0.44117793289E+02  0.19396568170E+03  0.17231283313E+03 0.  0.
        -24    2    5    5    0    0  0.79816657985E+02  0.70406807731E+02 -0.45299471502E+01  0.13308054499E+03  0.79762732951E+02 0.  0.
          5    1    3    3  501    0  0.50116723483E+02 -0.28736314591E+02  0.36747836325E+02  0.68629113527E+02  0.47000000000E+01 0. -1.
        -13    1    4    4    0    0 -0.82890677459E+02 -0.36024637746E+01  0.10107550322E+03  0.13076734878E+03  0.00000000000E+00 0.  1.
         14    1    4    4    0    0 -0.10314709656E+01 -0.37244170520E+02  0.74578896223E+02  0.83367883096E+02  0.00000000000E+00 0. -1.
         -5    1    5    5    0  502 -0.46011233043E+02 -0.82385884463E+00 -0.39587846139E+02  0.60885136704E+02  0.47000000000E+01 0.  1.
         11    1    6    6    0    0  0.77110016896E+02  0.18448541432E+02  0.76214494223E+01  0.79651678438E+02  0.00000000000E+00 0. -1.
        -12    1    6    6    0    0  0.27066410894E+01  0.51958266299E+02 -0.12151396573E+02  0.53428866556E+02  0.00000000000E+00 0.  1.
</event>
<event>
12    1  0.8747122E-002  0.2485931E+03  0.7818608E-02  0.1114908E+00
         21   -1    0    0  501  502  0.00000000000E+00  0.00000000000E+00  0.18509878494E+03  0.18509878494E+03  0.00000000000E+00 0. -1.
         21   -1    0    0  502  503 -0.00000000000E+00 -0.00000000000E+00 -0.57685255208E+03  0.57685255208E+03  0.00000000000E+00 0.  1.
         -6    2    1    2    0  503 -0.89259673807E+02 -0.15437281617E+03 -0.44512276088E+03  0.50769401975E+03  0.16679535274E+03 0.  0.
        -24    2    3    3    0    0 -0.12621765962E+03 -0.12980499957E+03 -0.34015510284E+03  0.39363364292E+03  0.80384795443E+02 0.  0.
          6    2    1    2  501    0  0.89259673807E+02  0.15437281617E+03  0.53368993742E+02  0.25425731728E+03  0.17320588372E+03 0.  0.
         24    2    5    5    0    0  0.39548402223E+02  0.12554733483E+03 -0.26244559300E+02  0.15595916508E+03  0.79424649068E+02 0.  0.
          5    1    5    5  501    0  0.49711271584E+02  0.28825481338E+02  0.79613553042E+02  0.98298152194E+02  0.47000000000E+01 0. -1.
        -13    1    6    6    0    0  0.35176400069E+02  0.11960068299E+03  0.40961134517E+01  0.12473363876E+03  0.00000000000E+00 0.  1.
         14    1    6    6    0    0  0.43720021547E+01  0.59466518374E+01 -0.30340672752E+02  0.31225526320E+02  0.00000000000E+00 0. -1.
         -5    1    3    3    0  503  0.36957985814E+02 -0.24567816594E+02 -0.10496765804E+03  0.11406037682E+03  0.47000000000E+01 0.  1.
         11    1    4    4    0    0 -0.47606105195E+02 -0.58977924738E+01 -0.11813183872E+03  0.12750002560E+03  0.00000000000E+00 0. -1.
        -12    1    4    4    0    0 -0.78611554426E+02 -0.12390720710E+03 -0.22202326412E+03  0.26613361732E+03  0.00000000000E+00 0.  1.
</event>
<event>
12    1  0.8747122E-002  0.1849671E+03  0.7818608E-02  0.1163223E+00
         21   -1    0    0  503  502  0.00000000000E+00  0.00000000000E+00  0.43507672184E+03  0.43507672184E+03  0.00000000000E+00 0. -1.
         21   -1    0    0  501  503 -0.00000000000E+00 -0.00000000000E+00 -0.11606192839E+03  0.11606192839E+03  0.00000000000E+00 0. -1.
          6    2    1    2  501    0  0.65941132117E+02  0.68218373854E+01  0.23058651550E+01  0.18437257177E+03  0.17202661956E+03 0.  0.
         24    2    3    3    0    0  0.52919545996E+02 -0.19533432119E+02 -0.60824222794E+02  0.11457529432E+03  0.79030871627E+02 0.  0.
         -6    2    1    2    0  502 -0.65941132117E+02 -0.68218373854E+01  0.31670892830E+03  0.36676607845E+03  0.17267901051E+03 0.  0.
        -24    2    5    5    0    0 -0.29767239145E+02 -0.30144106157E+02  0.64358753130E+02  0.11072862092E+03  0.79523724282E+02 0.  0.
          5    1    3    3  501    0  0.13021586121E+02  0.26355269505E+02  0.63130087949E+02  0.69797277456E+02  0.47000000000E+01 0. -1.
        -13    1    4    4    0    0 -0.14481653009E+02 -0.23491168668E+02 -0.28666277408E+02  0.39790812252E+02  0.00000000000E+00 0.  1.
         14    1    4    4    0    0  0.67401199006E+02  0.39577365489E+01 -0.32157945386E+02  0.74784482063E+02  0.00000000000E+00 0. -1.
         -5    1    5    5    0  502 -0.36173892973E+02  0.23322268771E+02  0.25235017517E+03  0.25603745754E+03  0.47000000000E+01 0.  1.
         11    1    6    6    0    0 -0.20134380355E+02 -0.29335274056E+02  0.82681555112E+02  0.90012172132E+02  0.00000000000E+00 0. -1.
        -12    1    6    6    0    0 -0.96328587892E+01 -0.80883210118E+00 -0.18322801982E+02  0.20716448786E+02  0.00000000000E+00 0.  1.
</event>
<event>
12    1  0.8747122E-002  0.2228676E+03  0.7818608E-02  0.1132150E+00
         21   -1    0    0  501  502  0.00000000000E+00  0.00000000000E+00  0.59037341037E+03  0.59037341037E+03  0.00000000000E+00 0. -1.
         21   -1    0    0  502  503 -0.00000000000E+00 -0.00000000000E+00 -0.12220308804E+03  0.12220308804E+03  0.00000000000E+00 0.  1.
         -6    2    1    2    0  503  0.11946095380E+03  0.66608176866E+02  0.32415633240E+02  0.22313588953E+03  0.17329536407E+03 0.  0.
        -24    2    3    3    0    0  0.13222103955E+03  0.21612626822E+01  0.28191211916E+02  0.15713467536E+03  0.80059274386E+02 0.  0.
          6    2    1    2  501    0 -0.11946095380E+03 -0.66608176866E+02  0.43575468909E+03  0.48944060888E+03  0.17596133624E+03 0.  0.
         24    2    5    5    0    0 -0.65195027983E+02 -0.40270671283E+02  0.10165530235E+03  0.14990718619E+03  0.79159619354E+02 0.  0.
          5    1    5    5  501    0 -0.54265925818E+02 -0.26337505583E+02  0.33409938674E+03  0.33953342269E+03  0.47000000000E+01 0. -1.
        -13    1    6    6    0    0 -0.27839895140E+02 -0.57800591347E+02  0.39626728522E+02  0.75407199489E+02  0.00000000000E+00 0.  1.
         14    1    6    6    0    0 -0.37355132844E+02  0.17529920064E+02  0.62028573831E+02  0.74499986703E+02  0.00000000000E+00 0. -1.
         -5    1    3    3    0  503 -0.12760085748E+02  0.64446914184E+02  0.42244213241E+01  0.66001214168E+02  0.47000000000E+01 0.  1.
         13    1    4    4    0    0  0.61184398906E+02 -0.12892088287E+02  0.51356573823E+02  0.80914981831E+02  0.00000000000E+00 0. -1.
        -14    1    4    4    0    0  0.71036640643E+02  0.15053350969E+02 -0.23165361908E+02  0.76219693528E+02  0.00000000000E+00 0.  1.
</event>
<event>
12    1  0.8747122E-002  0.2053880E+03  0.7818608E-02  0.1145305E+00
         21   -1    0    0  501  502  0.00000000000E+00  0.00000000000E+00  0.51810832820E+02  0.51810832820E+02  0.00000000000E+00 0. -1.
         21   -1    0    0  502  503 -0.00000000000E+00 -0.00000000000E+00 -0.97719414491E+03  0.97719414491E+03  0.00000000000E+00 0. -1.
         -6    2    1    2    0  503 -0.25632079136E+02  0.10926228742E+03 -0.67309254724E+03  0.70368226191E+03  0.17181355490E+03 0.  0.
        -24    2    3    3    0    0  0.27679894609E+02  0.68133612150E+01 -0.35838400176E+03  0.36841892121E+03  0.80503480216E+02 0.  0.
          6    2    1    2  501    0  0.25632079136E+02 -0.10926228742E+03 -0.25229076485E+03  0.32532271582E+03  0.17201450074E+03 0.  0.
         24    2    5    5    0    0 -0.50284365506E+02 -0.40719491738E+02 -0.16145607700E+03  0.18844886177E+03  0.72514234999E+02 0.  0.
          5    1    5    5  501    0  0.75916444642E+02 -0.68542795680E+02 -0.90834687844E+02  0.13687385405E+03  0.47000000000E+01 0. -1.
        -11    1    6    6    0    0 -0.13640444177E+01  0.19400474538E+02 -0.37782818045E+02  0.42494474569E+02  0.00000000000E+00 0.  1.
         12    1    6    6    0    0 -0.48920321089E+02 -0.60119966276E+02 -0.12367325896E+03  0.14595438720E+03  0.00000000000E+00 0. -1.
         -5    1    3    3    0  503 -0.53311973745E+02  0.10244892620E+03 -0.31470854547E+03  0.33526334070E+03  0.47000000000E+01 0.  1.
         13    1    4    4    0    0 -0.72892343935E+01  0.18352447900E+02 -0.29066912546E+03  0.29133912504E+03  0.00000000000E+00 0. -1.
        -14    1    4    4    0    0  0.34969129002E+02 -0.11539086685E+02 -0.67714876300E+02  0.77079796166E+02  0.00000000000E+00 0.  1.
</event>
<event>
12    1  0.8747122E-002  0.1884422E+03  0.7818608E-02  0.1160574E+00
         21   -1    0    0  503  502  0.00000000000E+00  0.00000000000E+00  0.71634099396E+02  0.71634099396E+02  0.00000000000E+00 0.  1.
         21   -1    0    0  501  503 -0.00000000000E+00 -0.00000000000E+00 -0.48780002803E+03  0.48780002803E+03  0.00000000000E+00 0.  1.
          6    2    1    2  501    0 -0.51644613047E+02  0.55142307995E+02 -0.21294596369E+03  0.28435264850E+03  0.17263431023E+03 0.  0.
         24    2    3    3    0    0 -0.80804291705E+02  0.81512864855E+02 -0.19704260018E+03  0.24168298598E+03  0.80069961484E+02 0.  0.
         -6    2    1    2    0  502  0.51644613047E+02 -0.55142307995E+02 -0.20321996494E+03  0.27508147893E+03  0.16930335410E+03 0.  0.
        -24    2    5    5    0    0  0.24188025809E+02 -0.73093768547E+02 -0.21387471960E+03  0.24027152467E+03  0.77847609388E+02 0.  0.
          5    1    3    3  501    0  0.29159678658E+02 -0.26370556861E+02 -0.15903363508E+02  0.42669662519E+02  0.47000000000E+01 0. -1.
        -11    1    4    4    0    0 -0.28811816976E+01  0.13484484134E+02 -0.96331393236E+02  0.97313256256E+02  0.00000000000E+00 0.  1.
         12    1    4    4    0    0 -0.77923110008E+02  0.68028380721E+02 -0.10071120695E+03  0.14436972973E+03  0.00000000000E+00 0. -1.
         -5    1    5    5    0  502  0.27456587238E+02  0.17951460552E+02  0.10654754658E+02  0.34809954259E+02  0.47000000000E+01 0.  1.
         13    1    6    6    0    0  0.24289262748E+02  0.98725350966E+01 -0.59323017942E+02  0.64858736434E+02  0.00000000000E+00 0. -1.
        -14    1    6    6    0    0 -0.10123693897E+00 -0.82966303643E+02 -0.15455170166E+03  0.17541278823E+03  0.00000000000E+00 0.  1.
</event>
<event>
12    1  0.8747122E-002  0.2287154E+03  0.7818608E-02  0.1128241E+00
         21   -1    0    0  503  502  0.00000000000E+00  0.00000000000E+00  0.20860014777E+03  0.20860014777E+03  0.00000000000E+00 0. -1.
         21   -1    0    0  501  503 -0.00000000000E+00 -0.00000000000E+00 -0.24675556994E+03  0.24675556994E+03  0.00000000000E+00 0.  1.
          6    2    1    2  501    0  0.13609766008E+01 -0.14505067190E+03 -0.12474739182E+02  0.22905537970E+03  0.17683098760E+03 0.  0.
         24    2    3    3    0    0  0.10345827174E+02 -0.15433699799E+03 -0.56370169464E+02  0.18305687764E+03  0.80032989185E+02 0.  0.
         -6    2    1    2    0  502 -0.13609766008E+01  0.14505067190E+03 -0.25680682995E+02  0.22630033801E+03  0.17178706537E+03 0.  0.
        -24    2    5    5    0    0 -0.10813612146E+02  0.17364014824E+03 -0.33906150268E+02  0.19473360254E+03  0.80645605238E+02 0.  0.
          5    1    3    3  501    0 -0.89848505731E+01  0.92863260873E+01  0.43895430282E+02  0.45998502059E+02  0.47000000000E+01 0. -1.
        -11    1    4    4    0    0  0.83423689742E+01  0.79919240308E+01 -0.63572711046E+01  0.13186389412E+02  0.00000000000E+00 0.  1.
         12    1    4    4    0    0  0.20034581997E+01 -0.16232892202E+03 -0.50012898359E+02  0.16987048823E+03  0.00000000000E+00 0. -1.
         -5    1    5    5    0  502  0.94526355452E+01 -0.28589476340E+02  0.82254672736E+01  0.31566735467E+02  0.47000000000E+01 0.  1.
         11    1    6    6    0    0  0.17228653690E+02  0.16632079586E+02  0.14577085718E+02  0.28034692925E+02  0.00000000000E+00 0. -1.
        -12    1    6    6    0    0 -0.28042265836E+02  0.15700806865E+03 -0.48483235987E+02  0.16669890962E+03  0.00000000000E+00 0.  1.
</event>
<event>
12    1  0.8747122E-002  0.2702121E+03  0.7818608E-02  0.1101202E+00
         21   -1    0    0  501  502  0.00000000000E+00  0.00000000000E+00  0.36531905503E+03  0.36531905503E+03  0.00000000000E+00 0. -1.
         21   -1    0    0  502  503 -0.00000000000E+00 -0.00000000000E+00 -0.48129457620E+03  0.48129457620E+03  0.00000000000E+00 0.  1.
         -6    2    1    2    0  503  0.23345000080E+01  0.20828769433E+03 -0.38179693313E+03  0.46756796095E+03  0.17164406911E+03 0.  0.
        -24    2    3    3    0    0 -0.32029116344E+02  0.19379761969E+03 -0.37308200726E+03  0.42898220808E+03  0.79070658360E+02 0.  0.
          6    2    1    2  501    0 -0.23345000080E+01 -0.20828769433E+03  0.26582141196E+03  0.37904567028E+03  0.17212025913E+03 0.  0.
         24    2    5    5    0    0 -0.17771187792E+02 -0.21026790926E+03  0.17229889899E+03  0.28412063136E+03  0.80679698768E+02 0.  0.
          5    1    5    5  501    0  0.15436687784E+02  0.19802149273E+01  0.93522512973E+02  0.94925038919E+02  0.47000000000E+01 0. -1.
        -13    1    6    6    0    0  0.21031693728E+02 -0.13135119777E+03  0.13194609517E+03  0.18736392750E+03  0.00000000000E+00 0.  1.
         14    1    6    6    0    0 -0.38802881520E+02 -0.78916711492E+02  0.40352803815E+02  0.96756703864E+02  0.00000000000E+00 0. -1.
         -5    1    3    3    0  503  0.34363616352E+02  0.14490074641E+02 -0.87149258694E+01  0.38585752873E+02  0.47000000000E+01 0.  1.
         11    1    4    4    0    0  0.89232180721E+01  0.33901830109E+02 -0.22964520517E+02  0.41908556502E+02  0.00000000000E+00 0. -1.
        -12    1    4    4    0    0 -0.40952334416E+02  0.15989578958E+03 -0.35011748674E+03  0.38707365157E+03  0.00000000000E+00 0.  1.
</event>
<event>
12    1  0.8747122E-002  0.2299997E+03  0.7818608E-02  0.1126963E+00
         21   -1    0    0  501  502  0.00000000000E+00  0.00000000000E+00  0.29862889412E+03  0.29862889412E+03  0.00000000000E+00 0. -1.
         21   -1    0    0  502  503 -0.00000000000E+00 -0.00000000000E+00 -0.25724217128E+03  0.25724217128E+03  0.00000000000E+00 0.  1.
         -6    2    1    2    0  503 -0.14972867367E+03  0.33041909436E+02 -0.13569554610E+03  0.26704521286E+03  0.17143343017E+03 0.  0.
        -24    2    3    3    0    0 -0.15423851585E+03  0.57855876365E+02 -0.67437936750E+02  0.19412564851E+03  0.77460118082E+02 0.  0.
          6    2    1    2  501    0  0.14972867367E+03 -0.33041909436E+02  0.17708226894E+03  0.28882585254E+03  0.16897277776E+03 0.  0.
         24    2    5    5    0    0  0.14005314451E+02  0.10525760167E+02  0.34378288863E+02  0.87069841470E+02  0.78053507855E+02 0.  0.
          5    1    5    5  501    0  0.13572335922E+03 -0.43567669603E+02  0.14270398008E+03  0.20175601107E+03  0.47000000000E+01 0. -1.
        -13    1    6    6    0    0  0.34781081730E+02 -0.20402903166E+02  0.72234199863E+01  0.40965594103E+02  0.00000000000E+00 0.  1.
         14    1    6    6    0    0 -0.20775767279E+02  0.30928663333E+02  0.27154868877E+02  0.46104247367E+02  0.00000000000E+00 0. -1.
         -5    1    3    3    0  503  0.45098421793E+01 -0.24813966929E+02 -0.68257609349E+02  0.72919564352E+02  0.47000000000E+01 0.  1.
         11    1    4    4    0    0 -0.13459810353E+02 -0.14239192941E+02 -0.22216220986E+02  0.29622315664E+02  0.00000000000E+00 0. -1.
        -12    1    4    4    0    0 -0.14077870550E+03  0.72095069307E+02 -0.45221715763E+02  0.16450333284E+03  0.00000000000E+00 0.  1.
</event>
<event>
12    1  0.8747122E-002  0.1853510E+03  0.7818608E-02  0.1162784E+00
         21   -1    0    0  503  502  0.00000000000E+00  0.00000000000E+00  0.65334949927E+03  0.65334949927E+03  0.00000000000E+00 0.  1.
         21   -1    0    0  501  503 -0.00000000000E+00 -0.00000000000E+00 -0.67116605468E+02  0.67116605468E+02  0.00000000000E+00 0. -1.
          6    2    1    2  501    0  0.36418238597E+02  0.59211942920E+02  0.46101519237E+03  0.49678227894E+03  0.17153799226E+03 0.  0.
         24    2    3    3    0    0 -0.41372820563E+02  0.44199685991E+02  0.30470953595E+03  0.32148149466E+03  0.82686925102E+02 0.  0.
         -6    2    1    2    0  502 -0.36418238597E+02 -0.59211942920E+02  0.12521770144E+03  0.22368382580E+03  0.17182153208E+03 0.  0.
        -24    2    5    5    0    0 -0.64932613064E+02 -0.79637958962E+02  0.13459313559E+03  0.18707398494E+03  0.79516758910E+02 0.  0.
          5    1    3    3  501    0  0.77791059159E+02  0.15012256929E+02  0.15630565641E+03  0.17530078428E+03  0.47000000000E+01 0. -1.
        -13    1    4    4    0    0  0.18035045724E-01 -0.14714848010E+02  0.15132176547E+03  0.15203553460E+03  0.00000000000E+00 0.  1.
         14    1    4    4    0    0 -0.41390855608E+02  0.58914534001E+02  0.15338777049E+03  0.16944596006E+03  0.00000000000E+00 0. -1.
         -5    1    5    5    0  502  0.28514374468E+02  0.20426016042E+02 -0.93754341465E+01  0.36609840863E+02  0.47000000000E+01 0.  1.
         11    1    6    6    0    0 -0.55780667243E+02 -0.87115814522E+02  0.78789108827E+02  0.13003219466E+03  0.00000000000E+00 0. -1.
        -12    1    6    6    0    0 -0.91519458215E+01  0.74778555601E+01  0.55804026758E+02  0.57041790282E+02  0.00000000000E+00 0.  1.
</event>
<event>
12    1  0.8747122E-002  0.1985321E+03  0.7818608E-02  0.1151774E+00
         21   -1    0    0  501  502  0.00000000000E+00  0.00000000000E+00  0.60665354548E+02  0.60665354548E+02  0.00000000000E+00 0. -1.
         21   -1    0    0  502  503 -0.00000000000E+00 -0.00000000000E+00 -0.65599826777E+03  0.65599826777E+03  0.00000000000E+00 0.  1.
         -6    2    1    2    0  503 -0.59709194215E+02 -0.72618342152E+02 -0.36016244308E+03  0.41125656622E+03  0.17486099154E+03 0.  0.
        -24    2    3    3    0    0 -0.39411531799E+02  0.25842057544E+01 -0.69250448742E+02  0.11006012407E+03  0.75879241575E+02 0.  0.
          6    2    1    2  501    0  0.59709194215E+02  0.72618342152E+02 -0.23517047013E+03  0.30540705609E+03  0.17067427573E+03 0.  0.
         24    2    5    5    0    0 -0.22397309440E+02  0.94455142918E+01 -0.62170974772E+02  0.10370628882E+03  0.79365653946E+02 0.  0.
          5    1    5    5  501    0  0.82106503655E+02  0.63172827860E+02 -0.17299949536E+03  0.20170076727E+03  0.47000000000E+01 0. -1.
        -13    1    6    6    0    0  0.58334675981E+00  0.35014591113E+02 -0.59732739698E+02  0.69241332137E+02  0.00000000000E+00 0.  1.
         14    1    6    6    0    0 -0.22980656200E+02 -0.25569076822E+02 -0.24382350741E+01  0.34464956683E+02  0.00000000000E+00 0. -1.
         -5    1    3    3    0  503 -0.20297662416E+02 -0.75202547906E+02 -0.29091199434E+03  0.30119644215E+03  0.47000000000E+01 0.  1.
         11    1    4    4    0    0  0.19001343856E+02 -0.15356187895E+02 -0.20389161959E+02  0.31821085783E+02  0.00000000000E+00 0. -1.
        -12    1    4    4    0    0 -0.58412875655E+02  0.17940393649E+02 -0.48861286782E+02  0.78239038290E+02  0.00000000000E+00 0.  1.
</event>
<event>
12    1  0.8747122E-002  0.2534624E+03  0.7818608E-02  0.1111367E+00
         21   -1    0    0  501  502  0.00000000000E+00  0.00000000000E+00  0.10515586710E+03  0.10515586710E+03  0.00000000000E+00 0. -1.
         21   -1    0    0  502  503 -0.00000000000E+00 -0.00000000000E+00 -0.13947010311E+04  0.13947010311E+04  0.00000000000E+00 0.  1.
         -6    2    1    2    0  503  0.68354945857E+02 -0.17300330158E+03 -0.12074039226E+04  0.12334166819E+04  0.16997040273E+03 0.  0.
        -24    2    3    3    0    0  0.57399522438E+02 -0.37030653662E+02 -0.36229388142E+03  0.37735497031E+03  0.80460814159E+02 0.  0.
          6    2    1    2  501    0 -0.68354945857E+02  0.17300330158E+03 -0.82141241407E+02  0.26644021635E+03  0.17216464319E+03 0.  0.
         24    2    5    5    0    0 -0.95049514847E+02  0.69367440750E+02 -0.16869953982E+02  0.14099930346E+03  0.75828465102E+02 0.  0.
          5    1    5    5  501    0  0.26694568990E+02  0.10363586084E+03 -0.65271287426E+02  0.12544091289E+03  0.47000000000E+01 0. -1.
        -11    1    6    6    0    0 -0.50308256450E+02  0.40210143100E+02 -0.46956615820E+02  0.79703827037E+02  0.00000000000E+00 0.  1.
         12    1    6    6    0    0 -0.44741258397E+02  0.29157297649E+02  0.30086661838E+02  0.61295476421E+02  0.00000000000E+00 0. -1.
         -5    1    3    3    0  503  0.10955423419E+02 -0.13597264792E+03 -0.84511004120E+03  0.85606171157E+03  0.47000000000E+01 0.  1.
         13    1    4    4    0    0  0.54183413178E+02 -0.37650141501E+02 -0.13723433380E+03  0.15227159220E+03  0.00000000000E+00 0. -1.
        -14    1    4    4    0    0  0.32161092601E+01  0.61948783975E+00 -0.22505954763E+03  0.22508337811E+03  0.00000000000E+00 0.  1.
</event>
<event>
12    1  0.8747122E-002  0.3465501E+03  0.7818608E-02  0.1064121E+00
         21   -1    0    0  501  502  0.00000000000E+00  0.00000000000E+00  0.52282560197E+03  0.52282560197E+03  0.00000000000E+00 0. -1.
         21   -1    0    0  502  503 -0.00000000000E+00 -0.00000000000E+00 -0.36167683050E+03  0.36167683050E+03  0.00000000000E+00 0.  1.
         -6    2    1    2    0  503  0.14154296356E+03  0.26515910168E+03 -0.18714886015E+03  0.39316931585E+03  0.17092002615E+03 0.  0.
        -24    2    3    3    0    0  0.15030348709E+03  0.25590018917E+03 -0.12952298036E+03  0.33396368898E+03  0.81728196257E+02 0.  0.
          6    2    1    2  501    0 -0.14154296356E+03 -0.26515910168E+03  0.34829763161E+03  0.49133311661E+03  0.17249125068E+03 0.  0.
         24    2    5    5    0    0 -0.14688616589E+03 -0.26396336549E+03  0.27002782447E+03  0.41273138440E+03  0.78612757464E+02 0.  0.
          5    1    5    5  501    0  0.53432023233E+01 -0.11957361852E+01  0.78269807144E+02  0.78601732210E+02  0.47000000000E+01 0. -1.
        -11    1    6    6    0    0 -0.70489240928E+02 -0.55611658890E+02  0.68023680876E+02  0.11264373418E+03  0.00000000000E+00 0.  1.
         12    1    6    6    0    0 -0.76396924958E+02 -0.20835170660E+03  0.20200414359E+03  0.30008765022E+03  0.00000000000E+00 0. -1.
         -5    1    3    3    0  503 -0.87605235233E+01  0.92589125044E+01 -0.57625879784E+02  0.59205626878E+02  0.47000000000E+01 0.  1.
         13    1    4    4    0    0  0.64078523114E+02  0.18274729016E+03 -0.68089539606E+02  0.20527740886E+03  0.00000000000E+00 0. -1.
        -14    1    4    4    0    0  0.86224963972E+02  0.73152899008E+02 -0.61433440758E+02  0.12868628011E+03  0.00000000000E+00 0.  1.
</event>
<event>
12    1  0.8747122E-002  0.1979922E+03  0.7818608E-02  0.1151751E+00
         21   -1    0    0  501  502  0.00000000000E+00  0.00000000000E+00  0.29674268679E+03  0.29674268679E+03  0.00000000000E+00 0.  1.
         21   -1    0    0  502  503 -0.00000000000E+00 -0.00000000000E+00 -0.22021672072E+03  0.22021672072E+03  0.00000000000E+00 0. -1.
         -6    2    1    2    0  503 -0.72422501750E+01  0.10107843120E+03 -0.12603649327E+03  0.23470434228E+03  0.17009300753E+03 0.  0.
        -24    2    3    3    0    0  0.16212512725E+02  0.11407416552E+03 -0.14451965883E+03  0.20179944261E+03  0.81001990354E+02 0.  0.
          6    2    1    2  501    0  0.72422501750E+01 -0.10107843120E+03  0.20256245933E+03  0.28225506523E+03  0.16842527267E+03 0.  0.
         24    2    5    5    0    0 -0.50242083715E+02 -0.33241084634E+02  0.13769046149E+03  0.17208782720E+03  0.83823149552E+02 0.  0.
          5    1    5    5  501    0  0.57484333890E+02 -0.67837346561E+02  0.64871997847E+02  0.11016723803E+03  0.47000000000E+01 0. -1.
        -11    1    6    6    0    0  0.10144641221E+02 -0.34521008871E+02  0.23702910421E+02  0.43086445217E+02  0.00000000000E+00 0.  1.
         12    1    6    6    0    0 -0.60386724936E+02  0.12799242367E+01  0.11398755107E+03  0.12900138198E+03  0.00000000000E+00 0. -1.
         -5    1    3    3    0  503 -0.23454762900E+02 -0.12995734322E+02  0.18483165564E+02  0.32904899674E+02  0.47000000000E+01 0.  1.
         13    1    4    4    0    0  0.14737182621E+02  0.12548982746E+03 -0.11797673915E+03  0.17286813566E+03  0.00000000000E+00 0. -1.
        -14    1    4    4    0    0  0.14753301042E+01 -0.11415661940E+02 -0.26542919684E+02  0.28931306949E+02  0.00000000000E+00 0.  1.
</event>
<event>
12    1  0.8747122E-002  0.1831842E+03  0.7818608E-02  0.1165036E+00
         21   -1    0    0  503  502  0.00000000000E+00  0.00000000000E+00  0.29815082193E+03  0.29815082193E+03  0.00000000000E+00 0.  1.
         21   -1    0    0  501  503 -0.00000000000E+00 -0.00000000000E+00 -0.13710161803E+03  0.13710161803E+03  0.00000000000E+00 0.  1.
          6    2    1    2  501    0  0.46606851931E+02  0.35818579974E+02 -0.12706112490E+02  0.18362429388E+03  0.17349716623E+03 0.  0.
         24    2    3    3    0    0  0.32489662961E+02 -0.31954863549E+02  0.35692246166E+02  0.99025087075E+02  0.80345130095E+02 0.  0.
         -6    2    1    2    0  502 -0.46606851931E+02 -0.35818579974E+02  0.17375531640E+03  0.25162814608E+03  0.17225168970E+03 0.  0.
        -24    2    5    5    0    0  0.16103133456E+02 -0.22504674134E+02  0.21324779672E+02  0.86198520914E+02  0.78801443608E+02 0.  0.
          5    1    3    3  501    0  0.14117188971E+02  0.67773443523E+02 -0.48398358656E+02  0.84599206805E+02  0.47000000000E+01 0. -1.
        -11    1    4    4    0    0  0.10769290926E+02  0.25371910476E+02 -0.99749616193E+00  0.27580907651E+02  0.00000000000E+00 0.  1.
         12    1    4    4    0    0  0.21720372035E+02 -0.57326774025E+02  0.36689742328E+02  0.71444179424E+02  0.00000000000E+00 0. -1.
         -5    1    5    5    0  502 -0.62709985388E+02 -0.13313905840E+02  0.15243053672E+03  0.16542962516E+03  0.47000000000E+01 0.  1.
         11    1    6    6    0    0  0.15246112842E+02 -0.38318181987E+02  0.42852469381E+02  0.59473196985E+02  0.00000000000E+00 0. -1.
        -12    1    6    6    0    0  0.85702061451E+00  0.15813507853E+02 -0.21527689709E+02  0.26725323930E+02  0.00000000000E+00 0.  1.
</event>
<event>
12    1  0.8747122E-002  0.2026192E+03  0.7818608E-02  0.1147751E+00
         21   -1    0    0  503  502  0.00000000000E+00  0.00000000000E+00  0.13221289396E+03  0.13221289396E+03  0.00000000000E+00 0.  1.
         21   -1    0    0  501  503 -0.00000000000E+00 -0.00000000000E+00 -0.72364225102E+03  0.72364225102E+03  0.00000000000E+00 0.  1.
          6    2    1    2  501    0  0.65917602357E+02 -0.81250522192E+02 -0.61932579377E+03  0.65132454882E+03  0.17237300082E+03 0.  0.
         24    2    3    3    0    0  0.80471474772E+02 -0.75811309481E+02 -0.62014103124E+03  0.63507170755E+03  0.80735136179E+02 0.  0.
         -6    2    1    2    0  502 -0.65917602357E+02  0.81250522192E+02  0.27896436719E+02  0.20453059616E+03  0.17351592413E+03 0.  0.
        -24    2    5    5    0    0  0.23899601607E+02  0.55501519432E+01  0.15187088422E+01  0.84050096856E+02  0.80374854036E+02 0.  0.
          5    1    3    3  501    0 -0.14553872415E+02 -0.54392127112E+01  0.81523746595E+00  0.16252841269E+02  0.47000000000E+01 0. -1.
        -11    1    4    4    0    0  0.39455352454E+02 -0.13004036092E+02 -0.84032615863E+02  0.93740654578E+02  0.00000000000E+00 0.  1.
         12    1    4    4    0    0  0.41016122318E+02 -0.62807273389E+02 -0.53610841537E+03  0.54133105298E+03  0.00000000000E+00 0. -1.
         -5    1    5    5    0  502 -0.89817203964E+02  0.75700370249E+02  0.26377727877E+02  0.12048049930E+03  0.47000000000E+01 0.  1.
         11    1    6    6    0    0 -0.11359384053E+02 -0.23843577416E+01  0.33709468968E+02  0.35651775075E+02  0.00000000000E+00 0. -1.
        -12    1    6    6    0    0  0.35258985660E+02  0.79345096848E+01 -0.32190760126E+02  0.48398321781E+02  0.00000000000E+00 0.  1.
</event>
<event>
12    1  0.8747122E-002  0.1946930E+03  0.7818608E-02  0.1154722E+00
         21   -1    0    0  501  502  0.00000000000E+00  0.00000000000E+00  0.14617875516E+03  0.14617875516E+03  0.00000000000E+00 0.  1.
         21   -1    0    0  502  503 -0.00000000000E+00 -0.00000000000E+00 -0.34008832132E+03  0.34008832132E+03  0.00000000000E+00 0. -1.
         -6    2    1    2    0  503  0.75101638073E+02 -0.50116936404E+02 -0.21769331568E+03  0.29205435823E+03  0.17249175375E+03 0.  0.
        -24    2    3    3    0    0  0.85183312303E+02 -0.75977657468E+02 -0.22322293552E+03  0.26336492211E+03  0.80646153813E+02 0.  0.
          6    2    1    2  501    0 -0.75101638073E+02  0.50116936404E+02  0.23783749525E+02  0.19421271825E+03  0.17029665244E+03 0.  0.
         24    2    5    5    0    0 -0.81458822417E+02  0.41514729044E+02  0.76241306938E+02  0.14046983878E+03  0.74565583518E+02 0.  0.
          5    1    5    5  501    0  0.63571843441E+01  0.86022073592E+01 -0.52457557413E+02  0.53742879472E+02  0.47000000000E+01 0. -1.
        -13    1    6    6    0    0 -0.49345708328E+02  0.33098308783E+02  0.23509805809E+01  0.59464477500E+02  0.00000000000E+00 0.  1.
         14    1    6    6    0    0 -0.32113114089E+02  0.84164202615E+01  0.73890326357E+02  0.81005361278E+02  0.00000000000E+00 0. -1.
         -5    1    3    3    0  503 -0.10081674230E+02  0.25860721064E+02  0.55296198436E+01  0.28689436119E+02  0.47000000000E+01 0.  1.
         13    1    4    4    0    0  0.20127242828E+02 -0.38979313518E+02 -0.22833104611E+02  0.49455469388E+02  0.00000000000E+00 0. -1.
        -14    1    4    4    0    0  0.65056069475E+02 -0.36998343949E+02 -0.20038983091E+03  0.21390945272E+03  0.00000000000E+00 0.  1.
</event>
<event>
12    1  0.8747122E-002  0.1753635E+03  0.7818608E-02  0.1172483E+00
         21   -1    0    0  501  502  0.00000000000E+00  0.00000000000E+00  0.27782353150E+03  0.27782353150E+03  0.00000000000E+00 0.  1.
         21   -1    0    0  502  503 -0.00000000000E+00 -0.00000000000E+00 -0.14763226942E+03  0.14763226942E+03  0.00000000000E+00 0.  1.
         -6    2    1    2    0  503 -0.28862485356E+02 -0.74753457438E+01 -0.41800172452E+02  0.17982717695E+03  0.17234162381E+03 0.  0.
        -24    2    3    3    0    0  0.30591784013E+02 -0.49089126038E+02 -0.21834954016E+02  0.10441353890E+03  0.84141680192E+02 0.  0.
          6    2    1    2  501    0  0.28862485356E+02  0.74753457438E+01  0.17199143453E+03  0.24562862397E+03  0.17281042650E+03 0.  0.
         24    2    5    5    0    0 -0.39713356345E+02 -0.15348853787E+02  0.14443511917E+03  0.16813649104E+03  0.74803997119E+02 0.  0.
          5    1    5    5  501    0  0.68575841701E+02  0.22824199531E+02  0.27556315357E+02  0.77492132925E+02  0.47000000000E+01 0. -1.
        -11    1    6    6    0    0  0.16840748608E+02 -0.16844700665E+02  0.74319329483E+02  0.78043048947E+02  0.00000000000E+00 0.  1.
         12    1    6    6    0    0 -0.56554104953E+02  0.14958468775E+01  0.70115789692E+02  0.90093442098E+02  0.00000000000E+00 0. -1.
         -5    1    3    3    0  503 -0.59454269368E+02  0.41613780294E+02 -0.19965218436E+02  0.75413638048E+02  0.47000000000E+01 0.  1.
         11    1    4    4    0    0 -0.87475346343E+01 -0.60411011595E+02 -0.10504642197E+02  0.61938333783E+02  0.00000000000E+00 0. -1.
        -12    1    4    4    0    0  0.39339318647E+02  0.11321885558E+02 -0.11330311819E+02  0.42475205121E+02  0.00000000000E+00 0.  1.
</event>
<event>
12    1  0.8747122E-002  0.1877745E+03  0.7818608E-02  0.1160518E+00
         21   -1    0    0  501  502  0.00000000000E+00  0.00000000000E+00  0.12853234354E+03  0.12853234354E+03  0.00000000000E+00 0.  1.
         21   -1    0    0  502  503 -0.00000000000E+00 -0.00000000000E+00 -0.31273801820E+03  0.31273801820E+03  0.00000000000E+00 0.  1.
         -6    2    1    2    0  503 -0.74805051503E+02 -0.19623306988E+01 -0.16967730138E+03  0.25308031474E+03  0.17221966391E+03 0.  0.
        -24    2    3    3    0    0 -0.69549156367E+02 -0.38671045481E+00 -0.24713333592E+02  0.10793642418E+03  0.78754606917E+02 0.  0.
          6    2    1    2  501    0  0.74805051503E+02  0.19623306988E+01 -0.14528373290E+02  0.18819004700E+03  0.17206037802E+03 0.  0.
         24    2    5    5    0    0  0.10468365958E+03 -0.27152998111E+02  0.17370929656E+02  0.13546349656E+03  0.79703549568E+02 0.  0.
          5    1    5    5  501    0 -0.29878608077E+02  0.29115328810E+02 -0.31899302946E+02  0.52726550435E+02  0.47000000000E+01 0. -1.
        -13    1    6    6    0    0  0.25660918280E+02  0.24246633588E+02 -0.11068726373E+02  0.36998630662E+02  0.00000000000E+00 0.  1.
         14    1    6    6    0    0  0.79022741299E+02 -0.51399631699E+02  0.28439656029E+02  0.98464865898E+02  0.00000000000E+00 0. -1.
         -5    1    3    3    0  503 -0.52558951359E+01 -0.15756202440E+01 -0.14496396779E+03  0.14514389057E+03  0.47000000000E+01 0.  1.
         13    1    4    4    0    0 -0.63296548674E+01  0.31560971772E+02 -0.17756967447E+02  0.36762336200E+02  0.00000000000E+00 0. -1.
        -14    1    4    4    0    0 -0.63219501499E+02 -0.31947682227E+02 -0.69563661444E+01  0.71174087977E+02  0.00000000000E+00 0.  1.
</event>
<event>
12    1  0.8747122E-002  0.2068662E+03  0.7818608E-02  0.1144262E+00
         21   -1    0    0  501  502  0.00000000000E+00  0.00000000000E+00  0.77394848927E+02  0.77394848927E+02  0.00000000000E+00 0. -1.
         21   -1    0    0  502  503 -0.00000000000E+00 -0.00000000000E+00 -0.63746489314E+03  0.63746489314E+03  0.00000000000E+00 0.  1.
         -6    2    1    2    0  503 -0.26882808837E+02  0.11025631872E+03 -0.41156537220E+03  0.46020844931E+03  0.17183311672E+03 0.  0.
        -24    2    3    3    0    0 -0.38139270878E+02  0.35595479718E+02 -0.89230216705E+02  0.12911482013E+03  0.77375467982E+02 0.  0.
          6    2    1    2  501    0  0.26882808837E+02 -0.11025631872E+03 -0.14850467201E+03  0.25465129275E+03  0.17295809337E+03 0.  0.
         24    2    5    5    0    0  0.88881833142E+01 -0.11837508079E+03 -0.45179031412E+02  0.14935172556E+03  0.78569291029E+02 0.  0.
          5    1    5    5  501    0  0.17994625523E+02  0.81187620741E+01 -0.10332564060E+03  0.10529956719E+03  0.47000000000E+01 0. -1.
        -11    1    6    6    0    0  0.20113969947E+02 -0.89473849690E+02 -0.65130999625E+02  0.11248194823E+03  0.00000000000E+00 0.  1.
         12    1    6    6    0    0 -0.11225786633E+02 -0.28901231102E+02  0.19951968212E+02  0.36869777329E+02  0.00000000000E+00 0. -1.
         -5    1    3    3    0  503  0.11256462042E+02  0.74660839000E+02 -0.32233515549E+03  0.33109362918E+03  0.47000000000E+01 0.  1.
         11    1    4    4    0    0 -0.35209869778E+02 -0.81601557368E+01 -0.74584165807E+02  0.82880159632E+02  0.00000000000E+00 0. -1.
        -12    1    4    4    0    0 -0.29294011004E+01  0.43755635454E+02 -0.14646050898E+02  0.46234660502E+02  0.00000000000E+00 0.  1.
</event>
<event>
12    1  0.8747122E-002  0.1773799E+03  0.7818608E-02  0.1170441E+00
         21   -1    0    0  503  502  0.00000000000E+00  0.00000000000E+00  0.97367423425E+03  0.97367423425E+03  0.00000000000E+00 0.  1.
         21   -1    0    0  501  503 -0.00000000000E+00 -0.00000000000E+00 -0.35400029260E+02  0.35400029260E+02  0.00000000000E+00 0.  1.
          6    2    1    2  501    0  0.12174413171E+02 -0.40238801957E+02  0.31917865259E+03  0.36515563546E+03  0.17232599433E+03 0.  0.
         24    2    3    3    0    0  0.41175694003E+02 -0.41425531720E+02  0.88578157839E+02  0.13268808763E+03  0.79677638626E+02 0.  0.
         -6    2    1    2    0  502 -0.12174413171E+02  0.40238801957E+02  0.61909555240E+03  0.64391862805E+03  0.17200150879E+03 0.  0.
        -24    2    5    5    0    0 -0.57311209222E+00  0.60542666787E+02  0.19890895221E+03  0.22305557895E+03  0.80766806754E+02 0.  0.
          5    1    3    3  501    0 -0.29001280832E+02  0.11867297624E+01  0.23060049475E+03  0.23246754783E+03  0.47000000000E+01 0. -1.
        -13    1    4    4    0    0  0.13043582534E+02  0.20196005108E+01  0.78945541472E+02  0.80041316517E+02  0.00000000000E+00 0.  1.
         14    1    4    4    0    0  0.28132111469E+02 -0.43445132230E+02  0.96326163679E+01  0.52646771110E+02  0.00000000000E+00 0. -1.
         -5    1    5    5    0  502 -0.11601301079E+02 -0.20303864830E+02  0.42018660020E+03  0.42086304910E+03  0.47000000000E+01 0.  1.
         11    1    6    6    0    0  0.37073263786E+02  0.20699324266E+02  0.58168382882E+02  0.72017009657E+02  0.00000000000E+00 0. -1.
        -12    1    6    6    0    0 -0.37646375878E+02  0.39843342521E+02  0.14074056932E+03  0.15103856929E+03  0.00000000000E+00 0.  1.
</event>
<event>
12    1  0.8747122E-002  0.2877146E+03  0.7818608E-02  0.1091881E+00
         21   -1    0    0  501  502  0.00000000000E+00  0.00000000000E+00  0.39414495014E+03  0.39414495014E+03  0.00000000000E+00 0.  1.
         21   -1    0    0  502  503 -0.00000000000E+00 -0.00000000000E+00 -0.21507052410E+03  0.21507052410E+03  0.00000000000E+00 0.  1.
         -6    2    1    2    0  503  0.11471216843E+03  0.19737789282E+03  0.35445479398E+02  0.28988979560E+03  0.17510795935E+03 0.  0.
        -24    2    3    3    0    0  0.57694211333E+02  0.13771586871E+03 -0.44778376477E+02  0.17470055304E+03  0.78872667736E+02 0.  0.
          6    2    1    2  501    0 -0.11471216843E+03 -0.19737789282E+03  0.14362894663E+03  0.31932567864E+03  0.17094648451E+03 0.  0.
         24    2    5    5    0    0 -0.76296698683E+02 -0.20251364413E+03  0.15642422933E+03  0.27824121057E+03  0.78209139178E+02 0.  0.
          5    1    5    5  501    0 -0.38415469743E+02  0.51357513106E+01 -0.12795282693E+02  0.41084468066E+02  0.47000000000E+01 0. -1.
        -13    1    6    6    0    0 -0.34801926657E+02 -0.17487128403E+03  0.13648782638E+03  0.22454413114E+03  0.00000000000E+00 0.  1.
         14    1    6    6    0    0 -0.41494772026E+02 -0.27642360093E+02  0.19936402950E+02  0.53697079432E+02  0.00000000000E+00 0. -1.
         -5    1    3    3    0  503  0.57017957093E+02  0.59662024110E+02  0.80223855875E+02  0.11518924257E+03  0.47000000000E+01 0.  1.
         11    1    4    4    0    0 -0.13633653965E+02  0.32455324741E+02  0.94796100252E+01  0.36456654135E+02  0.00000000000E+00 0. -1.
        -12    1    4    4    0    0  0.71327865297E+02  0.10526054397E+03 -0.54257986502E+02  0.13824389890E+03  0.00000000000E+00 0.  1.
</event>
<event>
12    1  0.8747122E-002  0.2073942E+03  0.7818608E-02  0.1144268E+00
         21   -1    0    0  501  502  0.00000000000E+00  0.00000000000E+00  0.27425791728E+03  0.27425791728E+03  0.00000000000E+00 0. -1.
         21   -1    0    0  502  503 -0.00000000000E+00 -0.00000000000E+00 -0.17989645322E+03  0.17989645322E+03  0.00000000000E+00 0. -1.
         -6    2    1    2    0  503  0.11286617833E+03  0.23523737608E+02  0.13276486000E+03  0.24624962450E+03  0.17239555989E+03 0.  0.
        -24    2    3    3    0    0  0.13551903724E+03  0.37389869451E+02  0.14463812672E+03  0.21677953641E+03  0.79434047574E+02 0.  0.
          6    2    1    2  501    0 -0.11286617833E+03 -0.23523737608E+02 -0.38403395944E+02  0.20790474601E+03  0.16869327832E+03 0.  0.
         24    2    5    5    0    0 -0.10772201435E+03 -0.54465233961E+02 -0.71989324741E+02  0.16171012259E+03  0.79982540503E+02 0.  0.
          5    1    5    5  501    0 -0.51441639866E+01  0.30941496354E+02  0.33585928797E+02  0.46194623420E+02  0.47000000000E+01 0. -1.
        -11    1    6    6    0    0 -0.30702920263E+02 -0.11643676673E+02 -0.65595844787E+02  0.73355704430E+02  0.00000000000E+00 0.  1.
         12    1    6    6    0    0 -0.77019094082E+02 -0.42821557289E+02 -0.63934799541E+01  0.88354418157E+02  0.00000000000E+00 0. -1.
         -5    1    3    3    0  503 -0.22652858910E+02 -0.13866131843E+02 -0.11873266715E+02  0.29470088082E+02  0.47000000000E+01 0.  1.
         13    1    4    4    0    0  0.14203377212E+03  0.35224153764E+02  0.11432895304E+03  0.18570256577E+03  0.00000000000E+00 0. -1.
        -14    1    4    4    0    0 -0.65147348803E+01  0.21657156869E+01  0.30309173679E+02  0.31076970639E+02  0.00000000000E+00 0.  1.
</event>
<event>
12    1  0.6723109E-001  0.4726405E+03  0.7818608E-02  0.1021214E+00
         21   -1    0    0  503  502  0.00000000000E+00  0.00000000000E+00  0.21376839029E+04  0.21376839029E+04  0.00000000000E+00 0.  1.
         21   -1    0    0  501  503 -0.00000000000E+00 -0.00000000000E+00 -0.21819650862E+03  0.21819650862E+03  0.00000000000E+00 0. -1.
          6    2    1    2  501    0  0.86942760926E+02  0.43134971355E+03  0.18102183638E+04  0.18707734970E+04  0.17111789389E+03 0.  0.
         24    2    3    3    0    0  0.72507729857E+02  0.43187226018E+03  0.17947004821E+04  0.18490585752E+04  0.79352216278E+02 0.  0.
         -6    2    1    2    0  502 -0.86942760926E+02 -0.43134971355E+03  0.10926903048E+03  0.48510691446E+03  0.17253225314E+03 0.  0.
        -24    2    5    5    0    0 -0.64355984828E+02 -0.35621331606E+03  0.14629790982E+03  0.39822268926E+03  0.78413088858E+02 0.  0.
          5    1    3    3  501    0  0.14435031069E+02 -0.52254662555E+00  0.15517881682E+02  0.21714921801E+02  0.47000000000E+01 0. -1.
        -13    1    4    4    0    0  0.40240101654E+02  0.27351073575E+03  0.96772319583E+03  0.10064370681E+04  0.00000000000E+00 0.  1.
         14    1    4    4    0    0  0.32267628203E+02  0.15836152443E+03  0.82697728625E+03  0.84262150710E+03  0.00000000000E+00 0. -1.
         -5    1    5    5    0  502 -0.22586776098E+02 -0.75136397490E+02 -0.37028879339E+02  0.86884225193E+02  0.47000000000E+01 0.  1.
         13    1    6    6    0    0 -0.27544199183E+02 -0.18734425491E+03  0.34759295452E+02  0.19252210620E+03  0.00000000000E+00 0. -1.
        -14    1    6    6    0    0 -0.36811785646E+02 -0.16886906115E+03  0.11153861437E+03  0.20570058306E+03  0.00000000000E+00 0.  1.
</event>
<event>
12    1  0.8747122E-002  0.2477278E+03  0.7818608E-02  0.1114996E+00
         21   -1    0    0  501  502  0.00000000000E+00  0.00000000000E+00  0.52180585106E+03  0.52180585106E+03  0.00000000000E+00 0.  1.
         21   -1    0    0  502  503 -0.00000000000E+00 -0.00000000000E+00 -0.81170347714E+03  0.81170347714E+03  0.00000000000E+00 0. -1.
         -6    2    1    2    0  503 -0.16327282090E+03 -0.64387637712E+02 -0.76189859026E+03  0.80116072141E+03  0.17482922456E+03 0.  0.
        -24    2    3    3    0    0 -0.18307993266E+03 -0.37653146513E+02 -0.54771571094E+03  0.58435792971E+03  0.80905307742E+02 0.  0.
          6    2    1    2  501    0  0.16327282090E+03  0.64387637712E+02  0.47200096418E+03  0.53234860680E+03  0.17264514775E+03 0.  0.
         24    2    5    5    0    0  0.14116548042E+03 -0.51783940793E+01  0.39006302928E+03  0.42251198969E+03  0.80079373081E+02 0.  0.
          5    1    5    5  501    0  0.22107340476E+02  0.69566031791E+02  0.81937934895E+02  0.10983661710E+03  0.47000000000E+01 0. -1.
        -11    1    6    6    0    0  0.11876400536E+03  0.24104769600E+02  0.33499773796E+03  0.35624347478E+03  0.00000000000E+00 0.  1.
         12    1    6    6    0    0  0.22401475058E+02 -0.29283163680E+02  0.55065291326E+02  0.66268514912E+02  0.00000000000E+00 0. -1.
         -5    1    3    3    0  503  0.19807111758E+02 -0.26734491199E+02 -0.21418287932E+03  0.21680279170E+03  0.47000000000E+01 0.  1.
         11    1    4    4    0    0 -0.10155589765E+03 -0.29340452251E+02 -0.41608696364E+03  0.42930504749E+03  0.00000000000E+00 0. -1.
        -12    1    4    4    0    0 -0.81524035011E+02 -0.83126942625E+01 -0.13162874729E+03  0.15505288222E+03  0.00000000000E+00 0.  1.
</event>
<event>
12    1  0.8747122E-002  0.1975692E+03  0.7818608E-02  0.1152200E+00
         21   -1    0    0  501  502  0.00000000000E+00  0.00000000000E+00  0.14361624907E+03  0.14361624907E+03  0.00000000000E+00 0.  1.
         21   -1    0    0  502  503 -0.00000000000E+00 -0.00000000000E+00 -0.39510831543E+03  0.39510831543E+03  0.00000000000E+00 0. -1.
         -6    2    1    2    0  503 -0.42123195466E+02  0.82911634113E+02 -0.27815037256E+03  0.34117620050E+03  0.17431255654E+03 0.  0.
        -24    2    3    3    0    0 -0.37043460928E+02  0.11745768580E+03 -0.16636919048E+03  0.22397399892E+03  0.85540158398E+02 0.  0.
          6    2    1    2  501    0  0.42123195466E+02 -0.82911634113E+02  0.26658306203E+02  0.19754836399E+03  0.17223817277E+03 0.  0.
         24    2    5    5    0    0  0.60952453272E+01  0.74735542826E+01  0.59180115385E+02  0.94848541473E+02  0.73491181331E+02 0.  0.
          5    1    5    5  501    0  0.36027950139E+02 -0.90385188396E+02 -0.32521809182E+02  0.10269982252E+03  0.47000000000E+01 0. -1.
        -11    1    6    6    0    0 -0.11487225885E+02 -0.26943853197E+02  0.44975619647E+02  0.53672469165E+02  0.00000000000E+00 0.  1.
         12    1    6    6    0    0  0.17582471212E+02  0.34417407480E+02  0.14204495737E+02  0.41176072308E+02  0.00000000000E+00 0. -1.
         -5    1    3    3    0  503 -0.50797345380E+01 -0.34546051685E+02 -0.11178118208E+03  0.11720220159E+03  0.47000000000E+01 0.  1.
         11    1    4    4    0    0 -0.40087275390E+02  0.51743908375E+02 -0.13719764959E+03  0.15201189675E+03  0.00000000000E+00 0. -1.
        -12    1    4    4    0    0  0.30438144622E+01  0.65713777423E+02 -0.29171540894E+02  0.71962102164E+02  0.00000000000E+00 0.  1.
</event>
<event>
12    1  0.8747122E-002  0.2067498E+03  0.7818608E-02  0.1144444E+00
         21   -1    0    0  501  502  0.00000000000E+00  0.00000000000E+00  0.12260778346E+04  0.12260778346E+04  0.00000000000E+00 0. -1.
         21   -1    0    0  502  503 -0.00000000000E+00 -0.00000000000E+00 -0.63484261150E+02  0.63484261150E+02  0.00000000000E+00 0. -1.
         -6    2    1    2    0  503  0.98272130739E+02 -0.54522658190E+02  0.14767941474E+03  0.25407614708E+03  0.17353773953E+03 0.  0.
        -24    2    3    3    0    0  0.11266936161E+02 -0.83444246213E+02  0.10296718028E+03  0.15196034983E+03  0.73483478624E+02 0.  0.
          6    2    1    2  501    0 -0.98272130739E+02  0.54522658190E+02  0.10149141587E+04  0.10354859487E+04  0.17190191505E+03 0.  0.
         24    2    5    5    0    0  0.84772791102E+01  0.56715032789E+02  0.55094433340E+03  0.55936586737E+03  0.77859205456E+02 0.  0.
          5    1    5    5  501    0 -0.10674940985E+03 -0.21923745990E+01  0.46396982533E+03  0.47612008131E+03  0.47000000000E+01 0. -1.
        -11    1    6    6    0    0 -0.17363733783E+02  0.57151467496E+02  0.48287462707E+03  0.48655492491E+03  0.00000000000E+00 0.  1.
         12    1    6    6    0    0  0.25841012894E+02 -0.43643470729E+00  0.68069706324E+02  0.72810942458E+02  0.00000000000E+00 0. -1.
         -5    1    3    3    0  503  0.87005194578E+02  0.28921588023E+02  0.44712234460E+02  0.10211579725E+03  0.47000000000E+01 0.  1.
         11    1    4    4    0    0  0.35651534891E+02 -0.52910508968E+02  0.33021980838E+02  0.71840135842E+02  0.00000000000E+00 0. -1.
        -12    1    4    4    0    0 -0.24384598730E+02 -0.30533737245E+02  0.69945199442E+02  0.80120213993E+02  0.00000000000E+00 0.  1.
</event>
<event>
12    1  0.8747122E-002  0.1979846E+03  0.7818608E-02  0.1151613E+00
         21   -1    0    0  501  502  0.00000000000E+00  0.00000000000E+00  0.21031482726E+04  0.21031482726E+04  0.00000000000E+00 0. -1.
         21   -1    0    0  502  503 -0.00000000000E+00 -0.00000000000E+00 -0.28998373166E+02  0.28998373166E+02  0.00000000000E+00 0. -1.
         -6    2    1    2    0  503 -0.29556987492E+02 -0.92985852122E+02  0.16752141624E+04  0.16867842984E+04  0.17140243690E+03 0.  0.
        -24    2    3    3    0    0 -0.35615326233E+02 -0.76947827774E+02  0.16577483080E+04  0.16618630673E+04  0.80436198584E+02 0.  0.
          6    2    1    2  501    0  0.29556987492E+02  0.92985852122E+02  0.39893573705E+03  0.44536234734E+03  0.17227278927E+03 0.  0.
         24    2    5    5    0    0  0.50267966861E+02  0.74840266531E+02  0.13995004871E+03  0.18487456699E+03  0.80403080785E+02 0.  0.
          5    1    5    5  501    0 -0.20710979369E+02  0.18145585592E+02  0.25898568834E+03  0.26048778035E+03  0.47000000000E+01 0. -1.
        -13    1    6    6    0    0  0.89629912899E+01  0.66959014234E+02  0.12136521275E+03  0.13890053876E+03  0.00000000000E+00 0.  1.
         14    1    6    6    0    0  0.41304975571E+02  0.78812522970E+01  0.18584835956E+02  0.45974028235E+02  0.00000000000E+00 0. -1.
         -5    1    3    3    0  503  0.60583387413E+01 -0.16038024348E+02  0.17465854416E+02  0.24921231185E+02  0.47000000000E+01 0.  1.
         13    1    4    4    0    0 -0.12765542319E+02  0.11823829575E+02  0.56794894343E+03  0.56821542074E+03  0.00000000000E+00 0. -1.
        -14    1    4    4    0    0 -0.22849783914E+02 -0.88771657349E+02  0.10897993645E+04  0.10936476465E+04  0.00000000000E+00 0.  1.
</event>
<event>
12    1  0.8747122E-002  0.1811984E+03  0.7818608E-02  0.1168566E+00
         21   -1    0    0  501  502  0.00000000000E+00  0.00000000000E+00  0.56077760692E+03  0.56077760692E+03  0.00000000000E+00 0.  1.
         21   -1    0    0  502  503 -0.00000000000E+00 -0.00000000000E+00 -0.70281835546E+02  0.70281835546E+02  0.00000000000E+00 0.  1.
         -6    2    1    2    0  503 -0.50403697534E+02  0.16034541382E+02  0.10760882683E+03  0.21074273873E+03  0.17330667349E+03 0.  0.
        -24    2    3    3    0    0 -0.43441642686E+02 -0.39543501662E+02  0.11785011394E+03  0.15360813418E+03  0.79094530065E+02 0.  0.
          6    2    1    2  501    0  0.50403697534E+02 -0.16034541382E+02  0.38288694454E+03  0.42031670373E+03  0.16512443760E+03 0.  0.
         24    2    5    5    0    0 -0.20793153151E+02 -0.11676625065E+02  0.11092421290E+03  0.13911606293E+03  0.80500926505E+02 0.  0.
          5    1    5    5  501    0  0.71196850685E+02 -0.43579163176E+01  0.27196273165E+03  0.28120064080E+03  0.47000000000E+01 0. -1.
        -13    1    6    6    0    0 -0.23270536662E+02 -0.36288223668E+02  0.10525208396E+03  0.11373809490E+03  0.00000000000E+00 0.  1.
         14    1    6    6    0    0  0.24773835118E+01  0.24611598603E+02  0.56721289394E+01  0.25377968035E+02  0.00000000000E+00 0. -1.
         -5    1    3    3    0  503 -0.69620548488E+01  0.55578043045E+02 -0.10241287109E+02  0.57134604558E+02  0.47000000000E+01 0.  1.
         13    1    4    4    0    0 -0.63809633411E+02 -0.39363487283E+02  0.10664053854E+03  0.13035857435E+03  0.00000000000E+00 0. -1.
        -14    1    4    4    0    0  0.20367990725E+02 -0.18001437958E+00  0.11209575402E+02  0.23249559825E+02  0.00000000000E+00 0.  1.
</event>
<event>
12    1  0.8747122E-002  0.2619017E+03  0.7818608E-02  0.1106292E+00
         21   -1    0    0  501  502  0.00000000000E+00  0.00000000000E+00  0.71848176448E+03  0.71848176448E+03  0.00000000000E+00 0. -1.
         21   -1    0    0  502  503 -0.00000000000E+00 -0.00000000000E+00 -0.91587042077E+03  0.91587042077E+03  0.00000000000E+00 0.  1.
         -6    2    1    2    0  503 -0.16063132482E+03 -0.10417678073E+03 -0.87247304380E+03  0.91093452649E+03  0.17871003118E+03 0.  0.
        -24    2    3    3    0    0 -0.29712773829E+02 -0.10112753978E+03 -0.44831258872E+03  0.46699405017E+03  0.77392748106E+02 0.  0.
          6    2    1    2  501    0  0.16063132482E+03  0.10417678073E+03  0.67508438751E+03  0.72341765877E+03  0.17589472592E+03 0.  0.
         24    2    5    5    0    0  0.56072761045E+02  0.94866316670E+02  0.23623791403E+03  0.27216662522E+03  0.78246707832E+02 0.  0.
          5    1    5    5  501    0  0.10455856378E+03  0.93104640558E+01  0.43884647347E+03  0.45125103355E+03  0.47000000000E+01 0. -1.
        -13    1    6    6    0    0 -0.14694325645E+02  0.45727040574E+02  0.10063647634E+03  0.11151047402E+03  0.00000000000E+00 0.  1.
         14    1    6    6    0    0  0.70767086691E+02  0.49139276096E+02  0.13560143769E+03  0.16065615120E+03  0.00000000000E+00 0. -1.
         -5    1    3    3    0  503 -0.13091855099E+03 -0.30492409499E+01 -0.42416045508E+03  0.44394047632E+03  0.47000000000E+01 0.  1.
         13    1    4    4    0    0  0.62398731197E+01 -0.11707181201E+02 -0.20293092322E+03  0.20336409149E+03  0.00000000000E+00 0. -1.
        -14    1    4    4    0    0 -0.35952646948E+02 -0.89420358575E+02 -0.24538166549E+03  0.26362995867E+03  0.00000000000E+00 0.  1.
</event>
<event>
12    1  0.8747122E-002  0.1836640E+03  0.7818608E-02  0.1164597E+00
         21   -1    0    0  503  502  0.00000000000E+00  0.00000000000E+00  0.69731944043E+03  0.69731944043E+03  0.00000000000E+00 0. -1.
         21   -1    0    0  501  503 -0.00000000000E+00 -0.00000000000E+00 -0.11357260299E+03  0.11357260299E+03  0.00000000000E+00 0. -1.
          6    2    1    2  501    0  0.46227650866E+02 -0.35470531858E+02 -0.15669936798E+02  0.18433126089E+03  0.17417609620E+03 0.  0.
         24    2    3    3    0    0  0.29768704607E+02 -0.84280651074E+01 -0.76606968345E+02  0.11550100785E+03  0.80713364200E+02 0.  0.
         -6    2    1    2    0  502 -0.46227650866E+02  0.35470531858E+02  0.59941677424E+03  0.62656078253E+03  0.17286639533E+03 0.  0.
        -24    2    5    5    0    0 -0.96329454974E+02  0.36994366403E+02  0.39315232033E+03  0.41424114662E+03  0.79868852081E+02 0.  0.
          5    1    3    3  501    0  0.16458946259E+02 -0.27042466751E+02  0.60937031546E+02  0.68830253041E+02  0.47000000000E+01 0. -1.
        -11    1    4    4    0    0 -0.14227338356E+02  0.78977844348E+01  0.84663278034E+01  0.18343142102E+02  0.00000000000E+00 0.  1.
         12    1    4    4    0    0  0.43996042963E+02 -0.16325849542E+02 -0.85073296148E+02  0.97157865750E+02  0.00000000000E+00 0. -1.
         -5    1    5    5    0  502  0.50101804107E+02 -0.15238345441E+01  0.20626445391E+03  0.21231963591E+03  0.47000000000E+01 0.  1.
         13    1    6    6    0    0 -0.27884762589E+02  0.46583818959E+02  0.10858745193E+03  0.12140365270E+03  0.00000000000E+00 0. -1.
        -14    1    6    6    0    0 -0.68444692385E+02 -0.95894525566E+01  0.28456486840E+03  0.29283749392E+03  0.00000000000E+00 0.  1.
</event>
<event>
12    1  0.8747122E-002  0.2091473E+03  0.7818608E-02  0.1143721E+00
         21   -1    0    0  501  502  0.00000000000E+00  0.00000000000E+00  0.10752550115E+03  0.10752550115E+03  0.00000000000E+00 0.  1.
         21   -1    0    0  502  503 -0.00000000000E+00 -0.00000000000E+00 -0.79833077673E+03  0.79833077673E+03  0.00000000000E+00 0.  1.
         -6    2    1    2    0  503  0.10970955887E+03 -0.43192473992E+02 -0.67121593287E+03  0.70304580577E+03  0.17274489675E+03 0.  0.
        -24    2    3    3    0    0  0.81127067690E+02  0.26315421572E+02 -0.26131001041E+03  0.28628057016E+03  0.79997129845E+02 0.  0.
          6    2    1    2  501    0 -0.10970955887E+03  0.43192473992E+02 -0.19589342706E+02  0.20281047211E+03  0.16384922378E+03 0.  0.
         24    2    5    5    0    0 -0.71879825748E+02  0.90298606362E+02 -0.20400534934E+02  0.14220664015E+03  0.80535700270E+02 0.  0.
          5    1    5    5  501    0 -0.37829733126E+02 -0.47106132371E+02  0.81119222870E+00  0.60603831959E+02  0.47000000000E+01 0. -1.
        -13    1    6    6    0    0 -0.76012623704E+02  0.60475454630E+02  0.12120541183E+02  0.97888237769E+02  0.00000000000E+00 0.  1.
         14    1    6    6    0    0  0.41327979557E+01  0.29823151733E+02 -0.32521076117E+02  0.44318402386E+02  0.00000000000E+00 0. -1.
         -5    1    3    3    0  503  0.28582491184E+02 -0.69507895563E+02 -0.40990592246E+03  0.41676523561E+03  0.47000000000E+01 0.  1.
         11    1    4    4    0    0 -0.87158996152E+01  0.77932898686E+01 -0.28639573459E+01  0.12037629532E+02  0.00000000000E+00 0. -1.
        -12    1    4    4    0    0  0.89842967305E+02  0.18522131703E+02 -0.25844605307E+03  0.27424294063E+03  0.00000000000E+00 0.  1.
</event>
<event>
12    1  0.8747122E-002  0.2263414E+03  0.7818608E-02  0.1129324E+00
         21   -1    0    0  501  502  0.00000000000E+00  0.00000000000E+00  0.53021099753E+03  0.53021099753E+03  0.00000000000E+00 0.  1.
         21   -1    0    0  502  503 -0.00000000000E+00 -0.00000000000E+00 -0.10042283357E+03  0.10042283357E+03  0.00000000000E+00 0. -1.
         -6    2    1    2    0  503  0.12412169534E+03  0.77955010758E+02  0.15220133386E+03  0.27275569529E+03  0.17247389462E+03 0.  0.
        -24    2    3    3    0    0  0.12996159184E+03  0.10581996722E+03  0.15762539886E+03  0.24339465527E+03  0.79418581156E+02 0.  0.
          6    2    1    2  501    0 -0.12412169534E+03 -0.77955010758E+02  0.27758683011E+03  0.35787813582E+03  0.17186952286E+03 0.  0.
         24    2    5    5    0    0 -0.69862691340E+02 -0.77283775666E+02  0.83659710830E+02  0.15644748357E+03  0.81383599560E+02 0.  0.
          5    1    5    5  501    0 -0.54259004002E+02 -0.67123509210E+00  0.19392711928E+03  0.20143065225E+03  0.47000000000E+01 0. -1.
        -13    1    6    6    0    0 -0.70746283571E+02 -0.35602402209E+02  0.83039043237E+02  0.11475212584E+03  0.00000000000E+00 0.  1.
         14    1    6    6    0    0  0.88359223087E+00 -0.41681373456E+02  0.62066759300E+00  0.41695357736E+02  0.00000000000E+00 0. -1.
         -5    1    3    3    0  503 -0.58398964948E+01 -0.27864956459E+02 -0.54240650069E+01  0.29361040015E+02  0.47000000000E+01 0.  1.
         11    1    4    4    0    0 -0.10498394340E+01  0.34478912543E+02  0.43797442454E+02  0.55750457742E+02  0.00000000000E+00 0. -1.
        -12    1    4    4    0    0  0.13101143127E+03  0.71341054674E+02  0.11382795641E+03  0.18764419753E+03  0.00000000000E+00 0.  1.
</event>
<event>
12    1  0.8747122E-002  0.1865807E+03  0.7818608E-02  0.1161758E+00
         21   -1    0    0  503  502  0.00000000000E+00  0.00000000000E+00  0.23941825509E+02  0.23941825509E+02  0.00000000000E+00 0. -1.
         21   -1    0    0  501  503 -0.00000000000E+00 -0.00000000000E+00 -0.14640494687E+04  0.14640494687E+04  0.00000000000E+00 0. -1.
          6    2    1    2  501    0 -0.99926603541E+01 -0.71773814997E+02 -0.64392932794E+03  0.67041578479E+03  0.17193315949E+03 0.  0.
         24    2    3    3    0    0 -0.39567906006E+02  0.17536955916E+02 -0.21380555659E+03  0.23009810670E+03  0.73206274800E+02 0.  0.
         -6    2    1    2    0  502  0.99926603541E+01  0.71773814997E+02 -0.79617831521E+03  0.81757550938E+03  0.17110952675E+03 0.  0.
        -24    2    5    5    0    0  0.83280347393E+01 -0.28758153427E+01 -0.17720328331E+03  0.19409534257E+03  0.78704332250E+02 0.  0.
          5    1    3    3  501    0  0.29575245652E+02 -0.89310770913E+02 -0.43012377135E+03  0.44031767809E+03  0.47000000000E+01 0. -1.
        -13    1    4    4    0    0 -0.14637553544E-03 -0.73381282838E+01  0.32804148203E+01  0.80379878156E+01  0.00000000000E+00 0.  1.
         14    1    4    4    0    0 -0.39567759630E+02  0.24875084200E+02 -0.21708597141E+03  0.22206011889E+03  0.00000000000E+00 0. -1.
         -5    1    5    5    0  502  0.16646256148E+01  0.74649630339E+02 -0.61897503190E+03  0.62348016681E+03  0.47000000000E+01 0.  1.
         13    1    6    6    0    0  0.76801469684E+00  0.36401088376E+02 -0.59226921942E+02  0.69523070734E+02  0.00000000000E+00 0. -1.
        -14    1    6    6    0    0  0.75600200425E+01 -0.39276903719E+02 -0.11797636137E+03  0.12457227184E+03  0.00000000000E+00 0.  1.
</event>
<event>
12    1  0.8747122E-002  0.1886085E+03  0.7818608E-02  0.1159921E+00
         21   -1    0    0  501  502  0.00000000000E+00  0.00000000000E+00  0.89876979431E+02  0.89876979431E+02  0.00000000000E+00 0.  1.
         21   -1    0    0  502  503 -0.00000000000E+00 -0.00000000000E+00 -0.71252333267E+03  0.71252333267E+03  0.00000000000E+00 0. -1.
         -6    2    1    2    0  503  0.49301422898E+02  0.59039886280E+02 -0.57997505350E+03  0.60987229925E+03  0.17221155664E+03 0.  0.
        -24    2    3    3    0    0  0.16350845368E+02  0.10043709698E+03 -0.33206950824E+03  0.35633981813E+03  0.79705376789E+02 0.  0.
          6    2    1    2  501    0 -0.49301422898E+02 -0.59039886280E+02 -0.42671299739E+02  0.19252801285E+03  0.17125961999E+03 0.  0.
         24    2    5    5    0    0 -0.77556616666E+01 -0.10064520362E+03 -0.29182857477E+02  0.13202114728E+03  0.79927072129E+02 0.  0.
          5    1    5    5  501    0 -0.41545761231E+02  0.41605317336E+02 -0.13488442262E+02  0.60506865573E+02  0.47000000000E+01 0. -1.
        -13    1    6    6    0    0 -0.26397016046E+02 -0.39735425075E+02  0.19816679937E+02  0.51656628478E+02  0.00000000000E+00 0.  1.
         14    1    6    6    0    0  0.18641354379E+02 -0.60909778541E+02 -0.48999537414E+02  0.80364518799E+02  0.00000000000E+00 0. -1.
         -5    1    3    3    0  503  0.32950577529E+02 -0.41397210695E+02 -0.24790554526E+03  0.25353248112E+03  0.47000000000E+01 0.  1.
         13    1    4    4    0    0  0.43650215072E+02  0.68884015076E+02 -0.26580711052E+03  0.27803555314E+03  0.00000000000E+00 0. -1.
        -14    1    4    4    0    0 -0.27299369704E+02  0.31553081899E+02 -0.66262397724E+02  0.78304264991E+02  0.00000000000E+00 0.  1.
</event>
<event>
12    1  0.8747122E-002  0.2095329E+03  0.7818608E-02  0.1142007E+00
         21   -1    0    0  501  502  0.00000000000E+00  0.00000000000E+00  0.74548925646E+02  0.74548925646E+02  0.00000000000E+00 0.  1.
         21   -1    0    0  502  503 -0.00000000000E+00 -0.00000000000E+00 -0.10741234559E+04  0.10741234559E+04  0.00000000000E+00 0.  1.
         -6    2    1    2    0  503 -0.84987379317E+01  0.11891633030E+03 -0.88596126411E+03  0.91031972053E+03  0.17187585618E+03 0.  0.
        -24    2    3    3    0    0  0.13728513349E+02  0.19384101038E+00 -0.26848566403E+03  0.28112397448E+03  0.82204790520E+02 0.  0.
          6    2    1    2  501    0  0.84987379317E+01 -0.11891633030E+03 -0.11361326614E+03  0.23835266101E+03  0.17230987960E+03 0.  0.
         24    2    5    5    0    0  0.62104590830E+01  0.65794396300E+01 -0.77442847453E+02  0.10764377195E+03  0.74215417475E+02 0.  0.
          5    1    5    5  501    0  0.22882788486E+01 -0.12549576993E+03 -0.36170418687E+02  0.13070888905E+03  0.47000000000E+01 0. -1.
        -11    1    6    6    0    0 -0.99873654369E+00 -0.40264301592E+01  0.14361194389E+02  0.14948361743E+02  0.00000000000E+00 0.  1.
         12    1    6    6    0    0  0.72091956267E+01  0.10605869789E+02 -0.91804041842E+02  0.92695410211E+02  0.00000000000E+00 0. -1.
         -5    1    3    3    0  503 -0.22227251280E+02  0.11872248929E+03 -0.61747560007E+03  0.62919574605E+03  0.47000000000E+01 0.  1.
         11    1    4    4    0    0  0.41843006540E+02  0.21326752763E+02 -0.17656439909E+03  0.18270373451E+03  0.00000000000E+00 0. -1.
        -12    1    4    4    0    0 -0.28114493191E+02 -0.21132911753E+02 -0.91921264944E+02  0.98420239968E+02  0.00000000000E+00 0.  1.
</event>
<event>
12    1  0.8747122E-002  0.2162847E+03  0.7818608E-02  0.1136889E+00
         21   -1    0    0  501  502  0.00000000000E+00  0.00000000000E+00  0.38372619268E+02  0.38372619268E+02  0.00000000000E+00 0. -1.
         21   -1    0    0  502  503 -0.00000000000E+00 -0.00000000000E+00 -0.12144789567E+04  0.12144789567E+04  0.00000000000E+00 0. -1.
         -6    2    1    2    0  503 -0.35002262756E+02 -0.12598423373E+03 -0.61109235687E+03  0.64823832869E+03  0.17228429006E+03 0.  0.
        -24    2    3    3    0    0 -0.59473700972E+02 -0.14868268410E+03 -0.55133352440E+03  0.57962871568E+03  0.79731620203E+02 0.  0.
          6    2    1    2  501    0  0.35002262756E+02  0.12598423373E+03 -0.56501398056E+03  0.60461324728E+03  0.17093623085E+03 0.  0.
         24    2    5    5    0    0 -0.29268016692E+02  0.12487149792E+03 -0.40893769901E+03  0.43575294211E+03  0.78746917976E+02 0.  0.
          5    1    5    5  501    0  0.64270279448E+02  0.11127358107E+01 -0.15607628154E+03  0.16886030517E+03  0.47000000000E+01 0. -1.
        -13    1    6    6    0    0  0.11961650965E+00 -0.93156732656E+01 -0.60532616371E+02  0.61245356732E+02  0.00000000000E+00 0.  1.
         14    1    6    6    0    0 -0.29387633202E+02  0.13418717118E+03 -0.34840508264E+03  0.37450758538E+03  0.00000000000E+00 0. -1.
         -5    1    3    3    0  503  0.24471438215E+02  0.22698450372E+02 -0.59758832479E+02  0.68609613006E+02  0.47000000000E+01 0.  1.
         13    1    4    4    0    0 -0.31914841005E+01 -0.59332726148E+02 -0.31812081526E+03  0.32362232782E+03  0.00000000000E+00 0. -1.
        -14    1    4    4    0    0 -0.56282216871E+02 -0.89349957954E+02 -0.23321270913E+03  0.25600638786E+03  0.00000000000E+00 0.  1.
</event>
<event>
12    1  0.8747122E-002  0.2319060E+03  0.7818608E-02  0.1125539E+00
         21   -1    0    0  501  502  0.00000000000E+00  0.00000000000E+00  0.74435172640E+03  0.74435172640E+03  0.00000000000E+00 0. -1.
         21   -1    0    0  502  503 -0.00000000000E+00 -0.00000000000E+00 -0.77667925085E+02  0.77667925085E+02  0.00000000000E+00 0.  1.
         -6    2    1    2    0  503 -0.33261295803E+02 -0.15097588010E+03  0.44686692893E+03  0.50345848043E+03  0.17285936242E+03 0.  0.
        -24    2    3    3    0    0  0.25799522582E+02 -0.98794943831E+02  0.37874108955E+03  0.39917880662E+03  0.73978716205E+02 0.  0.
          6    2    1    2  501    0  0.33261295803E+02  0.15097588010E+03  0.21981687238E+03  0.31856117105E+03  0.17106060957E+03 0.  0.
         24    2    5    5    0    0  0.37852571980E+02  0.91446827198E+01  0.65238115946E+02  0.10867108003E+03  0.77697808434E+02 0.  0.
          5    1    5    5  501    0 -0.45912761767E+01  0.14183119738E+03  0.15457875644E+03  0.20989009102E+03  0.47000000000E+01 0. -1.
        -11    1    6    6    0    0  0.27784874263E+02 -0.32847661823E+02  0.39466557142E+02  0.58383021998E+02  0.00000000000E+00 0.  1.
         12    1    6    6    0    0  0.10067697717E+02  0.41992344543E+02  0.25771558805E+02  0.50288058033E+02  0.00000000000E+00 0. -1.
         -5    1    3    3    0  503 -0.59060818385E+02 -0.52180936268E+02  0.68125839380E+02  0.10427967381E+03  0.47000000000E+01 0.  1.
         13    1    4    4    0    0  0.43222212836E+02 -0.71926703669E+02  0.18951183718E+03  0.20725912963E+03  0.00000000000E+00 0. -1.
        -14    1    4    4    0    0 -0.17422690254E+02 -0.26868240162E+02  0.18922925237E+03  0.19191967699E+03  0.00000000000E+00 0.  1.
</event>
<event>
12    1  0.8747122E-002  0.1738784E+03  0.7818608E-02  0.1175853E+00
         21   -1    0    0  501  502  0.00000000000E+00  0.00000000000E+00  0.13183963808E+03  0.13183963808E+03  0.00000000000E+00 0.  1.
         21   -1    0    0  502  503 -0.00000000000E+00 -0.00000000000E+00 -0.24375530139E+03  0.24375530139E+03  0.00000000000E+00 0.  1.
         -6    2    1    2    0  503  0.98836721642E+01 -0.27604545304E+02 -0.11655055141E+03  0.20932682993E+03  0.17138842667E+03 0.  0.
        -24    2    3    3    0    0  0.57186371802E+02 -0.16669658966E+02  0.42871511660E+01  0.79015826952E+02  0.51739371797E+02 0.  0.
          6    2    1    2  501    0 -0.98836721642E+01  0.27604545304E+02  0.46348881022E+01  0.16626810955E+03  0.16359677310E+03 0.  0.
         24    2    5    5    0    0 -0.60076399380E+01 -0.33111825771E+02  0.39794658281E+02  0.95842256476E+02  0.80434063401E+02 0.  0.
          5    1    5    5  501    0 -0.38760322262E+01  0.60716371075E+02 -0.35159770178E+02  0.70425853075E+02  0.47000000000E+01 0. -1.
        -13    1    6    6    0    0 -0.22116282498E+02  0.70036065650E+00  0.51949744760E+02  0.56465887376E+02  0.00000000000E+00 0.  1.
         14    1    6    6    0    0  0.16108642560E+02 -0.33812186428E+02 -0.12155086479E+02  0.39376369100E+02  0.00000000000E+00 0. -1.
         -5    1    3    3    0  503 -0.47302699637E+02 -0.10934886338E+02 -0.12083770257E+03  0.13031100297E+03  0.47000000000E+01 0.  1.
         13    1    4    4    0    0  0.13216817913E+02 -0.28848607781E+02  0.94253626073E+01  0.33102324797E+02  0.00000000000E+00 0. -1.
        -14    1    4    4    0    0  0.43969553889E+02  0.12178948815E+02 -0.51382114413E+01  0.45913502156E+02  0.00000000000E+00 0.  1.
</event>
<event>
12    1  0.8747122E-002  0.2045456E+03  0.7818608E-02  0.1146338E+00
         21   -1    0    0  501  502  0.00000000000E+00  0.00000000000E+00  0.37152807425E+03  0.37152807425E+03  0.00000000000E+00 0.  1.
         21   -1    0    0  502  503 -0.00000000000E+00 -0.00000000000E+00 -0.24114111054E+03  0.24114111054E+03  0.00000000000E+00 0.  1.
         -6    2    1    2    0  503  0.78251724156E+02 -0.73900803797E+02 -0.15919157873E+03  0.25919274544E+03  0.17393751583E+03 0.  0.
        -24    2    3    3    0    0  0.48908734793E+02 -0.60753622372E+02 -0.18530952168E+03  0.21750226273E+03  0.82973179397E+02 0.  0.
          6    2    1    2  501    0 -0.78251724156E+02  0.73900803797E+02  0.28957854244E+03  0.35347643935E+03  0.17177077691E+03 0.  0.
         24    2    5    5    0    0  0.17056037210E+02  0.95000242145E+01  0.92333800743E+02  0.12509384826E+03  0.82108350657E+02 0.  0.
          5    1    5    5  501    0 -0.95307761366E+02  0.64400779583E+02  0.19724474170E+03  0.22838259109E+03  0.47000000000E+01 0. -1.
        -13    1    6    6    0    0  0.88045670725E+01  0.41702743253E+02  0.23543558496E+02  0.48692282169E+02  0.00000000000E+00 0.  1.
         14    1    6    6    0    0  0.82514701376E+01 -0.32202719039E+02  0.68790242247E+02  0.76401566092E+02  0.00000000000E+00 0. -1.
         -5    1    3    3    0  503  0.29342989363E+02 -0.13147181425E+02  0.26117942947E+02  0.41690482702E+02  0.47000000000E+01 0.  1.
         13    1    4    4    0    0 -0.22775314390E+02 -0.23584996861E+02 -0.61382453692E+02  0.69590032647E+02  0.00000000000E+00 0. -1.
        -14    1    4    4    0    0  0.71684049183E+02 -0.37168625511E+02 -0.12392706799E+03  0.14791223009E+03  0.00000000000E+00 0.  1.
</event>
<event>
12    1  0.8747122E-002  0.2261250E+03  0.7818608E-02  0.1131033E+00
         21   -1    0    0  503  502  0.00000000000E+00  0.00000000000E+00  0.74049400228E+02  0.74049400228E+02  0.00000000000E+00 0. -1.
         21   -1    0    0  501  503 -0.00000000000E+00 -0.00000000000E+00 -0.68443541187E+03  0.68443541187E+03  0.00000000000E+00 0.  1.
          6    2    1    2  501    0 -0.12647580041E+03  0.50736760387E+02 -0.36539167525E+03  0.42508602784E+03  0.16916473561E+03 0.  0.
         24    2    3    3    0    0 -0.14015106697E+03  0.64462350523E+02 -0.36551103343E+03  0.40514840044E+03  0.82153482041E+02 0.  0.
         -6    2    1    2    0  502  0.12647580041E+03 -0.50736760387E+02 -0.24499433639E+03  0.33339878426E+03  0.18044993084E+03 0.  0.
        -24    2    5    5    0    0  0.33730488199E+02 -0.89212565514E+02 -0.11099831858E+03  0.16589026714E+03  0.78117388114E+02 0.  0.
          5    1    3    3  501    0  0.13675266557E+02 -0.13725590136E+02  0.11935817583E+00  0.19937627400E+02  0.47000000000E+01 0. -1.
        -11    1    4    4    0    0 -0.10757375921E+03  0.79929436561E+01 -0.25438660614E+03  0.27631240689E+03  0.00000000000E+00 0.  1.
         12    1    4    4    0    0 -0.32577307760E+02  0.56469406867E+02 -0.11112442728E+03  0.12883599354E+03  0.00000000000E+00 0. -1.
         -5    1    5    5    0  502  0.92745312214E+02  0.38475805127E+02 -0.13399601781E+03  0.16750851711E+03  0.47000000000E+01 0.  1.
         13    1    6    6    0    0  0.20316992616E+02  0.93225284058E+01 -0.31234760863E+02  0.38409634351E+02  0.00000000000E+00 0. -1.
        -14    1    6    6    0    0  0.13413495583E+02 -0.98535093920E+02 -0.79763557719E+02  0.12748063279E+03  0.00000000000E+00 0.  1.
</event>
<event>
12    1  0.8747122E-002  0.1977358E+03  0.7818608E-02  0.1151717E+00
         21   -1    0    0  503  502  0.00000000000E+00  0.00000000000E+00  0.81615653015E+03  0.81615653015E+03  0.00000000000E+00 0. -1.
         21   -1    0    0  501  503 -0.00000000000E+00 -0.00000000000E+00 -0.92505963205E+02  0.92505963205E+02  0.00000000000E+00 0.  1.
          6    2    1    2  501    0 -0.69954094145E+02 -0.68384500828E+02  0.46026365845E+02  0.20277723557E+03  0.17155222432E+03 0.  0.
         24    2    3    3    0    0 -0.43453737960E+02 -0.56092884447E+02 -0.39370221639E+02  0.11240013745E+03  0.77776201485E+02 0.  0.
         -6    2    1    2    0  502  0.69954094145E+02  0.68384500828E+02  0.67762420110E+03  0.70588525779E+03  0.17184127561E+03 0.  0.
        -24    2    5    5    0    0  0.75350261169E+02 -0.16761113617E+02  0.33754973680E+03  0.35524067199E+03  0.79356873910E+02 0.  0.
          5    1    3    3  501    0 -0.26500356185E+02 -0.12291616380E+02  0.85396587484E+02  0.90377098123E+02  0.47000000000E+01 0. -1.
        -11    1    4    4    0    0  0.21492717750E+02 -0.25767185931E+02 -0.14135597331E+02  0.36410162029E+02  0.00000000000E+00 0.  1.
         12    1    4    4    0    0 -0.64946455710E+02 -0.30325698516E+02 -0.25234624308E+02  0.75989975416E+02  0.00000000000E+00 0. -1.
         -5    1    5    5    0  502 -0.53961670234E+01  0.85145614445E+02  0.34007446430E+03  0.35064458580E+03  0.47000000000E+01 0.  1.
         11    1    6    6    0    0  0.20552732365E+02 -0.35630919254E+02  0.67530023625E+02  0.79071368430E+02  0.00000000000E+00 0. -1.
        -12    1    6    6    0    0  0.54797528804E+02  0.18869805638E+02  0.27001971317E+03  0.27616930356E+03  0.00000000000E+00 0.  1.
</event>
<event>
12    1  0.8747122E-002  0.1783335E+03  0.7818608E-02  0.1170407E+00
         21   -1    0    0  501  502  0.00000000000E+00  0.00000000000E+00  0.76418341192E+02  0.76418341192E+02  0.00000000000E+00 0. -1.
         21   -1    0    0  502  503 -0.00000000000E+00 -0.00000000000E+00 -0.10684850493E+04  0.10684850493E+04  0.00000000000E+00 0. -1.
         -6    2    1    2    0  503 -0.25724508810E+02  0.23861140005E+01 -0.94856820523E+03  0.96518624437E+03  0.17645226680E+03 0.  0.
        -24    2    3    3    0    0 -0.39627787431E+02  0.62161952919E+02 -0.73896956824E+03  0.74673686648E+03  0.78137411287E+02 0.  0.
          6    2    1    2  501    0  0.25724508810E+02 -0.23861140005E+01 -0.43498502839E+02  0.17971714608E+03  0.17244909090E+03 0.  0.
         24    2    5    5    0    0 -0.26099777263E+02  0.41605818452E+02  0.78554760724E+01  0.94392074162E+02  0.80224140120E+02 0.  0.
          5    1    5    5  501    0  0.51824286073E+02 -0.43991932452E+02 -0.51353978912E+02  0.85325071919E+02  0.47000000000E+01 0. -1.
        -11    1    6    6    0    0  0.28164490202E+01  0.57193719057E+02 -0.81675073931E+01  0.57842562717E+02  0.00000000000E+00 0.  1.
         12    1    6    6    0    0 -0.28916226283E+02 -0.15587900605E+02  0.16022983466E+02  0.36549511445E+02  0.00000000000E+00 0. -1.
         -5    1    3    3    0  503  0.13903278620E+02 -0.59775838918E+02 -0.20959863699E+03  0.21844937789E+03  0.47000000000E+01 0.  1.
         11    1    4    4    0    0 -0.20413943334E+02  0.74409161118E+02 -0.66153697782E+03  0.66602149017E+03  0.00000000000E+00 0. -1.
        -12    1    4    4    0    0 -0.19213844097E+02 -0.12247208199E+02 -0.77432590418E+02  0.80715376308E+02  0.00000000000E+00 0.  1.
</event>
<event>
12    1  0.8747122E-002  0.1820239E+03  0.7818608E-02  0.1166563E+00
         21   -1    0    0  501  502  0.00000000000E+00  0.00000000000E+00  0.11815861538E+04  0.11815861538E+04  0.00000000000E+00 0. -1.
         21   -1    0    0  502  503 -0.00000000000E+00 -0.00000000000E+00 -0.57066028976E+02  0.57066028976E+02  0.00000000000E+00 0. -1.
         -6    2    1    2    0  503 -0.42793658354E+02  0.29660785867E+02  0.11496499533E+03  0.21281873033E+03  0.17135869519E+03 0.  0.
        -24    2    3    3    0    0 -0.22349531816E+02  0.83093905726E+02  0.57211998359E+02  0.13139048421E+03  0.81155085135E+02 0.  0.
          6    2    1    2  501    0  0.42793658354E+02 -0.29660785867E+02  0.10095551295E+04  0.10258334525E+04  0.17441804164E+03 0.  0.
         24    2    5    5    0    0  0.44047100648E+02  0.24795732385E+02  0.29643604892E+03  0.31062159811E+03  0.77823330010E+02 0.  0.
          5    1    5    5  501    0 -0.12534422943E+01 -0.54456518252E+02  0.71311908060E+03  0.71521185436E+03  0.47000000000E+01 0. -1.
        -13    1    6    6    0    0  0.56746045376E+02 -0.51715840669E+01  0.14644744550E+03  0.15714233434E+03  0.00000000000E+00 0.  1.
         14    1    6    6    0    0 -0.12698944728E+02  0.29967316452E+02  0.14998860342E+03  0.15347926378E+03  0.00000000000E+00 0. -1.
         -5    1    3    3    0  503 -0.20444126537E+02 -0.53433119859E+02  0.57752996972E+02  0.81428246125E+02  0.47000000000E+01 0.  1.
         11    1    4    4    0    0  0.22549411146E+02  0.11719668316E+02 -0.58716709290E+01  0.26082620420E+02  0.00000000000E+00 0. -1.
        -12    1    4    4    0    0 -0.44898942962E+02  0.71374237410E+02  0.63083669288E+02  0.10530786379E+03  0.00000000000E+00 0.  1.
</event>
<event>
12    1  0.8747122E-002  0.1881354E+03  0.7818608E-02  0.1160635E+00
         21   -1    0    0  501  502  0.00000000000E+00  0.00000000000E+00  0.16980598890E+03  0.16980598890E+03  0.00000000000E+00 0.  1.
         21   -1    0    0  502  503 -0.00000000000E+00 -0.00000000000E+00 -0.23466446072E+03  0.23466446072E+03  0.00000000000E+00 0.  1.
         -6    2    1    2    0  503 -0.61294763519E+02  0.44375688632E+02 -0.10278897473E+03  0.21254948549E+03  0.16995723191E+03 0.  0.
        -24    2    3    3    0    0 -0.39009870964E+02 -0.28575450696E+02 -0.99607191528E+02  0.13605962401E+03  0.79071500971E+02 0.  0.
          6    2    1    2  501    0  0.61294763519E+02 -0.44375688632E+02  0.37930502912E+02  0.19192096413E+03  0.17224599747E+03 0.  0.
         24    2    5    5    0    0  0.79152893920E+02 -0.65601444795E+01 -0.25726172080E+02  0.11561113205E+03  0.79974257182E+02 0.  0.
          5    1    5    5  501    0 -0.17858130400E+02 -0.37815544153E+02  0.63656674992E+02  0.76309832080E+02  0.47000000000E+01 0. -1.
        -11    1    6    6    0    0 -0.10616500493E+02  0.14833765032E+02 -0.13122118040E+02  0.22470884486E+02  0.00000000000E+00 0.  1.
         12    1    6    6    0    0  0.89769394413E+02 -0.21393909511E+02 -0.12604054041E+02  0.93140247561E+02  0.00000000000E+00 0. -1.
         -5    1    3    3    0  503 -0.22284892555E+02  0.72951139328E+02 -0.31817832049E+01  0.76489861484E+02  0.47000000000E+01 0.  1.
         11    1    4    4    0    0 -0.27290291905E+02  0.24853554417E+02 -0.50495043688E+02  0.62547650927E+02  0.00000000000E+00 0. -1.
        -12    1    4    4    0    0 -0.11719579060E+02 -0.53429005113E+02 -0.49112147840E+02  0.73511973081E+02  0.00000000000E+00 0.  1.
</event>
<event>
12    1  0.8747122E-002  0.1884114E+03  0.7818608E-02  0.1159937E+00
         21   -1    0    0  501  502  0.00000000000E+00  0.00000000000E+00  0.13293135276E+04  0.13293135276E+04  0.00000000000E+00 0. -1.
         21   -1    0    0  502  503 -0.00000000000E+00 -0.00000000000E+00 -0.30198836763E+02  0.30198836763E+02  0.00000000000E+00 0. -1.
         -6    2    1    2    0  503 -0.43316465485E+02  0.65180509377E+02  0.41737429058E+03  0.45786664709E+03  0.17121843680E+03 0.  0.
        -24    2    3    3    0    0 -0.49703797333E+02 -0.23196029340E+02  0.18139815784E+03  0.20575945595E+03  0.80144487017E+02 0.  0.
          6    2    1    2  501    0  0.43316465485E+02 -0.65180509377E+02  0.88174040029E+03  0.90164571730E+03  0.17138859658E+03 0.  0.
         24    2    5    5    0    0  0.83262950566E+02 -0.76260672824E+02  0.57690577766E+03  0.59396937949E+03  0.85034924134E+02 0.  0.
          5    1    5    5  501    0 -0.39946485081E+02  0.11080163447E+02  0.30483462263E+03  0.30767633781E+03  0.47000000000E+01 0. -1.
        -13    1    6    6    0    0  0.29478380028E+02 -0.60413018482E+01  0.41245429424E+02  0.51055437178E+02  0.00000000000E+00 0.  1.
         14    1    6    6    0    0  0.53784570537E+02 -0.70219370975E+02  0.53566034824E+03  0.54291394232E+03  0.00000000000E+00 0. -1.
         -5    1    3    3    0  503  0.63873318481E+01  0.88376538716E+02  0.23597613274E+03  0.25210719114E+03  0.47000000000E+01 0.  1.
         11    1    4    4    0    0 -0.52707487752E+02 -0.10303695373E+02  0.48995390650E+02  0.72696586635E+02  0.00000000000E+00 0. -1.
        -12    1    4    4    0    0  0.30036904186E+01 -0.12892333966E+02  0.13240276719E+03  0.13306286931E+03  0.00000000000E+00 0.  1.
</event>
<event>
12    1  0.8747122E-002  0.1914137E+03  0.7818608E-02  0.1158584E+00
         21   -1    0    0  503  502  0.00000000000E+00  0.00000000000E+00  0.22198028373E+03  0.22198028373E+03  0.00000000000E+00 0. -1.
         21   -1    0    0  501  503 -0.00000000000E+00 -0.00000000000E+00 -0.22826069535E+03  0.22826069535E+03  0.00000000000E+00 0. -1.
          6    2    1    2  501    0  0.79849758354E+02 -0.16628055646E+02 -0.12643779289E+03  0.22940298126E+03  0.17316678723E+03 0.  0.
         24    2    3    3    0    0  0.11790014110E+02 -0.20048818654E+01 -0.13837690246E+03  0.15861740127E+03  0.76604757458E+02 0.  0.
         -6    2    1    2    0  502 -0.79849758354E+02  0.16628055646E+02  0.12015738127E+03  0.22083799781E+03  0.16637051680E+03 0.  0.
        -24    2    5    5    0    0 -0.96936981079E+02  0.73327915126E+01  0.31295955576E+02  0.12975112669E+03  0.80033554893E+02 0.  0.
          5    1    3    3  501    0  0.68059744244E+02 -0.14623173781E+02  0.11939109575E+02  0.70785579996E+02  0.47000000000E+01 0. -1.
        -13    1    4    4    0    0 -0.31633245611E+01  0.34951984614E+02 -0.85284037655E+02  0.92222637836E+02  0.00000000000E+00 0.  1.
         14    1    4    4    0    0  0.14953338672E+02 -0.36956866480E+02 -0.53092864808E+02  0.66394763430E+02  0.00000000000E+00 0. -1.
         -5    1    5    5    0  502  0.17087222725E+02  0.92952641334E+01  0.88861425689E+02  0.91086871124E+02  0.47000000000E+01 0.  1.
         11    1    6    6    0    0 -0.40468500569E+02  0.15509455709E+02  0.53213547408E+02  0.68628888833E+02  0.00000000000E+00 0. -1.
        -12    1    6    6    0    0 -0.56468480510E+02 -0.81766641966E+01 -0.21917591832E+02  0.61122237853E+02  0.00000000000E+00 0.  1.
</event>
<event>
12    1  0.8747122E-002  0.1952123E+03  0.7818608E-02  0.1154233E+00
         21   -1    0    0  503  502  0.00000000000E+00  0.00000000000E+00  0.10586202477E+03  0.10586202477E+03  0.00000000000E+00 0.  1.
         21   -1    0    0  501  503 -0.00000000000E+00 -0.00000000000E+00 -0.51024298110E+03  0.51024298110E+03  0.00000000000E+00 0. -1.
          6    2    1    2  501    0 -0.14033969029E+02 -0.87505793573E+02 -0.37183058046E+03  0.41995928789E+03  0.17393563961E+03 0.  0.
         24    2    3    3    0    0  0.51244586957E+02 -0.95327303527E+02 -0.19611818362E+03  0.23229095734E+03  0.61509710011E+02 0.  0.
         -6    2    1    2    0  502  0.14033969029E+02  0.87505793573E+02 -0.32550375872E+02  0.19614571798E+03  0.17192847209E+03 0.  0.
        -24    2    5    5    0    0  0.72152010606E+02  0.31081342335E+02 -0.31383544199E+02  0.11499846325E+03  0.77895810075E+02 0.  0.
          5    1    3    3  501    0 -0.65278555986E+02  0.78215099544E+01 -0.17571239683E+03  0.18766833055E+03  0.47000000000E+01 0. -1.
        -13    1    4    4    0    0 -0.10328886353E+01 -0.22118044491E+01  0.44447518978E+01  0.50709720259E+01  0.00000000000E+00 0.  1.
         14    1    4    4    0    0  0.52277475593E+02 -0.93115499078E+02 -0.20056293552E+03  0.22721998532E+03  0.00000000000E+00 0. -1.
         -5    1    5    5    0  502 -0.58118041577E+02  0.56424451238E+02 -0.11668316726E+01  0.81147254731E+02  0.47000000000E+01 0.  1.
         11    1    6    6    0    0  0.48144306176E+02  0.57413580820E+02 -0.23196323527E+02  0.78436362134E+02  0.00000000000E+00 0. -1.
        -12    1    6    6    0    0  0.24007704430E+02 -0.26332238484E+02 -0.81872206724E+01  0.36562101115E+02  0.00000000000E+00 0.  1.
</event>
<event>
12    1  0.8747122E-002  0.2019210E+03  0.7818608E-02  0.1148170E+00
         21   -1    0    0  503  502  0.00000000000E+00  0.00000000000E+00  0.93467133679E+02  0.93467133679E+02  0.00000000000E+00 0. -1.
         21   -1    0    0  501  503 -0.00000000000E+00 -0.00000000000E+00 -0.43604639279E+03  0.43604639279E+03  0.00000000000E+00 0.  1.
          6    2    1    2  501    0 -0.12132263866E+02  0.10454693006E+03 -0.17768680449E+03  0.26881905399E+03  0.17208669585E+03 0.  0.
         24    2    3    3    0    0  0.55814500541E+02  0.59841958516E+02 -0.13860767674E+03  0.17846106873E+03  0.77071048601E+02 0.  0.
         -6    2    1    2    0  502  0.12132263866E+02 -0.10454693006E+03 -0.16489245462E+03  0.26069447247E+03  0.17232189059E+03 0.  0.
        -24    2    5    5    0    0 -0.50716620452E+02 -0.28515179264E+02 -0.53354097834E+02  0.11171895629E+03  0.79051719774E+02 0.  0.
          5    1    3    3  501    0 -0.67946764407E+02  0.44704971545E+02 -0.39079127744E+02  0.90357985255E+02  0.47000000000E+01 0. -1.
        -13    1    4    4    0    0 -0.18600646218E+02  0.22289606183E+02 -0.37517718920E+02  0.47438273751E+02  0.00000000000E+00 0.  1.
         14    1    4    4    0    0  0.74415146758E+02  0.37552352333E+02 -0.10108995782E+03  0.13102279498E+03  0.00000000000E+00 0. -1.
         -5    1    5    5    0  502  0.62848884318E+02 -0.76031750798E+02 -0.11153835679E+03  0.14897551619E+03  0.47000000000E+01 0.  1.
         13    1    6    6    0    0 -0.40475870637E+02  0.18391106854E+02 -0.70437022170E+01  0.45012694387E+02  0.00000000000E+00 0. -1.
        -14    1    6    6    0    0 -0.10240749815E+02 -0.46906286118E+02 -0.46310395617E+02  0.66706261898E+02  0.00000000000E+00 0.  1.
</event>
<event>
12    1  0.8747122E-002  0.2269223E+03  0.7818608E-02  0.1128943E+00
         21   -1    0    0  503  502  0.00000000000E+00  0.00000000000E+00  0.61576324346E+03  0.61576324346E+03  0.00000000000E+00 0. -1.
         21   -1    0    0  501  503 -0.00000000000E+00 -0.00000000000E+00 -0.12583785120E+03  0.12583785120E+03  0.00000000000E+00 0. -1.
          6    2    1    2  501    0  0.35497565591E+02 -0.14520175893E+03  0.29823886611E+02  0.22887373708E+03  0.17073399004E+03 0.  0.
         24    2    3    3    0    0  0.45390545193E+02 -0.16942024625E+03  0.45409855215E+02  0.19806110022E+03  0.80016392302E+02 0.  0.
         -6    2    1    2    0  502 -0.35497565591E+02  0.14520175893E+03  0.46010150565E+03  0.51272735758E+03  0.16985970608E+03 0.  0.
        -24    2    5    5    0    0  0.34839975780E+01  0.41649543145E+01  0.13430933756E+03  0.15555293337E+03  0.78283023954E+02 0.  0.
          5    1    3    3  501    0 -0.98929796015E+01  0.24218487320E+02 -0.15585968604E+02  0.30812636869E+02  0.47000000000E+01 0. -1.
        -11    1    4    4    0    0  0.40802406656E+02 -0.32307305458E+02  0.29837020129E+02  0.59990383772E+02  0.00000000000E+00 0.  1.
         12    1    4    4    0    0  0.45881385362E+01 -0.13711294079E+03  0.15572835086E+02  0.13807071644E+03  0.00000000000E+00 0. -1.
         -5    1    5    5    0  502 -0.38981563169E+02  0.14103680461E+03  0.32579216809E+03  0.35717442421E+03  0.47000000000E+01 0.  1.
         11    1    6    6    0    0 -0.13520334834E+02  0.22948648592E+02  0.96262305874E+01  0.28321444905E+02  0.00000000000E+00 0. -1.
        -12    1    6    6    0    0  0.17004332412E+02 -0.18783694277E+02  0.12468310698E+03  0.12723148846E+03  0.00000000000E+00 0.  1.
</event>
<event>
12    1  0.8747122E-002  0.1915485E+03  0.7818608E-02  0.1159015E+00
         21   -1    0    0  503  502  0.00000000000E+00  0.00000000000E+00  0.13778449455E+04  0.13778449455E+04  0.00000000000E+00 0.  1.
         21   -1    0    0  501  503 -0.00000000000E+00 -0.00000000000E+00 -0.20562986034E+03  0.20562986034E+03  0.00000000000E+00 0.  1.
          6    2    1    2  501    0 -0.45652897011E+02 -0.46694237634E+02 -0.15332496016E+03  0.24535564068E+03  0.18007306343E+03 0.  0.
         24    2    3    3    0    0 -0.45669203304E+02 -0.74855328391E+01 -0.17712415631E+03  0.19924908437E+03  0.78648086704E+02 0.  0.
         -6    2    1    2    0  502  0.45652897011E+02  0.46694237634E+02  0.13255400453E+04  0.13381191652E+04  0.17100277654E+03 0.  0.
        -24    2    5    5    0    0  0.16050929636E+02 -0.15965421474E+02  0.10784649807E+04  0.10814663123E+04  0.77266699805E+02 0.  0.
          5    1    3    3  501    0  0.16306292127E-01 -0.39208704795E+02  0.23799196149E+02  0.46106556312E+02  0.47000000000E+01 0. -1.
        -13    1    4    4    0    0 -0.65094065808E+02 -0.19287436592E+02 -0.14226855819E+03  0.15763751223E+03  0.00000000000E+00 0.  1.
         14    1    4    4    0    0  0.19424862505E+02  0.11801903753E+02 -0.34855598122E+02  0.41611572140E+02  0.00000000000E+00 0. -1.
         -5    1    5    5    0  502  0.29601967375E+02  0.62659659108E+02  0.24707506463E+03  0.25665285292E+03  0.47000000000E+01 0.  1.
         11    1    6    6    0    0  0.28140980495E+02 -0.21513814713E+02  0.21497239063E+03  0.21787126414E+03  0.00000000000E+00 0. -1.
        -12    1    6    6    0    0 -0.12090050859E+02  0.55483932391E+01  0.86349259009E+03  0.86359504812E+03  0.00000000000E+00 0.  1.
</event>
<event>
12    1  0.8747122E-002  0.2190445E+03  0.7818608E-02  0.1134622E+00
         21   -1    0    0  501  502  0.00000000000E+00  0.00000000000E+00  0.63126923746E+03  0.63126923746E+03  0.00000000000E+00 0. -1.
         21   -1    0    0  502  503 -0.00000000000E+00 -0.00000000000E+00 -0.76252086716E+02  0.76252086716E+02  0.00000000000E+00 0. -1.
         -6    2    1    2    0  503 -0.12870995712E+03  0.40557592427E+02  0.29946153399E+03  0.37102251905E+03  0.17253790290E+03 0.  0.
        -24    2    3    3    0    0 -0.46680419348E+02  0.84314356993E+02  0.17714089163E+03  0.21730872963E+03  0.80970464601E+02 0.  0.
          6    2    1    2  501    0  0.12870995712E+03 -0.40557592427E+02  0.25555561676E+03  0.33649880513E+03  0.17237053469E+03 0.  0.
         24    2    5    5    0    0  0.10831374486E+03 -0.65174179752E+02  0.26249332268E+03  0.30345030123E+03  0.84851634249E+02 0.  0.
          5    1    5    5  501    0  0.20396212265E+02  0.24616587325E+02 -0.69377059218E+01  0.33048503896E+02  0.47000000000E+01 0. -1.
        -11    1    6    6    0    0  0.26443206090E+02 -0.54440132044E+02  0.16465297499E+03  0.17542398154E+03  0.00000000000E+00 0.  1.
         12    1    6    6    0    0  0.81870538768E+02 -0.10734047708E+02  0.97840347686E+02  0.12802631969E+03  0.00000000000E+00 0. -1.
         -5    1    3    3    0  503 -0.82029537776E+02 -0.43756764566E+02  0.12232064236E+03  0.15371378943E+03  0.47000000000E+01 0.  1.
         11    1    4    4    0    0 -0.46116387851E+02  0.13243283885E+02  0.38520503434E+02  0.61529951904E+02  0.00000000000E+00 0. -1.
        -12    1    4    4    0    0 -0.56403149708E+00  0.71071073108E+02  0.13862038820E+03  0.15577877772E+03  0.00000000000E+00 0.  1.
</event>
<event>
12    1  0.8747122E-002  0.2312526E+03  0.7818608E-02  0.1125764E+00
         21   -1    0    0  503  502  0.00000000000E+00  0.00000000000E+00  0.31680605269E+03  0.31680605269E+03  0.00000000000E+00 0. -1.
         21   -1    0    0  501  503 -0.00000000000E+00 -0.00000000000E+00 -0.28962586017E+03  0.28962586017E+03  0.00000000000E+00 0.  1.
          6    2    1    2  501    0 -0.12188922720E+03  0.97102083720E+02 -0.18226283419E+03  0.29444437749E+03  0.17085652559E+03 0.  0.
         24    2    3    3    0    0  0.77533792531E+01  0.32971596076E+02 -0.67420121475E+02  0.10969897561E+03  0.79631347041E+02 0.  0.
         -6    2    1    2    0  502  0.12188922720E+03 -0.97102083720E+02  0.20944302670E+03  0.31198753537E+03  0.17083337620E+03 0.  0.
        -24    2    5    5    0    0  0.12971258925E+03 -0.11766345889E+03  0.21509211270E+03  0.28879319738E+03  0.80416718036E+02 0.  0.
          5    1    3    3  501    0 -0.12964260645E+03  0.64130487644E+02 -0.11484271271E+03  0.18474540188E+03  0.47000000000E+01 0. -1.
        -11    1    4    4    0    0  0.13730406223E+02 -0.24832849541E+02 -0.23828183233E+02  0.37053701401E+02  0.00000000000E+00 0.  1.
         12    1    4    4    0    0 -0.59770269701E+01  0.57804445617E+02 -0.43591938242E+02  0.72645274204E+02  0.00000000000E+00 0. -1.
         -5    1    5    5    0  502 -0.78233620464E+01  0.20561375168E+02 -0.56490859928E+01  0.23194337996E+02  0.47000000000E+01 0.  1.
         13    1    6    6    0    0 -0.75575152133E+01 -0.19102710104E+02  0.42718484527E+02  0.47401460841E+02  0.00000000000E+00 0. -1.
        -14    1    6    6    0    0  0.13727010446E+03 -0.98560748784E+02  0.17237362817E+03  0.24139173653E+03  0.00000000000E+00 0.  1.
</event>
<event>
12    1  0.8747122E-002  0.2486075E+03  0.7818608E-02  0.1114518E+00
         21   -1    0    0  501  502  0.00000000000E+00  0.00000000000E+00  0.14792445773E+04  0.14792445773E+04  0.00000000000E+00 0.  1.
         21   -1    0    0  502  503 -0.00000000000E+00 -0.00000000000E+00 -0.61570235225E+02  0.61570235225E+02  0.00000000000E+00 0.  1.
         -6    2    1    2    0  503  0.41347355929E+02  0.17490889765E+03  0.26628691211E+03  0.36289346901E+03  0.16876084845E+03 0.  0.
        -24    2    3    3    0    0  0.27505569654E+02  0.19850570099E+03  0.21129597042E+03  0.30129397353E+03  0.77272256886E+02 0.  0.
          6    2    1    2  501    0 -0.41347355929E+02 -0.17490889765E+03  0.11513874300E+04  0.11779213435E+04  0.17176423174E+03 0.  0.
         24    2    5    5    0    0 -0.32622751500E+02 -0.94449645999E+02  0.35428752709E+03  0.37670966421E+03  0.80034615689E+02 0.  0.
          5    1    5    5  501    0 -0.87246044294E+01 -0.80459251648E+02  0.79709990288E+03  0.80121167931E+03  0.47000000000E+01 0. -1.
        -13    1    6    6    0    0 -0.41678328067E+01 -0.74012427988E+02  0.31697477330E+03  0.32552759827E+03  0.00000000000E+00 0.  1.
         14    1    6    6    0    0 -0.28454918693E+02 -0.20437218011E+02  0.37312753790E+02  0.51182065933E+02  0.00000000000E+00 0. -1.
         -5    1    3    3    0  503  0.13841786275E+02 -0.23596803342E+02  0.54990941686E+02  0.61599495475E+02  0.47000000000E+01 0.  1.
         11    1    4    4    0    0 -0.23587169740E+02  0.99319223409E+02  0.11641920184E+03  0.15483569767E+03  0.00000000000E+00 0. -1.
        -12    1    4    4    0    0  0.51092739394E+02  0.99186477580E+02  0.94876768583E+02  0.14645827587E+03  0.00000000000E+00 0.  1.
</event>
<event>
12    1  0.8747122E-002  0.2054176E+03  0.7818608E-02  0.1148650E+00
         21   -1    0    0  503  502  0.00000000000E+00  0.00000000000E+00  0.25545747842E+03  0.25545747842E+03  0.00000000000E+00 0.  1.
         21   -1    0    0  501  503 -0.00000000000E+00 -0.00000000000E+00 -0.60665208357E+03  0.60665208357E+03  0.00000000000E+00 0.  1.
          6    2    1    2  501    0 -0.11234957089E+03 -0.16067530789E+02 -0.54666478448E+03  0.57855186231E+03  0.15165513235E+03 0.  0.
         24    2    3    3    0    0 -0.80903681662E+02 -0.58538431432E+02 -0.29831688754E+03  0.32460031326E+03  0.80001526958E+02 0.  0.
         -6    2    1    2    0  502  0.11234957089E+03  0.16067530789E+02  0.19547017933E+03  0.28355769968E+03  0.17121853408E+03 0.  0.
        -24    2    5    5    0    0  0.71729585669E+02 -0.56203052514E+02  0.10039819625E+03  0.15732857317E+03  0.79803292883E+02 0.  0.
          5    1    3    3  501    0 -0.31445889228E+02  0.42470900643E+02 -0.24834789694E+03  0.25395154905E+03  0.47000000000E+01 0. -1.
        -13    1    4    4    0    0 -0.52685247130E+02  0.94201159133E+01 -0.14436679078E+03  0.15396832183E+03  0.00000000000E+00 0.  1.
         14    1    4    4    0    0 -0.28218434532E+02 -0.67958547345E+02 -0.15395009676E+03  0.17063199143E+03  0.00000000000E+00 0. -1.
         -5    1    5    5    0  502  0.40619985221E+02  0.72270583303E+02  0.95071983089E+02  0.12622912651E+03  0.47000000000E+01 0.  1.
         11    1    6    6    0    0  0.72413097718E+01 -0.45195328372E+02  0.73514371954E+02  0.86599175271E+02  0.00000000000E+00 0. -1.
        -12    1    6    6    0    0  0.64488275897E+02 -0.11007724142E+02  0.26883824292E+02  0.70729397901E+02  0.00000000000E+00 0.  1.
</event>
<event>
12    1  0.8747122E-002  0.1731106E+03  0.7818608E-02  0.1174734E+00
         21   -1    0    0  503  502  0.00000000000E+00  0.00000000000E+00  0.10330037803E+04  0.10330037803E+04  0.00000000000E+00 0. -1.
         21   -1    0    0  501  503 -0.00000000000E+00 -0.00000000000E+00 -0.34144378754E+02  0.34144378754E+02  0.00000000000E+00 0. -1.
          6    2    1    2  501    0  0.14154562450E+02 -0.91742952150E+01  0.29086266494E+03  0.33829518927E+03  0.17192447730E+03 0.  0.
         24    2    3    3    0    0 -0.28935504792E+02  0.31531587383E+02  0.25140180255E+03  0.26693012475E+03  0.78849988802E+02 0.  0.
         -6    2    1    2    0  502 -0.14154562450E+02  0.91742952150E+01  0.70799673659E+03  0.72885296978E+03  0.17228683406E+03 0.  0.
        -24    2    5    5    0    0 -0.45774450682E-01  0.37647673219E+02  0.18093284236E+03  0.20081108720E+03  0.78556030334E+02 0.  0.
          5    1    3    3  501    0  0.43090067241E+02 -0.40705882598E+02  0.39460862393E+02  0.71365064518E+02  0.47000000000E+01 0. -1.
        -13    1    4    4    0    0 -0.24858651345E+01  0.51523105216E+02  0.19299049897E+03  0.19976521867E+03  0.00000000000E+00 0.  1.
         14    1    4    4    0    0 -0.26449639657E+02 -0.19991517834E+02  0.58411303576E+02  0.67164906080E+02  0.00000000000E+00 0. -1.
         -5    1    5    5    0  502 -0.14108787999E+02 -0.28473378004E+02  0.52706389423E+03  0.52804188258E+03  0.47000000000E+01 0.  1.
         11    1    6    6    0    0 -0.38596727258E+01  0.30369245008E+02  0.18769135831E+03  0.19017159120E+03  0.00000000000E+00 0. -1.
        -12    1    6    6    0    0  0.38138982751E+01  0.72784282114E+01 -0.67585159460E+01  0.10639495997E+02  0.00000000000E+00 0.  1.
</event>
<event>
12    1  0.8747122E-002  0.2281972E+03  0.7818608E-02  0.1127925E+00
         21   -1    0    0  501  502  0.00000000000E+00  0.00000000000E+00  0.81607099308E+03  0.81607099308E+03  0.00000000000E+00 0. -1.
         21   -1    0    0  502  503 -0.00000000000E+00 -0.00000000000E+00 -0.79710671226E+02  0.79710671226E+02  0.00000000000E+00 0. -1.
         -6    2    1    2    0  503  0.13536673775E+03 -0.66462558742E+02  0.16801407275E+03  0.28333459210E+03  0.17119677870E+03 0.  0.
        -24    2    3    3    0    0  0.88617615152E+02  0.26479021752E+01  0.16319732613E+03  0.19962660371E+03  0.73193719369E+02 0.  0.
          6    2    1    2  501    0 -0.13536673775E+03  0.66462558742E+02  0.56834624910E+03  0.61244707220E+03  0.17126742823E+03 0.  0.
         24    2    5    5    0    0 -0.82292864363E+02  0.84719187719E+02  0.51667975732E+03  0.53601633943E+03  0.80038042350E+02 0.  0.
          5    1    5    5  501    0 -0.53073873388E+02 -0.18256628977E+02  0.51666491784E+02  0.76430732767E+02  0.47000000000E+01 0. -1.
        -13    1    6    6    0    0  0.35412935131E+00  0.40458830144E+02  0.83228871766E+02  0.92542354841E+02  0.00000000000E+00 0.  1.
         14    1    6    6    0    0 -0.82646993714E+02  0.44260357575E+02  0.43345088555E+03  0.44347398459E+03  0.00000000000E+00 0. -1.
         -5    1    3    3    0  503  0.46749122599E+02 -0.69110460917E+02  0.48167466227E+01  0.83707988388E+02  0.47000000000E+01 0.  1.
         11    1    4    4    0    0  0.71739418477E+02  0.77683101026E+01  0.56949197093E+02  0.91924435569E+02  0.00000000000E+00 0. -1.
        -12    1    4    4    0    0  0.16878196675E+02 -0.51204079274E+01  0.10624812903E+03  0.10770216814E+03  0.00000000000E+00 0.  1.
</event>
<event>
12    1  0.8747122E-002  0.1874419E+03  0.7818608E-02  0.1162633E+00
         21   -1    0    0  503  502  0.00000000000E+00  0.00000000000E+00  0.13883713697E+03  0.13883713697E+03  0.00000000000E+00 0. -1.
         21   -1    0    0  501  503 -0.00000000000E+00 -0.00000000000E+00 -0.29741647801E+03  0.29741647801E+03  0.00000000000E+00 0. -1.
          6    2    1    2  501    0  0.74586909586E+01  0.80235049866E+01 -0.17155806112E+03  0.24836289820E+03  0.17925387629E+03 0.  0.
         24    2    3    3    0    0 -0.12253481134E+02  0.57226109387E+02 -0.16722372545E+03  0.19497429948E+03  0.81401644388E+02 0.  0.
         -6    2    1    2    0  502 -0.74586909586E+01 -0.80235049866E+01  0.12978720081E+02  0.18789071677E+03  0.18712152621E+03 0.  0.
        -24    2    5    5    0    0  0.17347809019E+01  0.11670696290E+02 -0.56369073024E+02  0.11506498027E+03  0.99615574458E+02 0.  0.
          5    1    3    3  501    0  0.19712172092E+02 -0.49202604401E+02 -0.43343356748E+01  0.53388598728E+02  0.47000000000E+01 0. -1.
        -13    1    4    4    0    0 -0.37985282818E+02  0.52841123293E+00 -0.64116511024E+02  0.74525753368E+02  0.00000000000E+00 0.  1.
         14    1    4    4    0    0  0.25731801684E+02  0.56697698154E+02 -0.10310721442E+03  0.12044854611E+03  0.00000000000E+00 0. -1.
         -5    1    5    5    0  502 -0.91934718605E+01 -0.19694201277E+02  0.69347793105E+02  0.72825736503E+02  0.47000000000E+01 0.  1.
         11    1    6    6    0    0 -0.38164347950E+02 -0.11574246346E+02  0.28361124441E+01  0.39981547828E+02  0.00000000000E+00 0. -1.
        -12    1    6    6    0    0  0.39899128852E+02  0.23244942636E+02 -0.59205185468E+02  0.75083432444E+02  0.00000000000E+00 0.  1.
</event>
<event>
12    1  0.8747122E-002  0.2812460E+03  0.7818608E-02  0.1095074E+00
         21   -1    0    0  503  502  0.00000000000E+00  0.00000000000E+00  0.40948264935E+03  0.40948264935E+03  0.00000000000E+00 0.  1.
         21   -1    0    0  501  503 -0.00000000000E+00 -0.00000000000E+00 -0.20614726207E+03  0.20614726207E+03  0.00000000000E+00 0. -1.
          6    2    1    2  501    0 -0.18018060180E+03 -0.12911936687E+03  0.23400110807E+02  0.28174968995E+03  0.17233241841E+03 0.  0.
         24    2    3    3    0    0 -0.12175685651E+03 -0.59273602209E+02 -0.51075734552E+02  0.16401903805E+03  0.77171381727E+02 0.  0.
         -6    2    1    2    0  502  0.18018060180E+03  0.12911936687E+03  0.17993527647E+03  0.33388022147E+03  0.17309661580E+03 0.  0.
        -24    2    5    5    0    0  0.91822378166E+02  0.87362028680E+02  0.26851415227E+02  0.15220025683E+03  0.79877697095E+02 0.  0.
          5    1    3    3  501    0 -0.58423745294E+02 -0.69845764662E+02  0.74475845358E+02  0.11773065190E+03  0.47000000000E+01 0. -1.
        -13    1    4    4    0    0 -0.41257311525E+01  0.10147586715E+02  0.95950301097E+01  0.14562272367E+02  0.00000000000E+00 0.  1.
         14    1    4    4    0    0 -0.11763112536E+03 -0.69421188924E+02 -0.60670764661E+02  0.14945676568E+03  0.00000000000E+00 0. -1.
         -5    1    5    5    0  502  0.88358223636E+02  0.41757338191E+02  0.15308386124E+03  0.18167996464E+03  0.47000000000E+01 0.  1.
         13    1    6    6    0    0  0.56723214507E+02  0.11393259206E+02 -0.13324747569E+02  0.59370685672E+02  0.00000000000E+00 0. -1.
        -14    1    6    6    0    0  0.35099163659E+02  0.75968769474E+02  0.40176162796E+02  0.92829571161E+02  0.00000000000E+00 0.  1.
</event>
<event>
12    1  0.8747122E-002  0.2195752E+03  0.7818608E-02  0.1134705E+00
         21   -1    0    0  501  502  0.00000000000E+00  0.00000000000E+00  0.19090952507E+03  0.19090952507E+03  0.00000000000E+00 0.  1.
         21   -1    0    0  502  503 -0.00000000000E+00 -0.00000000000E+00 -0.37349524901E+03  0.37349524901E+03  0.00000000000E+00 0. -1.
         -6    2    1    2    0  503  0.13329365582E+03 -0.12719900173E+02 -0.25428812478E+03  0.33596982343E+03  0.17402378375E+03 0.  0.
        -24    2    3    3    0    0  0.13164820056E+03 -0.16622959243E+02 -0.10716347191E+03  0.18870918757E+03  0.80743893122E+02 0.  0.
          6    2    1    2  501    0 -0.13329365582E+03  0.12719900173E+02  0.71702400839E+02  0.22843495065E+03  0.17062326292E+03 0.  0.
         24    2    5    5    0    0 -0.10793830333E+03  0.63416603673E+02  0.83957058361E+02  0.17025147983E+03  0.79148188792E+02 0.  0.
          5    1    5    5  501    0 -0.25355352487E+02 -0.50696703500E+02 -0.12254657522E+02  0.58183470818E+02  0.47000000000E+01 0. -1.
        -11    1    6    6    0    0 -0.63268844407E+02 -0.74842798898E+01  0.28714101303E+02  0.69881762511E+02  0.00000000000E+00 0.  1.
         12    1    6    6    0    0 -0.44669458923E+02  0.70900883563E+02  0.55242957059E+02  0.10036971732E+03  0.00000000000E+00 0. -1.
         -5    1    3    3    0  503  0.16454552577E+01  0.39030590693E+01 -0.14712465287E+03  0.14726063586E+03  0.47000000000E+01 0.  1.
         11    1    4    4    0    0  0.40470039713E+02  0.27296410700E+02 -0.59152881434E+02  0.76694077564E+02  0.00000000000E+00 0. -1.
        -12    1    4    4    0    0  0.91178160846E+02 -0.43919369942E+02 -0.48010590476E+02  0.11201511000E+03  0.00000000000E+00 0.  1.
</event>
<event>
12    1  0.8747122E-002  0.2016066E+03  0.7818608E-02  0.1149120E+00
         21   -1    0    0  501  502  0.00000000000E+00  0.00000000000E+00  0.72619267841E+02  0.72619267841E+02  0.00000000000E+00 0.  1.
         21   -1    0    0  502  503 -0.00000000000E+00 -0.00000000000E+00 -0.67278522712E+03  0.67278522712E+03  0.00000000000E+00 0.  1.
         -6    2    1    2    0  503 -0.48052683973E+02 -0.85528322275E+02 -0.45708483111E+03  0.49818511929E+03  0.17215608006E+03 0.  0.
        -24    2    3    3    0    0 -0.83513481820E+02 -0.81163866427E+01 -0.26397741488E+03  0.28708646897E+03  0.75459841782E+02 0.  0.
          6    2    1    2  501    0  0.48052683973E+02  0.85528322275E+02 -0.14308112817E+03  0.24721937568E+03  0.17612795384E+03 0.  0.
         24    2    5    5    0    0 -0.10015465462E+02  0.82587216108E+02 -0.14868499994E+03  0.18861857822E+03  0.80924539097E+02 0.  0.
          5    1    5    5  501    0  0.58068149434E+02  0.29411061670E+01  0.56038717691E+01  0.58600797461E+02  0.47000000000E+01 0. -1.
        -11    1    6    6    0    0 -0.31428917673E+02  0.73055381001E+01 -0.19883165384E+02  0.37901029257E+02  0.00000000000E+00 0.  1.
         12    1    6    6    0    0  0.21413452211E+02  0.75281678008E+02 -0.12880183456E+03  0.15071754896E+03  0.00000000000E+00 0. -1.
         -5    1    3    3    0  503  0.35460797847E+02 -0.77411935632E+02 -0.19310741623E+03  0.21109865031E+03  0.47000000000E+01 0.  1.
         11    1    4    4    0    0 -0.81345282402E+02 -0.53813673368E+01 -0.13255430537E+03  0.15561702335E+03  0.00000000000E+00 0. -1.
        -12    1    4    4    0    0 -0.21681994174E+01 -0.27350193060E+01 -0.13142310951E+03  0.13146944562E+03  0.00000000000E+00 0.  1.
</event>
<event>
12    1  0.8747122E-002  0.2005581E+03  0.7818608E-02  0.1149969E+00
         21   -1    0    0  501  502  0.00000000000E+00  0.00000000000E+00  0.10640947469E+04  0.10640947469E+04  0.00000000000E+00 0.  1.
         21   -1    0    0  502  503 -0.00000000000E+00 -0.00000000000E+00 -0.48511231829E+02  0.48511231829E+02  0.00000000000E+00 0.  1.
         -6    2    1    2    0  503 -0.73360736651E+02 -0.53461113721E+02  0.24218119798E+03  0.31444438860E+03  0.17883973971E+03 0.  0.
        -24    2    3    3    0    0 -0.79278206669E+02  0.10230054131E+02  0.75289449129E+02  0.13565253434E+03  0.79645595367E+02 0.  0.
          6    2    1    2  501    0  0.73360736651E+02  0.53461113721E+02  0.77340231704E+03  0.79816159009E+03  0.17513106956E+03 0.  0.
         24    2    5    5    0    0  0.74345850336E+02  0.74094356385E+02  0.76364882263E+03  0.77483945886E+03  0.78736164418E+02 0.  0.
          5    1    5    5  501    0 -0.98511368523E+00 -0.20633242665E+02  0.97534944080E+01  0.23322131228E+02  0.47000000000E+01 0. -1.
        -11    1    6    6    0    0  0.31021463906E+02  0.46749474514E+02  0.17075471591E+03  0.17973596634E+03  0.00000000000E+00 0.  1.
         12    1    6    6    0    0  0.43324386430E+02  0.27344881872E+02  0.59289410672E+03  0.59510349252E+03  0.00000000000E+00 0. -1.
         -5    1    3    3    0  503  0.59174700182E+01 -0.63691167851E+02  0.16689174886E+03  0.17879185426E+03  0.47000000000E+01 0.  1.
         13    1    4    4    0    0 -0.14063179241E+01 -0.20664470035E+02 -0.30731087695E+01  0.20939007843E+02  0.00000000000E+00 0. -1.
        -14    1    4    4    0    0 -0.77871888745E+02  0.30894524165E+02  0.78362557898E+02  0.11471352649E+03  0.00000000000E+00 0.  1.
</event>
<event>
12    1  0.8747122E-002  0.3438700E+03  0.7818608E-02  0.1065194E+00
         21   -1    0    0  503  502  0.00000000000E+00  0.00000000000E+00  0.13312170143E+03  0.13312170143E+03  0.00000000000E+00 0.  1.
         21   -1    0    0  501  503 -0.00000000000E+00 -0.00000000000E+00 -0.10389952050E+04  0.10389952050E+04  0.00000000000E+00 0. -1.
          6    2    1    2  501    0 -0.19872667497E+03  0.22211567369E+03 -0.67696960749E+03  0.75929862921E+03  0.17151937212E+03 0.  0.
         24    2    3    3    0    0 -0.97146025131E+02  0.48698595830E+02 -0.18806106623E+03  0.23067233112E+03  0.77677900837E+02 0.  0.
         -6    2    1    2    0  502  0.19872667497E+03 -0.22211567369E+03 -0.22890389608E+03  0.41281827721E+03  0.17086331531E+03 0.  0.
        -24    2    5    5    0    0  0.19696218038E+03 -0.22736458483E+03 -0.24417183307E+03  0.39591075199E+03  0.81465848937E+02 0.  0.
          5    1    3    3  501    0 -0.10158064984E+03  0.17341707786E+03 -0.48890854126E+03  0.52862629809E+03  0.47000000000E+01 0. -1.
        -11    1    4    4    0    0 -0.38135163150E+02  0.59012336487E+02 -0.12694902297E+03  0.14509583371E+03  0.00000000000E+00 0.  1.
         12    1    4    4    0    0 -0.59010861981E+02 -0.10313740658E+02 -0.61112043262E+02  0.85576497414E+02  0.00000000000E+00 0. -1.
         -5    1    5    5    0  502  0.17644945924E+01  0.52489111397E+01  0.15267936988E+02  0.16907525224E+02  0.47000000000E+01 0.  1.
         13    1    6    6    0    0  0.12212892232E+03 -0.82064978422E+02 -0.13210303953E+03  0.19774060636E+03  0.00000000000E+00 0. -1.
        -14    1    6    6    0    0  0.74833258054E+02 -0.14529960640E+03 -0.11206879354E+03  0.19817014563E+03  0.00000000000E+00 0.  1.
</event>
<event>
12    1  0.8747122E-002  0.1891190E+03  0.7818608E-02  0.1159505E+00
         21   -1    0    0  501  502  0.00000000000E+00  0.00000000000E+00  0.39976654185E+03  0.39976654185E+03  0.00000000000E+00 0.  1.
         21   -1    0    0  502  503 -0.00000000000E+00 -0.00000000000E+00 -0.10343664929E+03  0.10343664929E+03  0.00000000000E+00 0.  1.
         -6    2    1    2    0  503 -0.66786654005E+02 -0.34102891467E+02  0.54390407126E+02  0.19678498732E+03  0.17361610088E+03 0.  0.
        -24    2    3    3    0    0 -0.22117931987E+02 -0.26457248937E+02  0.10012869014E+03  0.13222624577E+03  0.79175984648E+02 0.  0.
          6    2    1    2  501    0  0.66786654005E+02  0.34102891467E+02  0.24193948543E+03  0.30641820383E+03  0.17243531155E+03 0.  0.
         24    2    5    5    0    0 -0.20899770468E+02 -0.81111041789E+01  0.15624780677E+03  0.17666426648E+03  0.79336596312E+02 0.  0.
          5    1    5    5  501    0  0.87686424473E+02  0.42213995646E+02  0.85691678657E+02  0.12975393734E+03  0.47000000000E+01 0. -1.
        -13    1    6    6    0    0 -0.13346347023E+01 -0.28044194582E+02  0.14303789166E+03  0.14576726844E+03  0.00000000000E+00 0.  1.
         14    1    6    6    0    0 -0.19565135766E+02  0.19933090403E+02  0.13209915113E+02  0.30896998039E+02  0.00000000000E+00 0. -1.
         -5    1    3    3    0  503 -0.44668722019E+02 -0.76456425301E+01 -0.45738283015E+02  0.64558741543E+02  0.47000000000E+01 0.  1.
         11    1    4    4    0    0 -0.46456824936E+02 -0.18472071955E+02  0.31792872555E+02  0.59247284924E+02  0.00000000000E+00 0. -1.
        -12    1    4    4    0    0  0.24338892950E+02 -0.79851769819E+01  0.68335817586E+02  0.72978960849E+02  0.00000000000E+00 0.  1.
</event>
<event>
12    1  0.8747122E-002  0.1745472E+03  0.7818608E-02  0.1173352E+00
         21   -1    0    0  503  502  0.00000000000E+00  0.00000000000E+00  0.45052815529E+02  0.45052815529E+02  0.00000000000E+00 0. -1.
         21   -1    0    0  501  503 -0.00000000000E+00 -0.00000000000E+00 -0.68771003356E+03  0.68771003356E+03  0.00000000000E+00 0. -1.
          6    2    1    2  501    0  0.18010967173E+02 -0.24349952281E+02 -0.26847414311E+03  0.31987096629E+03  0.17123596131E+03 0.  0.
         24    2    3    3    0    0  0.38479456702E+02 -0.42212048846E+02 -0.62669203425E+02  0.11222757787E+03  0.73519211919E+02 0.  0.
         -6    2    1    2    0  502 -0.18010967173E+02  0.24349952281E+02 -0.37418307492E+03  0.41289188279E+03  0.17189944213E+03 0.  0.
        -24    2    5    5    0    0 -0.76451602615E+02  0.19703182130E+02 -0.28926689474E+03  0.30959741053E+03  0.77085389569E+02 0.  0.
          5    1    3    3  501    0 -0.20468489529E+02  0.17862096565E+02 -0.20580493968E+03  0.20764338842E+03  0.47000000000E+01 0. -1.
        -11    1    4    4    0    0  0.28075024970E+01 -0.61130589915E+00 -0.57069275024E+02  0.57141560330E+02  0.00000000000E+00 0.  1.
         12    1    4    4    0    0  0.35671954205E+02 -0.41600742947E+02 -0.55999284011E+01  0.55086017542E+02  0.00000000000E+00 0. -1.
         -5    1    5    5    0  502  0.58440635442E+02  0.46467701510E+01 -0.84916180177E+02  0.10329447226E+03  0.47000000000E+01 0.  1.
         13    1    6    6    0    0  0.89033140014E+01 -0.62801379420E+01 -0.97312878449E+02  0.97920914236E+02  0.00000000000E+00 0. -1.
        -14    1    6    6    0    0 -0.85354916616E+02  0.25983320072E+02 -0.19195401629E+03  0.21167649630E+03  0.00000000000E+00 0.  1.
</event>
<event>
12    1  0.8747122E-002  0.1999958E+03  0.7818608E-02  0.1150703E+00
         21   -1    0    0  501  502  0.00000000000E+00  0.00000000000E+00  0.78998584469E+02  0.78998584469E+02  0.00000000000E+00 0.  1.
         21   -1    0    0  502  503 -0.00000000000E+00 -0.00000000000E+00 -0.56238282420E+03  0.56238282420E+03  0.00000000000E+00 0.  1.
         -6    2    1    2    0  503 -0.42183638398E+01 -0.10180804983E+03 -0.35027670482E+03  0.40114002934E+03  0.16684387790E+03 0.  0.
        -24    2    3    3    0    0  0.20740814008E+02  0.12392080480E+01 -0.15633150034E+03  0.18005513557E+03  0.86882661339E+02 0.  0.
          6    2    1    2  501    0  0.42183638398E+01  0.10180804983E+03 -0.13310753492E+03  0.24024137933E+03  0.17209192569E+03 0.  0.
         24    2    5    5    0    0 -0.25319343971E+02  0.69869138310E+02 -0.15497814920E+02  0.11475549770E+03  0.86057401296E+02 0.  0.
          5    1    5    5  501    0  0.29537707811E+02  0.31938911525E+02 -0.11760972000E+03  0.12548588163E+03  0.47000000000E+01 0. -1.
        -13    1    6    6    0    0 -0.33768538067E+01  0.25446362376E+02 -0.48742941156E+02  0.55088971785E+02  0.00000000000E+00 0.  1.
         14    1    6    6    0    0 -0.21942490164E+02  0.44422775934E+02  0.33245126236E+02  0.59666525915E+02  0.00000000000E+00 0. -1.
         -5    1    3    3    0  503 -0.24959177848E+02 -0.10304725788E+03 -0.19394520447E+03  0.22108489377E+03  0.47000000000E+01 0.  1.
         13    1    4    4    0    0  0.35393048442E+02 -0.79805289486E+01 -0.17739677800E+02  0.40386295804E+02  0.00000000000E+00 0. -1.
        -14    1    4    4    0    0 -0.14652234434E+02  0.92197369966E+01 -0.13859182254E+03  0.13966883976E+03  0.00000000000E+00 0.  1.
</event>
<event>
12    1  0.8747122E-002  0.2912572E+03  0.7818608E-02  0.1089883E+00
         21   -1    0    0  503  502  0.00000000000E+00  0.00000000000E+00  0.23316478435E+03  0.23316478435E+03  0.00000000000E+00 0. -1.
         21   -1    0    0  501  503 -0.00000000000E+00 -0.00000000000E+00 -0.36267401005E+03  0.36267401005E+03  0.00000000000E+00 0. -1.
          6    2    1    2  501    0 -0.43285300004E+02  0.23267926664E+03 -0.77606273915E+02  0.30141912566E+03  0.16975717141E+03 0.  0.
         24    2    3    3    0    0 -0.64251129002E+02  0.89070021247E+02  0.22215251470E+01  0.13571532712E+03  0.79699677409E+02 0.  0.
         -6    2    1    2    0  502  0.43285300004E+02 -0.23267926664E+03 -0.51902951785E+02  0.29441966873E+03  0.16725957854E+03 0.  0.
        -24    2    5    5    0    0  0.12696655979E+02 -0.18742593015E+03  0.18443685513E+02  0.20523296016E+03  0.80564967802E+02 0.  0.
          5    1    3    3  501    0  0.20965828998E+02  0.14360924539E+03 -0.79827799062E+02  0.16570379854E+03  0.47000000000E+01 0. -1.
        -11    1    4    4    0    0 -0.46504130727E+02  0.63145416386E+02 -0.35956889678E+02  0.86272102678E+02  0.00000000000E+00 0.  1.
         12    1    4    4    0    0 -0.17746998275E+02  0.25924604861E+02  0.38178414825E+02  0.49443224445E+02  0.00000000000E+00 0. -1.
         -5    1    5    5    0  502  0.30588644025E+02 -0.45253336488E+02 -0.70346637298E+02  0.89186708571E+02  0.47000000000E+01 0.  1.
         11    1    6    6    0    0  0.12526586269E+02 -0.19532863075E+03  0.21170119653E+02  0.19687143856E+03  0.00000000000E+00 0. -1.
        -12    1    6    6    0    0  0.17006971001E+00  0.79027005988E+01 -0.27264341400E+01  0.83615216068E+01  0.00000000000E+00 0.  1.
</event>
<event>
12    1  0.8747122E-002  0.1958094E+03  0.7818608E-02  0.1153893E+00
         21   -1    0    0  501  502  0.00000000000E+00  0.00000000000E+00  0.35472717590E+03  0.35472717590E+03  0.00000000000E+00 0. -1.
         21   -1    0    0  502  503 -0.00000000000E+00 -0.00000000000E+00 -0.32019893106E+03  0.32019893106E+03  0.00000000000E+00 0.  1.
         -6    2    1    2    0  503  0.81833243209E+02  0.41287159852E+02 -0.25828542719E+03  0.32411834552E+03  0.17303187781E+03 0.  0.
        -24    2    3    3    0    0  0.73123206172E+02  0.40258688954E+02 -0.27799641187E+03  0.30203814138E+03  0.83530045610E+02 0.  0.
          6    2    1    2  501    0 -0.81833243209E+02 -0.41287159852E+02  0.29281367204E+03  0.35080776145E+03  0.17007330683E+03 0.  0.
         24    2    5    5    0    0 -0.11466691086E+03 -0.57353570474E+01  0.24972367230E+03  0.28583993486E+03  0.78493063948E+02 0.  0.
          5    1    5    5  501    0  0.32833667649E+02 -0.35551802805E+02  0.43089999736E+02  0.64967826585E+02  0.47000000000E+01 0. -1.
        -13    1    6    6    0    0 -0.68967967478E+02 -0.38053049400E+02  0.17962296402E+03  0.19613521945E+03  0.00000000000E+00 0.  1.
         14    1    6    6    0    0 -0.45698943380E+02  0.32317692353E+02  0.70100708285E+02  0.89704715412E+02  0.00000000000E+00 0. -1.
         -5    1    3    3    0  503  0.87100370376E+01  0.10284708984E+01  0.19710984680E+02  0.22080204135E+02  0.47000000000E+01 0.  1.
         13    1    4    4    0    0  0.49983015116E+02  0.24132911465E+02 -0.58140496363E+02  0.80380448700E+02  0.00000000000E+00 0. -1.
        -14    1    4    4    0    0  0.23140191056E+02  0.16125777489E+02 -0.21985591551E+03  0.22165769268E+03  0.00000000000E+00 0.  1.
</event>
<event>
12    1  0.8747122E-002  0.1724622E+03  0.7818608E-02  0.1175497E+00
         21   -1    0    0  503  502  0.00000000000E+00  0.00000000000E+00  0.48418543882E+02  0.48418543882E+02  0.00000000000E+00 0.  1.
         21   -1    0    0  501  503 -0.00000000000E+00 -0.00000000000E+00 -0.22115771897E+04  0.22115771897E+04  0.00000000000E+00 0.  1.
          6    2    1    2  501    0  0.10168654128E+02  0.24639838855E+01 -0.20433578352E+04  0.20506229462E+04  0.17214456757E+03 0.  0.
         24    2    3    3    0    0 -0.10043370522E+02  0.48506020887E+02 -0.17453381387E+04  0.17483544817E+04  0.89913692486E+02 0.  0.
         -6    2    1    2    0  502 -0.10168654128E+02 -0.24639838855E+01 -0.11980081057E+03  0.20937278731E+03  0.17139211508E+03 0.  0.
        -24    2    5    5    0    0 -0.26669068737E+02  0.27426602608E+02 -0.44841169625E+01  0.89016064744E+02  0.80251446839E+02 0.  0.
          5    1    3    3  501    0  0.20212024650E+02 -0.46042037001E+02 -0.29801969656E+03  0.30226846453E+03  0.47000000000E+01 0. -1.
        -13    1    4    4    0    0  0.32296189446E+02  0.35033107380E+02 -0.12834603699E+04  0.12843445346E+04  0.00000000000E+00 0.  1.
         14    1    4    4    0    0 -0.42339559968E+02  0.13472913507E+02 -0.46187776874E+03  0.46400994708E+03  0.00000000000E+00 0. -1.
         -5    1    5    5    0  502  0.16500414609E+02 -0.29890586494E+02 -0.11531669361E+03  0.12035672257E+03  0.47000000000E+01 0.  1.
         11    1    6    6    0    0 -0.10228696061E+02  0.28252258935E+02 -0.39907826035E+02  0.49954488656E+02  0.00000000000E+00 0. -1.
        -12    1    6    6    0    0 -0.16440372676E+02 -0.82565632630E+00  0.35423709072E+02  0.39061576089E+02  0.00000000000E+00 0.  1.
</event>
<event>
12    1  0.8747122E-002  0.1943748E+03  0.7818608E-02  0.1154765E+00
         21   -1    0    0  501  502  0.00000000000E+00  0.00000000000E+00  0.12672514297E+03  0.12672514297E+03  0.00000000000E+00 0.  1.
         21   -1    0    0  502  503 -0.00000000000E+00 -0.00000000000E+00 -0.35890367353E+03  0.35890367353E+03  0.00000000000E+00 0. -1.
         -6    2    1    2    0  503 -0.79024307224E+02 -0.42436905667E+02 -0.21730590646E+03  0.29155345065E+03  0.17244078842E+03 0.  0.
        -24    2    3    3    0    0  0.12243738247E+00 -0.73740247436E+02 -0.12686298907E+03  0.16727103961E+03  0.80297843149E+02 0.  0.
          6    2    1    2  501    0  0.79024307224E+02  0.42436905667E+02 -0.14872624090E+02  0.19407536585E+03  0.17145938466E+03 0.  0.
         24    2    5    5    0    0 -0.19825377263E+01  0.70981353403E+02 -0.92657105507E+01  0.10787547081E+03  0.80678254959E+02 0.  0.
          5    1    5    5  501    0  0.81006844950E+02 -0.28544447736E+02 -0.56069135395E+01  0.86199895039E+02  0.47000000000E+01 0. -1.
        -11    1    6    6    0    0  0.21859475218E+02  0.78589738576E+02 -0.12898376563E+02  0.82586631995E+02  0.00000000000E+00 0.  1.
         12    1    6    6    0    0 -0.23842012944E+02 -0.76083851734E+01  0.36326660125E+01  0.25288838813E+02  0.00000000000E+00 0. -1.
         -5    1    3    3    0  503 -0.79146744606E+02  0.31303341769E+02 -0.90442917390E+02  0.12428241104E+03  0.47000000000E+01 0.  1.
         11    1    4    4    0    0 -0.44552498605E+01  0.16917186843E+02 -0.28356249478E+02  0.33318423529E+02  0.00000000000E+00 0. -1.
        -12    1    4    4    0    0  0.45776872430E+01 -0.90657434279E+02 -0.98506739593E+02  0.13395261608E+03  0.00000000000E+00 0.  1.
</event>
<event>
12    1  0.8747122E-002  0.2862980E+03  0.7818608E-02  0.1092366E+00
         21   -1    0    0  501  502  0.00000000000E+00  0.00000000000E+00  0.15257296419E+03  0.15257296419E+03  0.00000000000E+00 0. -1.
         21   -1    0    0  502  503 -0.00000000000E+00 -0.00000000000E+00 -0.59414270610E+03  0.59414270610E+03  0.00000000000E+00 0.  1.
         -6    2    1    2    0  503 -0.11418202898E+03  0.19861035910E+03 -0.33749104294E+03  0.44256836113E+03  0.17170596880E+03 0.  0.
        -24    2    3    3    0    0 -0.13527579506E+03  0.15192851193E+03 -0.20158620763E+03  0.29725368161E+03  0.79630011029E+02 0.  0.
          6    2    1    2  501    0  0.11418202898E+03 -0.19861035910E+03 -0.10407869898E+03  0.30414730917E+03  0.17084964035E+03 0.  0.
         24    2    5    5    0    0  0.68291871722E+02 -0.18417084063E+03 -0.13025277079E+03  0.24917842468E+03  0.80879074830E+02 0.  0.
          5    1    5    5  501    0  0.45890157258E+02 -0.14439518465E+02  0.26174071809E+02  0.54968884487E+02  0.47000000000E+01 0. -1.
        -13    1    6    6    0    0  0.36663743805E+02 -0.46917979471E+02 -0.79795974848E+02  0.99563670630E+02  0.00000000000E+00 0.  1.
         14    1    6    6    0    0  0.31628127917E+02 -0.13725286116E+03 -0.50456795938E+02  0.14961475405E+03  0.00000000000E+00 0. -1.
         -5    1    3    3    0  503  0.21093766083E+02  0.46681847165E+02 -0.13590483531E+03  0.14531467952E+03  0.47000000000E+01 0.  1.
         13    1    4    4    0    0 -0.48365404612E+02  0.10681701415E+03 -0.84029807720E+02  0.14425704648E+03  0.00000000000E+00 0. -1.
        -14    1    4    4    0    0 -0.86910390451E+02  0.45111497788E+02 -0.11755639991E+03  0.15299663513E+03  0.00000000000E+00 0.  1.
</event>
<event>
12    1  0.8747122E-002  0.1880043E+03  0.7818608E-02  0.1160921E+00
         21   -1    0    0  503  502  0.00000000000E+00  0.00000000000E+00  0.11586831891E+03  0.11586831891E+03  0.00000000000E+00 0.  1.
         21   -1    0    0  501  503 -0.00000000000E+00 -0.00000000000E+00 -0.36309146298E+03  0.36309146298E+03  0.00000000000E+00 0.  1.
          6    2    1    2  501    0 -0.65986128223E+02 -0.18496160332E+02 -0.22380359534E+03  0.29229034796E+03  0.17506947524E+03 0.  0.
         24    2    3    3    0    0 -0.19113567017E+02 -0.66332620237E+02 -0.10714284085E+03  0.15769025313E+03  0.92850862330E+02 0.  0.
         -6    2    1    2    0  502  0.65986128223E+02  0.18496160332E+02 -0.23419548741E+02  0.18666943393E+03  0.17204861300E+03 0.  0.
        -24    2    5    5    0    0  0.91237288850E+02 -0.13159812885E+02 -0.55069460412E+02  0.13506004852E+03  0.81921594742E+02 0.  0.
          5    1    3    3  501    0 -0.46872561206E+02  0.47836459905E+02 -0.11666075449E+03  0.13460009483E+03  0.47000000000E+01 0. -1.
        -13    1    4    4    0    0 -0.50415188805E+02 -0.24982252024E+02 -0.83513526238E+02  0.10069912236E+03  0.00000000000E+00 0.  1.
         14    1    4    4    0    0  0.31301621788E+02 -0.41350368213E+02 -0.23629314609E+02  0.56991130773E+02  0.00000000000E+00 0. -1.
         -5    1    5    5    0  502 -0.25251160626E+02  0.31655973217E+02  0.31649911671E+02  0.51609385407E+02  0.47000000000E+01 0.  1.
         11    1    6    6    0    0  0.10109860871E+03 -0.95698462588E+00 -0.61236532917E+02  0.11820218892E+03  0.00000000000E+00 0. -1.
        -12    1    6    6    0    0 -0.98613198617E+01 -0.12202828259E+02  0.61670725052E+01  0.16857859598E+02  0.00000000000E+00 0.  1.
</event>
<event>
12    1  0.8747122E-002  0.1742129E+03  0.7818608E-02  0.1173574E+00
         21   -1    0    0  503  502  0.00000000000E+00  0.00000000000E+00  0.88606634084E+03  0.88606634084E+03  0.00000000000E+00 0. -1.
         21   -1    0    0  501  503 -0.00000000000E+00 -0.00000000000E+00 -0.12246056340E+03  0.12246056340E+03  0.00000000000E+00 0. -1.
          6    2    1    2  501    0 -0.16620448729E+02  0.65482800952E+00 -0.46200553022E+02  0.18023496499E+03  0.17341707929E+03 0.  0.
         24    2    3    3    0    0 -0.18792863228E+02 -0.49616468735E+02 -0.75901161055E+02  0.12161637767E+03  0.78832679712E+02 0.  0.
         -6    2    1    2    0  502  0.16620448729E+02 -0.65482800952E+00  0.80980633047E+03  0.82829193926E+03  0.17321828904E+03 0.  0.
        -24    2    5    5    0    0 -0.85519923208E+01  0.61640238757E+02  0.38477575941E+03  0.39795787895E+03  0.80283452706E+02 0.  0.
          5    1    3    3  501    0  0.21724144994E+01  0.50271296745E+02  0.29700608033E+02  0.58618587314E+02  0.47000000000E+01 0. -1.
        -11    1    4    4    0    0 -0.18425175234E+02  0.12578156515E+02  0.14564104987E+01  0.22356615023E+02  0.00000000000E+00 0.  1.
         12    1    4    4    0    0 -0.36768799380E+00 -0.62194625251E+02 -0.77357571553E+02  0.99259762649E+02  0.00000000000E+00 0. -1.
         -5    1    5    5    0  502  0.25172441049E+02 -0.62295066766E+02  0.42503057106E+03  0.43033406031E+03  0.47000000000E+01 0.  1.
         13    1    6    6    0    0 -0.16355333525E+02  0.50257427777E+01  0.26172113355E+03  0.26227982533E+03  0.00000000000E+00 0. -1.
        -14    1    6    6    0    0  0.78033412043E+01  0.56614495979E+02  0.12305462586E+03  0.13567805362E+03  0.00000000000E+00 0.  1.
</event>
<event>
12    1  0.8747122E-002  0.1755347E+03  0.7818608E-02  0.1175463E+00
         21   -1    0    0  503  502  0.00000000000E+00  0.00000000000E+00  0.19342588533E+03  0.19342588533E+03  0.00000000000E+00 0.  1.
         21   -1    0    0  501  503 -0.00000000000E+00 -0.00000000000E+00 -0.16937466786E+03  0.16937466786E+03  0.00000000000E+00 0.  1.
          6    2    1    2  501    0  0.83492817018E+01  0.40714530046E+01  0.75879904519E+02  0.17977423267E+03  0.16271056385E+03 0.  0.
         24    2    3    3    0    0  0.37717694428E+02  0.14473105567E+01  0.10064348542E+03  0.14098358008E+03  0.91227953569E+02 0.  0.
         -6    2    1    2    0  502 -0.83492817018E+01 -0.40714530046E+01 -0.51828687042E+02  0.18302632052E+03  0.17528871603E+03 0.  0.
        -24    2    5    5    0    0 -0.40588563548E+02 -0.14323188261E+02  0.31373818691E+02  0.93086249753E+02  0.76342309245E+02 0.  0.
          5    1    3    3  501    0 -0.29368412726E+02  0.26241424479E+01 -0.24763580903E+02  0.38790652595E+02  0.47000000000E+01 0. -1.
        -11    1    4    4    0    0 -0.10615662766E+02 -0.16277417820E+02 -0.78005707136E+01  0.20940284867E+02  0.00000000000E+00 0.  1.
         12    1    4    4    0    0  0.48333357194E+02  0.17724728376E+02  0.10844405613E+03  0.12004329521E+03  0.00000000000E+00 0. -1.
         -5    1    5    5    0  502  0.32239281846E+02  0.10251735256E+02 -0.83202505733E+02  0.89940070769E+02  0.47000000000E+01 0.  1.
         13    1    6    6    0    0 -0.15702294740E+02 -0.19219546452E+02 -0.22526170677E+02  0.33516882183E+02  0.00000000000E+00 0. -1.
        -14    1    6    6    0    0 -0.24886268808E+02  0.48963581914E+01  0.53899989368E+02  0.59569367569E+02  0.00000000000E+00 0.  1.
</event>
<event>
12    1  0.8747122E-002  0.2750474E+03  0.7818608E-02  0.1098426E+00
         21   -1    0    0  501  502  0.00000000000E+00  0.00000000000E+00  0.75228963754E+02  0.75228963754E+02  0.00000000000E+00 0.  1.
         21   -1    0    0  502  503 -0.00000000000E+00 -0.00000000000E+00 -0.10340200580E+04  0.10340200580E+04  0.00000000000E+00 0. -1.
         -6    2    1    2    0  503  0.15301477139E+03 -0.14990584714E+03 -0.57136440220E+03  0.63412014442E+03  0.17252766211E+03 0.  0.
        -24    2    3    3    0    0  0.69340592259E+02 -0.11983637989E+03 -0.47136460531E+03  0.50022619201E+03  0.94195415803E+02 0.  0.
          6    2    1    2  501    0 -0.15301477139E+03  0.14990584714E+03 -0.38742669203E+03  0.47512887732E+03  0.17251876737E+03 0.  0.
         24    2    5    5    0    0 -0.14674317749E+03  0.17807342822E+03 -0.32410336016E+03  0.40538162022E+03  0.77766084901E+02 0.  0.
          5    1    5    5  501    0 -0.62715939007E+01 -0.28167581087E+02 -0.63323331869E+02  0.69747257103E+02  0.47000000000E+01 0. -1.
        -11    1    6    6    0    0 -0.31051880991E+02  0.67575691673E+02 -0.55694786592E+02  0.92911800498E+02  0.00000000000E+00 0.  1.
         12    1    6    6    0    0 -0.11569129649E+03  0.11049773655E+03 -0.26840857357E+03  0.31246981972E+03  0.00000000000E+00 0. -1.
         -5    1    3    3    0  503  0.83674179128E+02 -0.30069467249E+02 -0.99999796890E+02  0.13389395241E+03  0.47000000000E+01 0.  1.
         11    1    4    4    0    0  0.48924295241E+02 -0.13887964345E+02 -0.23439118066E+03  0.23984513293E+03  0.00000000000E+00 0. -1.
        -12    1    4    4    0    0  0.20416297018E+02 -0.10594841554E+03 -0.23697342465E+03  0.26038105908E+03  0.00000000000E+00 0.  1.
</event>
<event>
12    1  0.8747122E-002  0.2088030E+03  0.7818608E-02  0.1142613E+00
         21   -1    0    0  501  502  0.00000000000E+00  0.00000000000E+00  0.20173381980E+04  0.20173381980E+04  0.00000000000E+00 0. -1.
         21   -1    0    0  502  503 -0.00000000000E+00 -0.00000000000E+00 -0.60917231557E+02  0.60917231557E+02  0.00000000000E+00 0.  1.
         -6    2    1    2    0  503  0.11833076868E+03 -0.20378703426E+02  0.14259651679E+03  0.25245208863E+03  0.17023756367E+03 0.  0.
        -24    2    3    3    0    0  0.69227540848E+02 -0.76162475806E+02  0.66604627979E+02  0.14605747688E+03  0.79394174542E+02 0.  0.
          6    2    1    2  501    0 -0.11833076868E+03  0.20378703426E+02  0.18138244497E+04  0.18258033410E+04  0.17082518321E+03 0.  0.
         24    2    5    5    0    0 -0.13873243742E+03  0.97273861866E+01  0.17568335323E+04  0.17641613641E+04  0.80373796504E+02 0.  0.
          5    1    5    5  501    0  0.20401668741E+02  0.10651317239E+02  0.56990917435E+02  0.61641976902E+02  0.47000000000E+01 0. -1.
        -11    1    6    6    0    0 -0.11110526600E+02  0.19311952624E+02  0.10293940506E+03  0.10532291503E+03  0.00000000000E+00 0.  1.
         12    1    6    6    0    0 -0.12762191082E+03 -0.95845664372E+01  0.16538941272E+04  0.16588384490E+04  0.00000000000E+00 0. -1.
         -5    1    3    3    0  503  0.49103227827E+02  0.55783772380E+02  0.75991888808E+02  0.10639461175E+03  0.47000000000E+01 0.  1.
         13    1    4    4    0    0 -0.70509356846E+01 -0.31755768712E+02 -0.43389448314E+01  0.32817236062E+02  0.00000000000E+00 0. -1.
        -14    1    4    4    0    0  0.76278476533E+02 -0.44406707094E+02  0.70943572810E+02  0.11324024082E+03  0.00000000000E+00 0.  1.
</event>
<event>
12    1  0.8747122E-002  0.1773377E+03  0.7818608E-02  0.1170592E+00
         21   -1    0    0  503  502  0.00000000000E+00  0.00000000000E+00  0.38990960974E+03  0.38990960974E+03  0.00000000000E+00 0.  1.
         21   -1    0    0  501  503 -0.00000000000E+00 -0.00000000000E+00 -0.10666852015E+03  0.10666852015E+03  0.00000000000E+00 0.  1.
          6    2    1    2  501    0  0.33039774314E+02  0.18736627121E+02  0.18430312131E+02  0.17829281720E+03  0.17322229758E+03 0.  0.
         24    2    3    3    0    0  0.73756479046E+02 -0.25477129266E+02 -0.99449136170E+01  0.11165986939E+03  0.79245963985E+02 0.  0.
         -6    2    1    2    0  502 -0.33039774314E+02 -0.18736627121E+02  0.26481077746E+03  0.31828531269E+03  0.17244739641E+03 0.  0.
        -24    2    5    5    0    0  0.34229454882E+02 -0.50752282894E+02  0.16970015680E+03  0.19737926828E+03  0.80081099694E+02 0.  0.
          5    1    3    3  501    0 -0.40716704732E+02  0.44213756387E+02  0.28375225748E+02  0.66632947814E+02  0.47000000000E+01 0. -1.
        -13    1    4    4    0    0  0.27663753281E+02  0.17222709631E+02  0.23787924108E+02  0.40345635526E+02  0.00000000000E+00 0.  1.
         14    1    4    4    0    0  0.46092725764E+02 -0.42699838897E+02 -0.33732837725E+02  0.71314233862E+02  0.00000000000E+00 0. -1.
         -5    1    5    5    0  502 -0.67269229196E+02  0.32015655773E+02  0.95110620665E+02  0.12090604441E+03  0.47000000000E+01 0.  1.
         11    1    6    6    0    0  0.42884032579E+02 -0.16620514643E+02  0.34026907064E+02  0.57211119213E+02  0.00000000000E+00 0. -1.
        -12    1    6    6    0    0 -0.86545776965E+01 -0.34131768251E+02  0.13567324973E+03  0.14016814906E+03  0.00000000000E+00 0.  1.
</event>
<event>
12    1  0.8747122E-002  0.1763653E+03  0.7818608E-02  0.1171854E+00
         21   -1    0    0  503  502  0.00000000000E+00  0.00000000000E+00  0.18224984485E+04  0.18224984485E+04  0.00000000000E+00 0. -1.
         21   -1    0    0  501  503 -0.00000000000E+00 -0.00000000000E+00 -0.23945562402E+02  0.23945562402E+02  0.00000000000E+00 0. -1.
          6    2    1    2  501    0 -0.91020573105E+01 -0.21646160069E+02  0.40127998991E+03  0.43832676773E+03  0.17479508379E+03 0.  0.
         24    2    3    3    0    0 -0.69939266130E+02  0.12042642563E+02  0.24880847453E+03  0.27067905853E+03  0.79529677105E+02 0.  0.
         -6    2    1    2    0  502  0.91020573105E+01  0.21646160069E+02  0.13972728962E+04  0.14081172432E+04  0.17283292625E+03 0.  0.
        -24    2    5    5    0    0 -0.43886593472E+02  0.74651961524E+01  0.42361489218E+03  0.43290398668E+03  0.77295035888E+02 0.  0.
          5    1    3    3  501    0  0.60837208819E+02 -0.33688802632E+02  0.15247151538E+03  0.16764770920E+03  0.47000000000E+01 0. -1.
        -11    1    4    4    0    0 -0.69203767558E+01 -0.12961169988E+02  0.15075276349E+03  0.15146708964E+03  0.00000000000E+00 0.  1.
         12    1    4    4    0    0 -0.63018889374E+02  0.25003812550E+02  0.98055711038E+02  0.11921196889E+03  0.00000000000E+00 0. -1.
         -5    1    5    5    0  502  0.52988650783E+02  0.14180963917E+02  0.97365800403E+03  0.97521325651E+03  0.47000000000E+01 0.  1.
         11    1    6    6    0    0 -0.94023731834E+00 -0.19897745171E+02  0.27666183708E+03  0.27737803879E+03  0.00000000000E+00 0. -1.
        -12    1    6    6    0    0 -0.42946356154E+02  0.27362941323E+02  0.14695305510E+03  0.15552594789E+03  0.00000000000E+00 0.  1.
</event>
<event>
12    1  0.8747122E-002  0.4754404E+03  0.7818608E-02  0.1020449E+00
         21   -1    0    0  501  502  0.00000000000E+00  0.00000000000E+00  0.24046260585E+03  0.24046260585E+03  0.00000000000E+00 0. -1.
         21   -1    0    0  502  503 -0.00000000000E+00 -0.00000000000E+00 -0.18280356631E+04  0.18280356631E+04  0.00000000000E+00 0.  1.
         -6    2    1    2    0  503 -0.40649492267E+03 -0.17680209745E+03 -0.15149134741E+04  0.15875377536E+04  0.16975329481E+03 0.  0.
        -24    2    3    3    0    0 -0.22695669367E+03 -0.16408854139E+03 -0.84901049143E+03  0.89772293599E+03  0.81567548916E+02 0.  0.
          6    2    1    2  501    0  0.40649492267E+03  0.17680209745E+03 -0.72659583121E+02  0.48096051539E+03  0.17189094951E+03 0.  0.
         24    2    5    5    0    0  0.17488593483E+03  0.12491107832E+03 -0.79377671517E+02  0.24346814956E+03  0.82389668199E+02 0.  0.
          5    1    5    5  501    0  0.23160898784E+03  0.51891019126E+02  0.67180883954E+01  0.23749236583E+03  0.47000000000E+01 0. -1.
        -11    1    6    6    0    0  0.16458484503E+03  0.10743929303E+03 -0.42065581331E+02  0.20099971650E+03  0.00000000000E+00 0.  1.
         12    1    6    6    0    0  0.10301089795E+02  0.17471785288E+02 -0.37312090185E+02  0.42468433055E+02  0.00000000000E+00 0. -1.
         -5    1    3    3    0  503 -0.17953822900E+03 -0.12713556053E+02 -0.66590298271E+03  0.68981481758E+03  0.47000000000E+01 0.  1.
         11    1    4    4    0    0 -0.12703525537E+03 -0.72053507122E+02 -0.32353171704E+03  0.35496821819E+03  0.00000000000E+00 0. -1.
        -12    1    4    4    0    0 -0.99921438308E+02 -0.92035034271E+02 -0.52547877438E+03  0.54275471780E+03  0.00000000000E+00 0.  1.
</event>
<event>
12    1  0.8747122E-002  0.2035412E+03  0.7818608E-02  0.1146919E+00
         21   -1    0    0  501  502  0.00000000000E+00  0.00000000000E+00  0.15853817083E+03  0.15853817083E+03  0.00000000000E+00 0.  1.
         21   -1    0    0  502  503 -0.00000000000E+00 -0.00000000000E+00 -0.28147988781E+03  0.28147988781E+03  0.00000000000E+00 0.  1.
         -6    2    1    2    0  503  0.95846428119E+02  0.49953124897E+02 -0.12164735155E+03  0.23712258024E+03  0.17247372974E+03 0.  0.
        -24    2    3    3    0    0  0.87909554348E+02  0.51667629879E+02 -0.17042938741E+02  0.13209826557E+03  0.82230507012E+02 0.  0.
          6    2    1    2  501    0 -0.95846428119E+02 -0.49953124897E+02 -0.12943654342E+01  0.20289547840E+03  0.17170628207E+03 0.  0.
         24    2    5    5    0    0 -0.12658873896E+03 -0.62257458450E+02  0.27000542743E+02  0.15908705308E+03  0.68402932593E+02 0.  0.
          5    1    5    5  501    0  0.30742310836E+02  0.12304333554E+02 -0.28294908177E+02  0.43808425314E+02  0.47000000000E+01 0. -1.
        -13    1    6    6    0    0 -0.72139304627E+02 -0.24697880222E+01  0.29994847200E+02  0.78165657315E+02  0.00000000000E+00 0.  1.
         14    1    6    6    0    0 -0.54449434328E+02 -0.59787670428E+02 -0.29943044571E+01  0.80921395768E+02  0.00000000000E+00 0. -1.
         -5    1    3    3    0  503  0.79368737703E+01 -0.17145049821E+01 -0.10460441281E+03  0.10502431467E+03  0.47000000000E+01 0.  1.
         13    1    4    4    0    0  0.59285643842E+01  0.23392016416E+02  0.25838878233E+02  0.35355083595E+02  0.00000000000E+00 0. -1.
        -14    1    4    4    0    0  0.81980989964E+02  0.28275613463E+02 -0.42881816975E+02  0.96743181978E+02  0.00000000000E+00 0.  1.
</event>
<event>
12    1  0.8747122E-002  0.1731674E+03  0.7818608E-02  0.1174956E+00
         21   -1    0    0  501  502  0.00000000000E+00  0.00000000000E+00  0.20182292679E+03  0.20182292679E+03  0.00000000000E+00 0. -1.
         21   -1    0    0  502  503 -0.00000000000E+00 -0.00000000000E+00 -0.26329200337E+03  0.26329200337E+03  0.00000000000E+00 0. -1.
         -6    2    1    2    0  503  0.49831927298E+01 -0.49587123200E+01 -0.18513798510E+03  0.25350153861E+03  0.17302466734E+03 0.  0.
        -24    2    3    3    0    0  0.57760691275E+02  0.35154066755E+02 -0.90395521025E+02  0.13777460182E+03  0.78983446492E+02 0.  0.
          6    2    1    2  501    0 -0.49831927298E+01  0.49587123200E+01  0.12366890853E+03  0.21161339155E+03  0.17157158130E+03 0.  0.
         24    2    5    5    0    0  0.38504299694E+02 -0.37936725839E+02  0.11318525523E+03  0.14945892591E+03  0.81272949193E+02 0.  0.
          5    1    5    5  501    0 -0.43487492424E+02  0.42895438159E+02  0.10483653294E+02  0.62154465637E+02  0.47000000000E+01 0. -1.
        -13    1    6    6    0    0  0.10976045086E+02 -0.59952465371E+02  0.59074424368E+02  0.84879675330E+02  0.00000000000E+00 0.  1.
         14    1    6    6    0    0  0.27528254609E+02  0.22015739532E+02  0.54110830867E+02  0.64579250584E+02  0.00000000000E+00 0. -1.
         -5    1    3    3    0  503 -0.52777498545E+02 -0.40112779075E+02 -0.94742464079E+02  0.11572693678E+03  0.47000000000E+01 0.  1.
         11    1    4    4    0    0  0.65434932363E+02  0.49142539706E+02 -0.90238777800E+02  0.12181853964E+03  0.00000000000E+00 0. -1.
        -12    1    4    4    0    0 -0.76742410885E+01 -0.13988472951E+02 -0.15674322485E+00  0.15956062178E+02  0.00000000000E+00 0.  1.
</event>
<event>
12    1  0.8747122E-002  0.1981164E+03  0.7818608E-02  0.1151378E+00
         21   -1    0    0  501  502  0.00000000000E+00  0.00000000000E+00  0.75576247369E+03  0.75576247369E+03  0.00000000000E+00 0.  1.
         21   -1    0    0  502  503 -0.00000000000E+00 -0.00000000000E+00 -0.81663699087E+02  0.81663699087E+02  0.00000000000E+00 0.  1.
         -6    2    1    2    0  503  0.13737752027E+02  0.97556342221E+02  0.84305972156E+02  0.21530818578E+03  0.17188412430E+03 0.  0.
        -24    2    3    3    0    0  0.40387216570E+02  0.12682339452E+03  0.51957699693E+02  0.16397345055E+03  0.80451160762E+02 0.  0.
          6    2    1    2  501    0 -0.13737752027E+02 -0.97556342221E+02  0.58979280245E+03  0.62211798699E+03  0.17166617076E+03 0.  0.
         24    2    5    5    0    0  0.20481567649E+02 -0.11937892713E+03  0.35086888959E+03  0.37972592197E+03  0.80074810511E+02 0.  0.
          5    1    5    5  501    0 -0.34219319677E+02  0.21822584905E+02  0.23892391286E+03  0.24239206502E+03  0.47000000000E+01 0. -1.
        -11    1    6    6    0    0  0.18119472414E+02 -0.96165188678E+02  0.34033594525E+03  0.35412513950E+03  0.00000000000E+00 0.  1.
         12    1    6    6    0    0  0.23620952351E+01 -0.23213738448E+02  0.10532944335E+02  0.25600782468E+02  0.00000000000E+00 0. -1.
         -5    1    3    3    0  503 -0.26649464542E+02 -0.29267052296E+02  0.32348272463E+02  0.51334735237E+02  0.47000000000E+01 0.  1.
         13    1    4    4    0    0 -0.65999942171E+01 -0.89595486457E+01 -0.16281081757E+00  0.11129238202E+02  0.00000000000E+00 0. -1.
        -14    1    4    4    0    0  0.46987210787E+02  0.13578294316E+03  0.52120510511E+02  0.15284421235E+03  0.00000000000E+00 0.  1.
</event>
<event>
12    1  0.8747122E-002  0.2563870E+03  0.7818608E-02  0.1109923E+00
         21   -1    0    0  503  502  0.00000000000E+00  0.00000000000E+00  0.68831302509E+02  0.68831302509E+02  0.00000000000E+00 0.  1.
         21   -1    0    0  501  503 -0.00000000000E+00 -0.00000000000E+00 -0.99169866048E+03  0.99169866048E+03  0.00000000000E+00 0. -1.
          6    2    1    2  501    0  0.37479392516E+02 -0.18483629012E+03 -0.57825317956E+03  0.63100321934E+03  0.16798560693E+03 0.  0.
         24    2    3    3    0    0  0.54525827502E+02 -0.37101069110E+02 -0.23374994387E+03  0.25574218236E+03  0.80096644040E+02 0.  0.
         -6    2    1    2    0  502 -0.37479392516E+02  0.18483629012E+03 -0.34461417841E+03  0.42952674365E+03  0.17368112316E+03 0.  0.
        -24    2    5    5    0    0 -0.27645593485E+02  0.14865517031E+03 -0.12359311053E+03  0.20529878045E+03  0.63322142918E+02 0.  0.
          5    1    3    3  501    0 -0.17046434986E+02 -0.14773522101E+03 -0.34450323569E+03  0.37526103698E+03  0.47000000000E+01 0. -1.
        -11    1    4    4    0    0  0.67453727836E+02 -0.31962850997E+02 -0.22928896081E+03  0.24113286129E+03  0.00000000000E+00 0.  1.
         12    1    4    4    0    0 -0.12927900334E+02 -0.51382181133E+01 -0.44609830595E+01  0.14609321076E+02  0.00000000000E+00 0. -1.
         -5    1    5    5    0  502 -0.98337990302E+01  0.36181119801E+02 -0.22102106788E+03  0.22422796320E+03  0.47000000000E+01 0.  1.
         13    1    6    6    0    0  0.14420238529E+02  0.22595010766E+02 -0.40497593405E+02  0.48564728583E+02  0.00000000000E+00 0. -1.
        -14    1    6    6    0    0 -0.42065832015E+02  0.12606015955E+03 -0.83095517122E+02  0.15673405187E+03  0.00000000000E+00 0.  1.
</event>
<event>
12    1  0.8747122E-002  0.1798164E+03  0.7818608E-02  0.1167992E+00
         21   -1    0    0  501  502  0.00000000000E+00  0.00000000000E+00  0.54095730640E+03  0.54095730640E+03  0.00000000000E+00 0.  1.
         21   -1    0    0  502  503 -0.00000000000E+00 -0.00000000000E+00 -0.14799873480E+03  0.14799873480E+03  0.00000000000E+00 0.  1.
         -6    2    1    2    0  503  0.34926736806E+02  0.39618924880E+02 -0.69524744565E+02  0.19274566390E+03  0.17183615653E+03 0.  0.
        -24    2    3    3    0    0 -0.37719618579E+02 -0.50041134000E+01 -0.12105082742E+02  0.89848549946E+02  0.80488621075E+02 0.  0.
          6    2    1    2  501    0 -0.34926736806E+02 -0.39618924880E+02  0.46248331617E+03  0.49621037730E+03  0.17188480052E+03 0.  0.
         24    2    5    5    0    0 -0.65951927751E+02 -0.57253595800E+02  0.43527070049E+03  0.45108654165E+03  0.79942819230E+02 0.  0.
          5    1    5    5  501    0  0.31025190945E+02  0.17634670920E+02  0.27212615684E+02  0.45123835652E+02  0.47000000000E+01 0. -1.
        -11    1    6    6    0    0 -0.56470602702E+02 -0.70646484694E+02  0.26462699838E+03  0.27965568659E+03  0.00000000000E+00 0.  1.
         12    1    6    6    0    0 -0.94813250487E+01  0.13392888894E+02  0.17064370211E+03  0.17143085506E+03  0.00000000000E+00 0. -1.
         -5    1    3    3    0  503  0.72646355385E+02  0.44623038280E+02 -0.57419661822E+02  0.10289711395E+03  0.47000000000E+01 0.  1.
         13    1    4    4    0    0  0.14922657649E+02 -0.28530204665E+01  0.22256298154E+02  0.26947509061E+02  0.00000000000E+00 0. -1.
        -14    1    4    4    0    0 -0.52642276228E+02 -0.21510929335E+01 -0.34361380896E+02  0.62901040885E+02  0.00000000000E+00 0.  1.
</event>
<event>
12    1  0.8747122E-002  0.1800895E+03  0.7818608E-02  0.1167899E+00
         21   -1    0    0  503  502  0.00000000000E+00  0.00000000000E+00  0.13289104150E+04  0.13289104150E+04  0.00000000000E+00 0. -1.
         21   -1    0    0  501  503 -0.00000000000E+00 -0.00000000000E+00 -0.25990915498E+02  0.25990915498E+02  0.00000000000E+00 0. -1.
          6    2    1    2  501    0 -0.39911035799E+02  0.32154741102E+02  0.47754234929E+03  0.51010570251E+03  0.17185550386E+03 0.  0.
         24    2    3    3    0    0 -0.46041073079E+02  0.36677283372E+02  0.13436007184E+03  0.16680671284E+03  0.79415659784E+02 0.  0.
         -6    2    1    2    0  502  0.39911035799E+02 -0.32154741102E+02  0.82537715016E+03  0.84479562794E+03  0.17264239002E+03 0.  0.
        -24    2    5    5    0    0  0.41614914569E+02  0.27201956832E+02  0.69413858177E+03  0.70067147096E+03  0.81488600105E+02 0.  0.
          5    1    3    3  501    0  0.61300372801E+01 -0.45225422700E+01  0.34318227746E+03  0.34329898967E+03  0.47000000000E+01 0. -1.
        -11    1    4    4    0    0 -0.32763566140E+01  0.49550889148E+02  0.95356580094E+02  0.10751233648E+03  0.00000000000E+00 0.  1.
         12    1    4    4    0    0 -0.42764716465E+02 -0.12873605775E+02  0.39003491743E+02  0.59294376362E+02  0.00000000000E+00 0. -1.
         -5    1    5    5    0  502 -0.17038787700E+01 -0.59356697934E+02  0.13123856839E+03  0.14412415698E+03  0.47000000000E+01 0.  1.
         13    1    6    6    0    0  0.57780028824E+02  0.16073847199E+02  0.29415373379E+03  0.30020546198E+03  0.00000000000E+00 0. -1.
        -14    1    6    6    0    0 -0.16165114255E+02  0.11128109633E+02  0.39998484798E+03  0.40046600899E+03  0.00000000000E+00 0.  1.
</event>
<event>
12    1  0.8747122E-002  0.2408628E+03  0.7818608E-02  0.1119304E+00
         21   -1    0    0  501  502  0.00000000000E+00  0.00000000000E+00  0.10824185165E+04  0.10824185165E+04  0.00000000000E+00 0.  1.
         21   -1    0    0  502  503 -0.00000000000E+00 -0.00000000000E+00 -0.54018078742E+02  0.54018078742E+02  0.00000000000E+00 0. -1.
         -6    2    1    2    0  503 -0.90574351259E+02 -0.14311081109E+03  0.45720156118E+03  0.51653092453E+03  0.17054767982E+03 0.  0.
        -24    2    3    3    0    0 -0.38041865768E+02 -0.15536408278E+03  0.29142306549E+03  0.34213366442E+03  0.80887943862E+02 0.  0.
          6    2    1    2  501    0  0.90574351259E+02  0.14311081109E+03  0.57119887661E+03  0.61990567075E+03  0.17126139852E+03 0.  0.
         24    2    5    5    0    0  0.11655027714E+03  0.15358068541E+03  0.45582625735E+03  0.50108943335E+03  0.78371227451E+02 0.  0.
          5    1    5    5  501    0 -0.25975925882E+02 -0.10469874316E+02  0.11537261927E+03  0.11881623740E+03  0.47000000000E+01 0. -1.
        -11    1    6    6    0    0  0.60743809733E+02  0.11997966563E+03  0.36755596112E+03  0.39138512381E+03  0.00000000000E+00 0.  1.
         12    1    6    6    0    0  0.55806467408E+02  0.33601019779E+02  0.88270296230E+02  0.10970430954E+03  0.00000000000E+00 0. -1.
         -5    1    3    3    0  503 -0.52532485491E+02  0.12253271691E+02  0.16577849569E+03  0.17439726010E+03  0.47000000000E+01 0.  1.
         13    1    4    4    0    0 -0.27558661142E+02 -0.95692125651E+02  0.24899293221E+03  0.26816775162E+03  0.00000000000E+00 0. -1.
        -14    1    4    4    0    0 -0.10483204625E+02 -0.59671957133E+02  0.42430133276E+02  0.73965912806E+02  0.00000000000E+00 0.  1.
</event>
<event>
12    1  0.8747122E-002  0.1772107E+03  0.7818608E-02  0.1170692E+00
         21   -1    0    0  501  502  0.00000000000E+00  0.00000000000E+00  0.26823634826E+04  0.26823634826E+04  0.00000000000E+00 0.  1.
         21   -1    0    0  502  503 -0.00000000000E+00 -0.00000000000E+00 -0.13797702450E+02  0.13797702450E+02  0.00000000000E+00 0.  1.
         -6    2    1    2    0  503  0.10891788268E+02 -0.29030008103E+02  0.80211046427E+03  0.82131210350E+03  0.17381312393E+03 0.  0.
        -24    2    3    3    0    0 -0.24766276667E+02  0.44220759022E+02  0.45866053688E+03  0.46830060921E+03  0.79794288695E+02 0.  0.
          6    2    1    2  501    0 -0.10891788268E+02  0.29030008103E+02  0.18664553159E+04  0.18748490815E+04  0.17447710443E+03 0.  0.
         24    2    5    5    0    0  0.31715676037E+02 -0.24349993521E+02  0.14164181287E+04  0.14196344284E+04  0.86734011287E+02 0.  0.
          5    1    5    5  501    0 -0.42607464305E+02  0.53380001624E+02  0.45003718718E+03  0.45521465314E+03  0.47000000000E+01 0. -1.
        -11    1    6    6    0    0 -0.25059336521E+02 -0.28986626254E+02  0.61812543566E+03  0.61931191580E+03  0.00000000000E+00 0.  1.
         12    1    6    6    0    0  0.56775012559E+02  0.46366327325E+01  0.79829269304E+03  0.80032251260E+03  0.00000000000E+00 0. -1.
         -5    1    3    3    0  503  0.35658064935E+02 -0.73250767125E+02  0.34344992739E+03  0.35301149429E+03  0.47000000000E+01 0.  1.
         11    1    4    4    0    0 -0.26013178851E-01 -0.93443041033E+01  0.27986967898E+03  0.28002563080E+03  0.00000000000E+00 0. -1.
        -12    1    4    4    0    0 -0.24740263488E+02  0.53565063125E+02  0.17879085790E+03  0.18827497841E+03  0.00000000000E+00 0.  1.
</event>
<event>
12    1  0.8747122E-002  0.1753425E+03  0.7818608E-02  0.1173013E+00
         21   -1    0    0  501  502  0.00000000000E+00  0.00000000000E+00  0.29007861588E+03  0.29007861588E+03  0.00000000000E+00 0.  1.
         21   -1    0    0  502  503 -0.00000000000E+00 -0.00000000000E+00 -0.19153380608E+03  0.19153380608E+03  0.00000000000E+00 0.  1.
         -6    2    1    2    0  503  0.26052379130E+02 -0.24284151077E+02 -0.11324499339E+03  0.20665806393E+03  0.16915874322E+03 0.  0.
        -24    2    3    3    0    0 -0.23205325268E+02 -0.14177827104E+02 -0.11156736875E+01  0.83680287224E+02  0.79130574622E+02 0.  0.
          6    2    1    2  501    0 -0.26052379130E+02  0.24284151077E+02  0.21178980319E+03  0.27495435803E+03  0.17168730824E+03 0.  0.
         24    2    5    5    0    0  0.49713265600E+02 -0.14253388822E+01  0.10729555176E+03  0.14326324452E+03  0.80861495378E+02 0.  0.
          5    1    5    5  501    0 -0.75765644729E+02  0.25709489959E+02  0.10449425143E+03  0.13169111351E+03  0.47000000000E+01 0. -1.
        -11    1    6    6    0    0  0.61624737430E+01  0.33874219739E+02  0.20911932203E+02  0.40283343382E+02  0.00000000000E+00 0.  1.
         12    1    6    6    0    0  0.43550791857E+02 -0.35299558621E+02  0.86383619555E+02  0.10297990113E+03  0.00000000000E+00 0. -1.
         -5    1    3    3    0  503  0.49257704398E+02 -0.10106323973E+02 -0.11212931970E+03  0.12297777671E+03  0.47000000000E+01 0.  1.
         11    1    4    4    0    0 -0.31460672888E+02 -0.16945027255E+01  0.33487756940E+02  0.45979072880E+02  0.00000000000E+00 0. -1.
        -12    1    4    4    0    0  0.82553476197E+01 -0.12483324379E+02 -0.34603430627E+02  0.37701214345E+02  0.00000000000E+00 0.  1.
</event>
<event>
12    1  0.8747122E-002  0.2149476E+03  0.7818608E-02  0.1138243E+00
         21   -1    0    0  503  502  0.00000000000E+00  0.00000000000E+00  0.46278547598E+03  0.46278547598E+03  0.00000000000E+00 0.  1.
         21   -1    0    0  501  503 -0.00000000000E+00 -0.00000000000E+00 -0.13107874610E+03  0.13107874610E+03  0.00000000000E+00 0. -1.
          6    2    1    2  501    0  0.12129744141E+03  0.41865869823E+02  0.17135510785E+02  0.21286881039E+03  0.16897835471E+03 0.  0.
         24    2    3    3    0    0  0.31633543102E+02  0.28266912490E+02  0.63765033183E+02  0.11078576254E+03  0.80048774712E+02 0.  0.
         -6    2    1    2    0  502 -0.12129744141E+03 -0.41865869823E+02  0.31457121910E+03  0.38099541169E+03  0.17244312538E+03 0.  0.
        -24    2    5    5    0    0 -0.91032924597E+01 -0.71019586602E+01  0.20216993187E+03  0.21835410098E+03  0.81685520812E+02 0.  0.
          5    1    3    3  501    0  0.89663898309E+02  0.13598957333E+02 -0.46629522398E+02  0.10208304786E+03  0.47000000000E+01 0. -1.
        -13    1    4    4    0    0 -0.11315962393E+02  0.39792328424E+01 -0.14157100513E+02  0.18555559648E+02  0.00000000000E+00 0.  1.
         14    1    4    4    0    0  0.42949505496E+02  0.24287679648E+02  0.77922133696E+02  0.92230202888E+02  0.00000000000E+00 0. -1.
         -5    1    5    5    0  502 -0.11219414895E+03 -0.34763911163E+02  0.11240128723E+03  0.16264131071E+03  0.47000000000E+01 0.  1.
         11    1    6    6    0    0  0.27114735574E+02  0.22054029760E+02  0.10431975963E+03  0.11001909545E+03  0.00000000000E+00 0. -1.
        -12    1    6    6    0    0 -0.36218028034E+02 -0.29155988420E+02  0.97850172239E+02  0.10833500553E+03  0.00000000000E+00 0.  1.
</event>
<event>
12    1  0.8747122E-002  0.1890892E+03  0.7818608E-02  0.1159347E+00
         21   -1    0    0  503  502  0.00000000000E+00  0.00000000000E+00  0.72869909063E+03  0.72869909063E+03  0.00000000000E+00 0.  1.
         21   -1    0    0  501  503 -0.00000000000E+00 -0.00000000000E+00 -0.17649203220E+03  0.17649203220E+03  0.00000000000E+00 0.  1.
          6    2    1    2  501    0 -0.40469169663E+02 -0.65823469883E+02 -0.10851818956E+03  0.21801591401E+03  0.17258116472E+03 0.  0.
         24    2    3    3    0    0 -0.10446609447E+02  0.28746628203E+02 -0.71672008535E+02  0.11206975490E+03  0.80543484364E+02 0.  0.
         -6    2    1    2    0  502  0.40469169663E+02  0.65823469883E+02  0.66072524799E+03  0.68717520882E+03  0.17228299802E+03 0.  0.
        -24    2    5    5    0    0  0.56340980909E+02  0.73431764535E+02  0.26899622735E+03  0.29502279438E+03  0.78185348398E+02 0.  0.
          5    1    3    3  501    0 -0.30022560215E+02 -0.94570098086E+02 -0.36846181026E+02  0.10594615911E+03  0.47000000000E+01 0. -1.
        -13    1    4    4    0    0 -0.32991595882E+02 -0.82291554567E+01 -0.56950854358E+02  0.66329210838E+02  0.00000000000E+00 0.  1.
         14    1    4    4    0    0  0.22544986435E+02  0.36975783660E+02 -0.14721154177E+02  0.45740544060E+02  0.00000000000E+00 0. -1.
         -5    1    5    5    0  502 -0.15871811246E+02 -0.76082946518E+01  0.39172902064E+03  0.39215241444E+03  0.47000000000E+01 0.  1.
         11    1    6    6    0    0 -0.16875728810E+02  0.15256804690E+02  0.92803199803E+02  0.95551003166E+02  0.00000000000E+00 0. -1.
        -12    1    6    6    0    0  0.73216709719E+02  0.58174959845E+02  0.17619302755E+03  0.19947179122E+03  0.00000000000E+00 0.  1.
</event>
<event>
12    1  0.8747122E-002  0.1909590E+03  0.7818608E-02  0.1157993E+00
         21   -1    0    0  503  502  0.00000000000E+00  0.00000000000E+00  0.24674551036E+02  0.24674551036E+02  0.00000000000E+00 0. -1.
         21   -1    0    0  501  503 -0.00000000000E+00 -0.00000000000E+00 -0.15291612623E+04  0.15291612623E+04  0.00000000000E+00 0.  1.
          6    2    1    2  501    0 -0.56767684843E+02 -0.60393172935E+02 -0.58896448918E+03  0.61861056483E+03  0.17008808312E+03 0.  0.
         24    2    3    3    0    0 -0.59481703251E+02 -0.48575572627E+02 -0.19521425139E+03  0.22464564084E+03  0.80370397062E+02 0.  0.
         -6    2    1    2    0  502  0.56767684843E+02  0.60393172935E+02 -0.91552222204E+03  0.93522524846E+03  0.17203319721E+03 0.  0.
        -24    2    5    5    0    0  0.85773039493E+02  0.17859625200E+02 -0.41030084520E+03  0.42736587532E+03  0.81356175527E+02 0.  0.
          5    1    3    3  501    0  0.27140184084E+01 -0.11817600308E+02 -0.39375023779E+03  0.39396492399E+03  0.47000000000E+01 0. -1.
        -11    1    4    4    0    0  0.64496164479E+01 -0.36047453115E+02 -0.11145427105E+03  0.11731611553E+03  0.00000000000E+00 0.  1.
         12    1    4    4    0    0 -0.65931319699E+02 -0.12528119513E+02 -0.83759980346E+02  0.10732952531E+03  0.00000000000E+00 0. -1.
         -5    1    5    5    0  502 -0.29005354650E+02  0.42533547735E+02 -0.50522137684E+03  0.50785937315E+03  0.47000000000E+01 0.  1.
         11    1    6    6    0    0  0.22996191494E+02  0.41330640215E+02 -0.11106768680E+03  0.12071900304E+03  0.00000000000E+00 0. -1.
        -12    1    6    6    0    0  0.62776847999E+02 -0.23471015015E+02 -0.29923315840E+03  0.30664687228E+03  0.00000000000E+00 0.  1.
</event>
<event>
12    1  0.8747122E-002  0.2655111E+03  0.7818608E-02  0.1104085E+00
         21   -1    0    0  501  502  0.00000000000E+00  0.00000000000E+00  0.55629657612E+03  0.55629657612E+03  0.00000000000E+00 0.  1.
         21   -1    0    0  502  503 -0.00000000000E+00 -0.00000000000E+00 -0.21480602414E+03  0.21480602414E+03  0.00000000000E+00 0.  1.
         -6    2    1    2    0  503 -0.15213609151E+03  0.13382168032E+03 -0.76823686050E+02  0.27640195858E+03  0.17158826156E+03 0.  0.
        -24    2    3    3    0    0 -0.79974228471E+02  0.35139066149E+02  0.20095648663E+02  0.12032172198E+03  0.80267368803E+02 0.  0.
          6    2    1    2  501    0  0.15213609151E+03 -0.13382168032E+03  0.41831423804E+03  0.49470064168E+03  0.16937618096E+03 0.  0.
         24    2    5    5    0    0  0.17100906481E+03 -0.14698388966E+03  0.36016277804E+03  0.43198608854E+03  0.77758536116E+02 0.  0.
          5    1    5    5  501    0 -0.18872973305E+02  0.13162209344E+02  0.58151459994E+02  0.62714553140E+02  0.47000000000E+01 0. -1.
        -11    1    6    6    0    0  0.10994588190E+03 -0.45288193591E+02  0.20003652710E+03  0.23270953912E+03  0.00000000000E+00 0.  1.
         12    1    6    6    0    0  0.61063182910E+02 -0.10169569607E+03  0.16012625095E+03  0.19927654942E+03  0.00000000000E+00 0. -1.
         -5    1    3    3    0  503 -0.72161863038E+02  0.98682614171E+02 -0.96919334713E+02  0.15608023660E+03  0.47000000000E+01 0.  1.
         11    1    4    4    0    0 -0.34954245873E+02 -0.24806580894E+02  0.62798652030E+00  0.42866771831E+02  0.00000000000E+00 0. -1.
        -12    1    4    4    0    0 -0.45019982598E+02  0.59945647043E+02  0.19467662142E+02  0.77454950144E+02  0.00000000000E+00 0.  1.
</event>
<event>
12    1  0.8747122E-002  0.1829629E+03  0.7818608E-02  0.1166101E+00
         21   -1    0    0  501  502  0.00000000000E+00  0.00000000000E+00  0.35708323118E+03  0.35708323118E+03  0.00000000000E+00 0.  1.
         21   -1    0    0  502  503 -0.00000000000E+00 -0.00000000000E+00 -0.13795399025E+03  0.13795399025E+03  0.00000000000E+00 0.  1.
         -6    2    1    2    0  503 -0.57351229741E+01 -0.45777090092E+02 -0.33356527255E+02  0.18597868750E+03  0.17705078560E+03 0.  0.
        -24    2    3    3    0    0 -0.20734243947E+02 -0.18566198346E+02 -0.88633197142E+02  0.12239404711E+03  0.79685924354E+02 0.  0.
          6    2    1    2  501    0  0.57351229741E+01  0.45777090092E+02  0.25248576819E+03  0.30905853394E+03  0.17216178626E+03 0.  0.
         24    2    5    5    0    0  0.53456155573E+02  0.96600600545E-01  0.79734055731E+02  0.12404705259E+03  0.78565779531E+02 0.  0.
          5    1    5    5  501    0 -0.47721032599E+02  0.45680489491E+02  0.17275171245E+03  0.18501148134E+03  0.47000000000E+01 0. -1.
        -13    1    6    6    0    0  0.85613875874E+01  0.32442814877E+02  0.52669105236E+02  0.62448925058E+02  0.00000000000E+00 0.  1.
         14    1    6    6    0    0  0.44894767986E+02 -0.32346214276E+02  0.27064950495E+02  0.61598127535E+02  0.00000000000E+00 0. -1.
         -5    1    3    3    0  503  0.14999120973E+02 -0.27210891745E+02  0.55276669886E+02  0.63584640388E+02  0.47000000000E+01 0.  1.
         11    1    4    4    0    0 -0.21003670297E+02 -0.39139041428E+02 -0.91412095908E+02  0.10163262276E+03  0.00000000000E+00 0. -1.
        -12    1    4    4    0    0  0.26942634974E+00  0.20572843081E+02  0.27788987667E+01  0.20761424358E+02  0.00000000000E+00 0.  1.
</event>
<event>
12    1  0.8747122E-002  0.2423038E+03  0.7818608E-02  0.1118537E+00
         21   -1    0    0  501  502  0.00000000000E+00  0.00000000000E+00  0.33873751784E+03  0.33873751784E+03  0.00000000000E+00 0. -1.
         21   -1    0    0  502  503 -0.00000000000E+00 -0.00000000000E+00 -0.17331652347E+03  0.17331652347E+03  0.00000000000E+00 0. -1.
         -6    2    1    2    0  503 -0.96499998625E+02 -0.13742335535E+03  0.10334812192E+03  0.26192569254E+03  0.17241463331E+03 0.  0.
        -24    2    3    3    0    0 -0.12329678519E+03 -0.13717491013E+03  0.11639410614E+03  0.23175257206E+03  0.78374826977E+02 0.  0.
          6    2    1    2  501    0  0.96499998625E+02  0.13742335535E+03  0.62072872457E+02  0.25012834877E+03  0.17468177075E+03 0.  0.
         24    2    5    5    0    0  0.41769424280E+02  0.14466472480E+03  0.57799878530E+01  0.17114194452E+03  0.81139321592E+02 0.  0.
          5    1    5    5  501    0  0.54730574345E+02 -0.72413694475E+01  0.56292884604E+02  0.78986404252E+02  0.47000000000E+01 0. -1.
        -11    1    6    6    0    0  0.10478337725E+02  0.32956493165E+01 -0.21183466349E+02  0.23862022388E+02  0.00000000000E+00 0.  1.
         12    1    6    6    0    0  0.31291086555E+02  0.14136907548E+03  0.26963454202E+02  0.14727992213E+03  0.00000000000E+00 0. -1.
         -5    1    3    3    0  503  0.26796786568E+02 -0.24844522427E+00 -0.13045984224E+02  0.30173120485E+02  0.47000000000E+01 0.  1.
         11    1    4    4    0    0 -0.26013266634E+02 -0.82025316402E+02  0.68986662354E+02  0.11029053520E+03  0.00000000000E+00 0. -1.
        -12    1    4    4    0    0 -0.97283518559E+02 -0.55149593724E+02  0.47407443787E+02  0.12146203686E+03  0.00000000000E+00 0.  1.
</event>
<event>
12    1  0.8747122E-002  0.1803433E+03  0.7818608E-02  0.1168114E+00
         21   -1    0    0  503  502  0.00000000000E+00  0.00000000000E+00  0.37188981215E+03  0.37188981215E+03  0.00000000000E+00 0.  1.
         21   -1    0    0  501  503 -0.00000000000E+00 -0.00000000000E+00 -0.98590441921E+02  0.98590441921E+02  0.00000000000E+00 0. -1.
          6    2    1    2  501    0 -0.52091465309E+01  0.72666718553E+02  0.54066329419E+02  0.18827340860E+03  0.16497309240E+03 0.  0.
         24    2    3    3    0    0  0.11105355983E+01  0.63996120952E+02 -0.28915042027E+02  0.10446937736E+03  0.77337147378E+02 0.  0.
         -6    2    1    2    0  502  0.52091465309E+01 -0.72666718553E+02  0.21923304081E+03  0.28220684547E+03  0.16208019698E+03 0.  0.
        -24    2    5    5    0    0  0.41110998875E+02 -0.66635663161E+02  0.80041664414E+02  0.13825669474E+03  0.81103759259E+02 0.  0.
          5    1    3    3  501    0 -0.63196821293E+01  0.86705976013E+01  0.82981371446E+02  0.83804031240E+02  0.47000000000E+01 0. -1.
        -13    1    4    4    0    0 -0.41175468805E+01 -0.17102257587E+02  0.15974201489E+01  0.17663328056E+02  0.00000000000E+00 0.  1.
         14    1    4    4    0    0  0.52280824789E+01  0.81098378538E+02 -0.30512462176E+02  0.86806049305E+02  0.00000000000E+00 0. -1.
         -5    1    5    5    0  502 -0.35901852344E+02 -0.60310553917E+01  0.13919137640E+03  0.14395015073E+03  0.47000000000E+01 0.  1.
         11    1    6    6    0    0  0.19166321237E+02 -0.34249202921E+01 -0.13176875354E+02  0.23509742510E+02  0.00000000000E+00 0. -1.
        -12    1    6    6    0    0  0.21944677638E+02 -0.63210742869E+02  0.93218539768E+02  0.11474695223E+03  0.00000000000E+00 0.  1.
</event>
<event>
12    1  0.8747122E-002  0.2011437E+03  0.7818608E-02  0.1148809E+00
         21   -1    0    0  501  502  0.00000000000E+00  0.00000000000E+00  0.89617949886E+02  0.89617949886E+02  0.00000000000E+00 0.  1.
         21   -1    0    0  502  503 -0.00000000000E+00 -0.00000000000E+00 -0.49299904882E+03  0.49299904882E+03  0.00000000000E+00 0.  1.
         -6    2    1    2    0  503  0.75101721131E+02 -0.71397248368E+02 -0.11671516888E+03  0.23242255167E+03  0.17222071968E+03 0.  0.
        -24    2    3    3    0    0 -0.17044435222E+02  0.33503811574E+01 -0.36130970533E+02  0.88916366179E+02  0.79365832176E+02 0.  0.
          6    2    1    2  501    0 -0.75101721131E+02  0.71397248368E+02 -0.28666593006E+03  0.35019444704E+03  0.17239767890E+03 0.  0.
         24    2    5    5    0    0 -0.46404745424E+02 -0.14077555773E+02 -0.21415300889E+03  0.23439430760E+03  0.82021961976E+02 0.  0.
          5    1    5    5  501    0 -0.28696975706E+02  0.85474804141E+02 -0.72512921172E+02  0.11580013944E+03  0.47000000000E+01 0. -1.
        -13    1    6    6    0    0 -0.70640357926E+01 -0.63289058504E+01  0.55992390257E+01  0.11013951544E+02  0.00000000000E+00 0.  1.
         14    1    6    6    0    0 -0.39340709632E+02 -0.77486499224E+01 -0.21975224791E+03  0.22338035606E+03  0.00000000000E+00 0. -1.
         -5    1    3    3    0  503  0.92146156352E+02 -0.74747629526E+02 -0.80584198347E+02  0.14350618549E+03  0.47000000000E+01 0.  1.
         13    1    4    4    0    0 -0.84637353839E+01 -0.36175435613E+02 -0.42083326722E+01  0.37389932099E+02  0.00000000000E+00 0. -1.
        -14    1    4    4    0    0 -0.85806998379E+01  0.39525816771E+02 -0.31922637860E+02  0.51526434081E+02  0.00000000000E+00 0.  1.
</event>
<event>
12    1  0.8747122E-002  0.1780235E+03  0.7818608E-02  0.1170022E+00
         21   -1    0    0  503  502  0.00000000000E+00  0.00000000000E+00  0.33386013714E+02  0.33386013714E+02  0.00000000000E+00 0. -1.
         21   -1    0    0  501  503 -0.00000000000E+00 -0.00000000000E+00 -0.21721817999E+04  0.21721817999E+04  0.00000000000E+00 0. -1.
          6    2    1    2  501    0  0.17706869002E+02  0.39835389401E+02 -0.19005228530E+04  0.19088424490E+04  0.17260356024E+03 0.  0.
         24    2    3    3    0    0  0.45420036917E+01  0.39115810863E+02 -0.47132152543E+03  0.47957258082E+03  0.79342318345E+02 0.  0.
         -6    2    1    2    0  502 -0.17706869002E+02 -0.39835389401E+02 -0.23827293322E+03  0.29672536461E+03  0.17138132874E+03 0.  0.
        -24    2    5    5    0    0  0.55917134249E+02 -0.16217317810E+02 -0.12768130929E+03  0.16170349808E+03  0.80347851542E+02 0.  0.
          5    1    3    3  501    0  0.13164865310E+02  0.71957853801E+00 -0.14292013275E+04  0.14292698682E+04  0.47000000000E+01 0. -1.
        -11    1    4    4    0    0 -0.33037796421E+02  0.95678559069E+01 -0.29085575721E+03  0.29288241901E+03  0.00000000000E+00 0.  1.
         12    1    4    4    0    0  0.37579800113E+02  0.29547954956E+02 -0.18046576822E+03  0.18669016181E+03  0.00000000000E+00 0. -1.
         -5    1    5    5    0  502 -0.73624003251E+02 -0.23618071591E+02 -0.11059162393E+03  0.13502186654E+03  0.47000000000E+01 0.  1.
         13    1    6    6    0    0 -0.19571464245E+02 -0.68823666535E+01 -0.43833302130E+02  0.48495026127E+02  0.00000000000E+00 0. -1.
        -14    1    6    6    0    0  0.75488598494E+02 -0.93349511567E+01 -0.83848007164E+02  0.11320847195E+03  0.00000000000E+00 0.  1.
</event>
<event>
12    1  0.8747122E-002  0.2318135E+03  0.7818608E-02  0.1126923E+00
         21   -1    0    0  501  502  0.00000000000E+00  0.00000000000E+00  0.10274718839E+04  0.10274718839E+04  0.00000000000E+00 0.  1.
         21   -1    0    0  502  503 -0.00000000000E+00 -0.00000000000E+00 -0.50591566348E+02  0.50591566348E+02  0.00000000000E+00 0.  1.
         -6    2    1    2    0  503  0.56587923864E+02 -0.13037343274E+03  0.44169572347E+03  0.49483102167E+03  0.17193953233E+03 0.  0.
        -24    2    3    3    0    0 -0.26342131885E+02 -0.82750741537E+02  0.17991183758E+03  0.21608703917E+03  0.82363499561E+02 0.  0.
          6    2    1    2  501    0 -0.56587923864E+02  0.13037343274E+03  0.53518459409E+03  0.58323242859E+03  0.18313407907E+03 0.  0.
         24    2    5    5    0    0 -0.82705111783E+02  0.15602920530E+03  0.42298161582E+03  0.46511416369E+03  0.78946117826E+02 0.  0.
          5    1    5    5  501    0  0.26117187919E+02 -0.25655772566E+02  0.11220297828E+03  0.11811826491E+03  0.47000000000E+01 0. -1.
        -13    1    6    6    0    0 -0.53840806621E+02  0.44203038738E+02  0.98119532075E+02  0.12033363481E+03  0.00000000000E+00 0.  1.
         14    1    6    6    0    0 -0.28864305162E+02  0.11182616657E+03  0.32486208374E+03  0.34478052888E+03  0.00000000000E+00 0. -1.
         -5    1    3    3    0  503  0.82930055748E+02 -0.47622691202E+02  0.26178388589E+03  0.27874398249E+03  0.47000000000E+01 0.  1.
         13    1    4    4    0    0 -0.56529727882E+01  0.95805544680E+01  0.70773077756E+02  0.71641968568E+02  0.00000000000E+00 0. -1.
        -14    1    4    4    0    0 -0.20689159097E+02 -0.92331296005E+02  0.10913875982E+03  0.14444507060E+03  0.00000000000E+00 0.  1.
</event>
<event>
12    1  0.8747122E-002  0.2281705E+03  0.7818608E-02  0.1128105E+00
         21   -1    0    0  503  502  0.00000000000E+00  0.00000000000E+00  0.13606359748E+04  0.13606359748E+04  0.00000000000E+00 0. -1.
         21   -1    0    0  501  503 -0.00000000000E+00 -0.00000000000E+00 -0.12052606349E+03  0.12052606349E+03  0.00000000000E+00 0.  1.
          6    2    1    2  501    0  0.14595636802E+03 -0.35491481765E+02  0.80352935926E+01  0.22831198801E+03  0.17175241273E+03 0.  0.
         24    2    3    3    0    0  0.90440195431E+02 -0.33229799041E+01  0.68540829362E+02  0.13999512784E+03  0.81916539133E+02 0.  0.
         -6    2    1    2    0  502 -0.14595636802E+03  0.35491481765E+02  0.12320746178E+04  0.12528500503E+04  0.17047720740E+03 0.  0.
        -24    2    5    5    0    0 -0.17528093885E+03  0.40117347367E+02  0.10599837460E+04  0.10781540652E+04  0.80733124494E+02 0.  0.
          5    1    3    3  501    0  0.55516172594E+02 -0.32168501861E+02 -0.60505535769E+02  0.88316860169E+02  0.47000000000E+01 0. -1.
        -13    1    4    4    0    0 -0.10093219364E+02 -0.13562172089E+02 -0.16051975162E+01  0.16981821103E+02  0.00000000000E+00 0.  1.
         14    1    4    4    0    0  0.10053341479E+03  0.10239192185E+02  0.70146026878E+02  0.12301330673E+03  0.00000000000E+00 0. -1.
         -5    1    5    5    0  502  0.29324570820E+02 -0.46258656019E+01  0.17209087174E+03  0.17469598514E+03  0.47000000000E+01 0.  1.
         11    1    6    6    0    0 -0.10409958590E+03 -0.41148502703E+01  0.74345584551E+03  0.75071982123E+03  0.00000000000E+00 0. -1.
        -12    1    6    6    0    0 -0.71181352946E+02  0.44232197637E+02  0.31652790051E+03  0.32743424396E+03  0.00000000000E+00 0.  1.
</event>
<event>
12    1  0.8747122E-002  0.2308621E+03  0.7818608E-02  0.1126106E+00
         21   -1    0    0  501  502  0.00000000000E+00  0.00000000000E+00  0.28356054717E+03  0.28356054717E+03  0.00000000000E+00 0. -1.
         21   -1    0    0  502  503 -0.00000000000E+00 -0.00000000000E+00 -0.20517415696E+03  0.20517415696E+03  0.00000000000E+00 0. -1.
         -6    2    1    2    0  503  0.64082887365E+02  0.13979764196E+03 -0.32305621836E+02  0.23270734421E+03  0.17163641134E+03 0.  0.
        -24    2    3    3    0    0  0.29221990578E+02 -0.12541086704E+01  0.35700107916E+01  0.82974149839E+02  0.77565888395E+02 0.  0.
          6    2    1    2  501    0 -0.64082887365E+02 -0.13979764196E+03  0.11069201205E+03  0.25602735992E+03  0.17218388527E+03 0.  0.
         24    2    5    5    0    0 -0.59267108876E+02 -0.12023991721E+03  0.12504860322E+02  0.15568542909E+03  0.78175145748E+02 0.  0.
          5    1    5    5  501    0 -0.48157784892E+01 -0.19557724745E+02  0.98187151727E+02  0.10034193084E+03  0.47000000000E+01 0. -1.
        -13    1    6    6    0    0  0.17407764355E+02 -0.77712731609E+01  0.16382147405E+01  0.19133914757E+02  0.00000000000E+00 0.  1.
         14    1    6    6    0    0 -0.76674873231E+02 -0.11246864405E+03  0.10866645582E+02  0.13655151433E+03  0.00000000000E+00 0. -1.
         -5    1    3    3    0  503  0.34860896787E+02  0.14105175063E+03 -0.35875632627E+02  0.14973319437E+03  0.47000000000E+01 0.  1.
         13    1    4    4    0    0  0.31958037433E+02  0.97870786612E+01  0.35691673504E+02  0.48897838632E+02  0.00000000000E+00 0. -1.
        -14    1    4    4    0    0 -0.27360468553E+01 -0.11041187332E+02 -0.32121662713E+02  0.34076311207E+02  0.00000000000E+00 0.  1.
</event>
<event>
12    1  0.8747122E-002  0.1829220E+03  0.7818608E-02  0.1165225E+00
         21   -1    0    0  503  502  0.00000000000E+00  0.00000000000E+00  0.18512111474E+03  0.18512111474E+03  0.00000000000E+00 0.  1.
         21   -1    0    0  501  503 -0.00000000000E+00 -0.00000000000E+00 -0.19286323172E+03  0.19286323172E+03  0.00000000000E+00 0.  1.
          6    2    1    2  501    0  0.59971491689E+02  0.83739000256E+00 -0.52987780670E+02  0.18954970265E+03  0.17182579503E+03 0.  0.
         24    2    3    3    0    0  0.95107350988E+02  0.29924753735E+02 -0.63415922633E+02  0.14252375787E+03  0.79690295623E+02 0.  0.
         -6    2    1    2    0  502 -0.59971491689E+02 -0.83739000256E+00  0.45245663688E+02  0.18843464381E+03  0.17280961741E+03 0.  0.
        -24    2    5    5    0    0 -0.53784619880E+02 -0.39643640349E+02  0.83909084040E+02  0.13310696067E+03  0.78818303953E+02 0.  0.
          5    1    3    3  501    0 -0.35135859299E+02 -0.29087363732E+02  0.10428141963E+02  0.47025944779E+02  0.47000000000E+01 0. -1.
        -13    1    4    4    0    0  0.51987402941E+02  0.50276547829E+02 -0.61282861740E+02  0.94794569830E+02  0.00000000000E+00 0.  1.
         14    1    4    4    0    0  0.43119948047E+02 -0.20351794094E+02 -0.21330608930E+01  0.47729188042E+02  0.00000000000E+00 0. -1.
         -5    1    5    5    0  502 -0.61868718092E+01  0.38806250347E+02 -0.38663420352E+02  0.55327683144E+02  0.47000000000E+01 0.  1.
         11    1    6    6    0    0 -0.18766903374E+02 -0.43870247712E+02  0.85375348809E+02  0.97804629137E+02  0.00000000000E+00 0. -1.
        -12    1    6    6    0    0 -0.35017716506E+02  0.42266073623E+01 -0.14662647687E+01  0.35302331530E+02  0.00000000000E+00 0.  1.
</event>
<event>
12    1  0.8747122E-002  0.1753460E+03  0.7818608E-02  0.1172667E+00
         21   -1    0    0  501  502  0.00000000000E+00  0.00000000000E+00  0.43556371499E+02  0.43556371499E+02  0.00000000000E+00 0.  1.
         21   -1    0    0  502  503 -0.00000000000E+00 -0.00000000000E+00 -0.84129653696E+03  0.84129653696E+03  0.00000000000E+00 0.  1.
         -6    2    1    2    0  503 -0.13623566394E+01  0.23947114790E+02 -0.58036391236E+03  0.60627426048E+03  0.17369769091E+03 0.  0.
        -24    2    3    3    0    0  0.64948733190E+02  0.11988719096E+02 -0.29805106411E+03  0.31599370972E+03  0.81581373105E+02 0.  0.
          6    2    1    2  501    0  0.13623566394E+01 -0.23947114790E+02 -0.21737625310E+03  0.27857864798E+03  0.17256392258E+03 0.  0.
         24    2    5    5    0    0  0.45648633113E+02 -0.76061842104E+01 -0.21043514029E+03  0.23063525069E+03  0.82267969782E+02 0.  0.
          5    1    5    5  501    0 -0.44286276474E+02 -0.16340930579E+02 -0.69411128150E+01  0.47943397285E+02  0.47000000000E+01 0. -1.
        -13    1    6    6    0    0  0.24389452028E+02  0.33922945700E+02 -0.59866043387E+02  0.73003799668E+02  0.00000000000E+00 0.  1.
         14    1    6    6    0    0  0.21259181085E+02 -0.41529129910E+02 -0.15056909690E+03  0.15763145103E+03  0.00000000000E+00 0. -1.
         -5    1    3    3    0  503 -0.66311089830E+02  0.11958395693E+02 -0.28231284824E+03  0.29028055075E+03  0.47000000000E+01 0.  1.
         11    1    4    4    0    0  0.40337243275E+02  0.13310187250E+02 -0.28491659706E+03  0.28806548138E+03  0.00000000000E+00 0. -1.
        -12    1    4    4    0    0  0.24611489915E+02 -0.13214681534E+01 -0.13134467052E+02  0.27928228348E+02  0.00000000000E+00 0.  1.
</event>
<event>
12    1  0.8747122E-002  0.2011295E+03  0.7818608E-02  0.1149420E+00
         21   -1    0    0  501  502  0.00000000000E+00  0.00000000000E+00  0.28278073272E+03  0.28278073272E+03  0.00000000000E+00 0. -1.
         21   -1    0    0  502  503 -0.00000000000E+00 -0.00000000000E+00 -0.17571764447E+03  0.17571764447E+03  0.00000000000E+00 0. -1.
         -6    2    1    2    0  503 -0.97461761319E+02 -0.10055419766E+02 -0.48778354654E+02  0.20405851337E+03  0.17222265418E+03 0.  0.
        -24    2    3    3    0    0 -0.10958894234E+03 -0.54956661542E+02 -0.55137799294E+02  0.15688094912E+03  0.80879443334E+02 0.  0.
          6    2    1    2  501    0  0.97461761319E+02  0.10055419766E+02  0.15584144290E+03  0.25443986381E+03  0.17565074035E+03 0.  0.
         24    2    5    5    0    0  0.89327804075E+02  0.44004144723E+02  0.40507629244E+02  0.13384692969E+03  0.79739019475E+02 0.  0.
          5    1    5    5  501    0  0.81339572432E+01 -0.33948724957E+02  0.11533381366E+03  0.12059293412E+03  0.47000000000E+01 0. -1.
        -11    1    6    6    0    0  0.93646751627E+02  0.59398514232E+02  0.39870596150E+02  0.11784550064E+03  0.00000000000E+00 0.  1.
         12    1    6    6    0    0 -0.43189475519E+01 -0.15394369509E+02  0.63703309373E+00  0.16001429052E+02  0.00000000000E+00 0. -1.
         -5    1    3    3    0  503  0.12127181026E+02  0.44901241777E+02  0.63594446402E+01  0.47177564253E+02  0.47000000000E+01 0.  1.
         13    1    4    4    0    0 -0.90363230818E+02 -0.52949319285E+01 -0.18907892873E+02  0.92471931963E+02  0.00000000000E+00 0. -1.
        -14    1    4    4    0    0 -0.19225711526E+02 -0.49661729614E+02 -0.36229906421E+02  0.64409017158E+02  0.00000000000E+00 0.  1.
</event>
<event>
12    1  0.8747122E-002  0.2214636E+03  0.7818608E-02  0.1133286E+00
         21   -1    0    0  501  502  0.00000000000E+00  0.00000000000E+00  0.27678195960E+04  0.27678195960E+04  0.00000000000E+00 0. -1.
         21   -1    0    0  502  503 -0.00000000000E+00 -0.00000000000E+00 -0.37750793484E+02  0.37750793484E+02  0.00000000000E+00 0. -1.
         -6    2    1    2    0  503 -0.48672330089E+02 -0.13027828146E+03  0.33409912222E+03  0.39938734947E+03  0.16895740622E+03 0.  0.
        -24    2    3    3    0    0 -0.63131520031E+02 -0.87746514943E+02  0.32699364922E+03  0.35366430186E+03  0.80427309253E+02 0.  0.
          6    2    1    2  501    0  0.48672330089E+02  0.13027828146E+03  0.23959696803E+04  0.24061830400E+04  0.17235047665E+03 0.  0.
         24    2    5    5    0    0  0.28429622740E+01  0.22587858797E+02  0.53052765652E+03  0.53706731535E+03  0.80395354901E+02 0.  0.
          5    1    5    5  501    0  0.45829367815E+02  0.10769042266E+03  0.18654420238E+04  0.18691157247E+04  0.47000000000E+01 0. -1.
        -11    1    6    6    0    0 -0.34240340030E+02  0.32073606368E+00  0.13891179217E+03  0.14306987720E+03  0.00000000000E+00 0.  1.
         12    1    6    6    0    0  0.37083302304E+02  0.22267122733E+02  0.39161586435E+03  0.39399743816E+03  0.00000000000E+00 0. -1.
         -5    1    3    3    0  503  0.14459189942E+02 -0.42531766513E+02  0.71054729979E+01  0.45723047613E+02  0.47000000000E+01 0.  1.
         11    1    4    4    0    0 -0.22561997222E+02 -0.85046484143E+02  0.26753823301E+03  0.28163567655E+03  0.00000000000E+00 0. -1.
        -12    1    4    4    0    0 -0.40569522809E+02 -0.27000307999E+01  0.59455416209E+02  0.72028625309E+02  0.00000000000E+00 0.  1.
</event>
<event>
12    1  0.8747122E-002  0.1787659E+03  0.7818608E-02  0.1169199E+00
         21   -1    0    0  501  502  0.00000000000E+00  0.00000000000E+00  0.28645556715E+02  0.28645556715E+02  0.00000000000E+00 0.  1.
         21   -1    0    0  502  503 -0.00000000000E+00 -0.00000000000E+00 -0.11118435286E+04  0.11118435286E+04  0.00000000000E+00 0.  1.
         -6    2    1    2    0  503  0.35513392645E+02  0.31391658575E+02 -0.52375003941E+03  0.55341788704E+03  0.17236767860E+03 0.  0.
        -24    2    3    3    0    0  0.47044013797E+02 -0.43482617673E+02 -0.29513918502E+03  0.31253591342E+03  0.80421896089E+02 0.  0.
          6    2    1    2  501    0 -0.35513392645E+02 -0.31391658575E+02 -0.55944793247E+03  0.58707119827E+03  0.17153415232E+03 0.  0.
         24    2    5    5    0    0 -0.64161136099E+02  0.15907406207E+02 -0.47316231696E+03  0.48447883901E+03  0.80420583839E+02 0.  0.
          5    1    5    5  501    0  0.28647743454E+02 -0.47299064781E+02 -0.86285615509E+02  0.10259235926E+03  0.47000000000E+01 0. -1.
        -13    1    6    6    0    0 -0.30329216781E+02 -0.18085340726E+02 -0.35788754375E+03  0.35962540916E+03  0.00000000000E+00 0.  1.
         14    1    6    6    0    0 -0.33831919318E+02  0.33992746932E+02 -0.11527477320E+03  0.12485342985E+03  0.00000000000E+00 0. -1.
         -5    1    3    3    0  503 -0.11530621152E+02  0.74874276247E+02 -0.22861085439E+03  0.24088197362E+03  0.47000000000E+01 0.  1.
         11    1    4    4    0    0  0.52195586016E+02 -0.36512486318E+02 -0.29692995010E+03  0.30368558761E+03  0.00000000000E+00 0. -1.
        -12    1    4    4    0    0 -0.51515722194E+01 -0.69701313546E+01  0.17907650775E+01  0.88503258129E+01  0.00000000000E+00 0.  1.
</event>
<event>
12    1  0.8747122E-002  0.2850111E+03  0.7818608E-02  0.1093252E+00
         21   -1    0    0  503  502  0.00000000000E+00  0.00000000000E+00  0.26958005865E+03  0.26958005865E+03  0.00000000000E+00 0. -1.
         21   -1    0    0  501  503 -0.00000000000E+00 -0.00000000000E+00 -0.39977483088E+03  0.39977483088E+03  0.00000000000E+00 0.  1.
          6    2    1    2  501    0  0.55247579315E+02 -0.21896230680E+03 -0.23312942767E+03  0.36821275247E+03  0.17388074711E+03 0.  0.
         24    2    3    3    0    0 -0.36753890508E+02 -0.94520730227E+02 -0.11660849802E+03  0.17443660978E+03  0.80904710063E+02 0.  0.
         -6    2    1    2    0  502 -0.55247579315E+02  0.21896230680E+03  0.10293465544E+03  0.30114213706E+03  0.17057038607E+03 0.  0.
        -24    2    5    5    0    0 -0.90495066917E+02  0.98418398455E+02  0.73574942501E+02  0.17207896662E+03  0.79513271207E+02 0.  0.
          5    1    3    3  501    0  0.92001469824E+02 -0.12444157657E+03 -0.11652092965E+03  0.19377614269E+03  0.47000000000E+01 0. -1.
        -13    1    4    4    0    0  0.45281109923E+01 -0.24695108569E+02 -0.82859660039E+02  0.86579878945E+02  0.00000000000E+00 0.  1.
         14    1    4    4    0    0 -0.41282001501E+02 -0.69825621658E+02 -0.33748837985E+02  0.87856730836E+02  0.00000000000E+00 0. -1.
         -5    1    5    5    0  502  0.35247487602E+02  0.12054390834E+03  0.29359712940E+02  0.12906317044E+03  0.47000000000E+01 0.  1.
         13    1    6    6    0    0 -0.53598809822E+02  0.10512768683E+03  0.53904029471E+02  0.12973167441E+03  0.00000000000E+00 0. -1.
        -14    1    6    6    0    0 -0.36896257095E+02 -0.67092883719E+01  0.19670913030E+02  0.42347292210E+02  0.00000000000E+00 0.  1.
</event>
<event>
12    1  0.8747122E-002  0.1819866E+03  0.7818608E-02  0.1166043E+00
         21   -1    0    0  503  502  0.00000000000E+00  0.00000000000E+00  0.36575734658E+03  0.36575734658E+03  0.00000000000E+00 0.  1.
         21   -1    0    0  501  503 -0.00000000000E+00 -0.00000000000E+00 -0.18649523329E+03  0.18649523329E+03  0.00000000000E+00 0.  1.
          6    2    1    2  501    0 -0.15033159549E+02 -0.57171441329E+02 -0.10881800686E+03  0.21150448740E+03  0.17145909128E+03 0.  0.
         24    2    3    3    0    0  0.48706261545E+02 -0.37206177555E+02 -0.10456605268E+03  0.14441130836E+03  0.78510935844E+02 0.  0.
         -6    2    1    2    0  502  0.15033159549E+02  0.57171441329E+02  0.28808012015E+03  0.34074809248E+03  0.17211780068E+03 0.  0.
        -24    2    5    5    0    0  0.14076917301E+02 -0.31410447919E+02  0.10321034154E+03  0.13569543937E+03  0.81093167567E+02 0.  0.
          5    1    3    3  501    0 -0.63739421094E+02 -0.19965263775E+02 -0.42519541838E+01  0.67093179037E+02  0.47000000000E+01 0. -1.
        -13    1    4    4    0    0  0.58395199862E+02 -0.28193354747E+02 -0.11186383774E+03  0.12929958551E+03  0.00000000000E+00 0.  1.
         14    1    4    4    0    0 -0.96889383173E+01 -0.90128228077E+01  0.72977850612E+01  0.15111722850E+02  0.00000000000E+00 0. -1.
         -5    1    5    5    0  502  0.95624224866E+00  0.88581889248E+02  0.18486977861E+03  0.20505265311E+03  0.47000000000E+01 0.  1.
         11    1    6    6    0    0  0.88310948239E+01  0.25557654851E+02  0.16074219374E+02  0.31457312120E+02  0.00000000000E+00 0. -1.
        -12    1    6    6    0    0  0.52458224767E+01 -0.56968102770E+02  0.87136122165E+02  0.10423812725E+03  0.00000000000E+00 0.  1.
</event>
<event>
12    1  0.8747122E-002  0.1802679E+03  0.7818608E-02  0.1167836E+00
         21   -1    0    0  501  502  0.00000000000E+00  0.00000000000E+00  0.67883705522E+02  0.67883705522E+02  0.00000000000E+00 0. -1.
         21   -1    0    0  502  503 -0.00000000000E+00 -0.00000000000E+00 -0.50407439534E+03  0.50407439534E+03  0.00000000000E+00 0. -1.
         -6    2    1    2    0  503  0.49779570149E+02 -0.32044784064E+00 -0.28685541514E+03  0.33879574511E+03  0.17325824488E+03 0.  0.
        -24    2    3    3    0    0  0.92769994316E+02 -0.16545362789E+02 -0.14933914968E+03  0.19372942337E+03  0.79679903232E+02 0.  0.
          6    2    1    2  501    0 -0.49779570149E+02  0.32044784064E+00 -0.14933527467E+03  0.23316235575E+03  0.17200451036E+03 0.  0.
         24    2    5    5    0    0 -0.21257411854E+02  0.51601766387E+02 -0.32020164194E+02  0.10190607098E+03  0.79024910843E+02 0.  0.
          5    1    5    5  501    0 -0.28522158295E+02 -0.51281318546E+02 -0.11731511048E+03  0.13125628477E+03  0.47000000000E+01 0. -1.
        -13    1    6    6    0    0  0.13006253593E+01  0.61097870073E+02 -0.43359890922E+02  0.74931445299E+02  0.00000000000E+00 0.  1.
         14    1    6    6    0    0 -0.22558037214E+02 -0.94961036861E+01  0.11339726728E+02  0.26974625677E+02  0.00000000000E+00 0. -1.
         -5    1    3    3    0  503 -0.42990424167E+02  0.16224914948E+02 -0.13751626546E+03  0.14506632174E+03  0.47000000000E+01 0.  1.
         13    1    4    4    0    0  0.81360055678E+02  0.10273622686E+02 -0.65452551956E+02  0.10492398458E+03  0.00000000000E+00 0. -1.
        -14    1    4    4    0    0  0.11409938638E+02 -0.26818985475E+02 -0.83886597722E+02  0.88805438792E+02  0.00000000000E+00 0.  1.
</event>
<event>
12    1  0.8747122E-002  0.1890581E+03  0.7818608E-02  0.1160021E+00
         21   -1    0    0  501  502  0.00000000000E+00  0.00000000000E+00  0.17463852919E+02  0.17463852919E+02  0.00000000000E+00 0. -1.
         21   -1    0    0  502  503 -0.00000000000E+00 -0.00000000000E+00 -0.20211089562E+04  0.20211089562E+04  0.00000000000E+00 0. -1.
         -6    2    1    2    0  503  0.62924742821E+02 -0.38020287968E+02 -0.94694050437E+03  0.96562896597E+03  0.17417782733E+03 0.  0.
        -24    2    3    3    0    0 -0.32318639004E+02 -0.61999314761E+02 -0.48527768479E+03  0.49361101664E+03  0.57175125079E+02 0.  0.
          6    2    1    2  501    0 -0.62924742821E+02  0.38020287968E+02 -0.10567045989E+04  0.10729438431E+04  0.17081807765E+03 0.  0.
         24    2    5    5    0    0 -0.30808377570E+02  0.70264157453E+02 -0.40581396435E+03  0.42044722540E+03  0.78769840211E+02 0.  0.
          5    1    5    5  501    0 -0.32116365251E+02 -0.32243869485E+02 -0.65089063453E+03  0.65249661773E+03  0.47000000000E+01 0. -1.
        -11    1    6    6    0    0 -0.29664349770E+02 -0.10807384920E+01 -0.55493801727E+02  0.62934121692E+02  0.00000000000E+00 0.  1.
         12    1    6    6    0    0 -0.11440278002E+01  0.71344895945E+02 -0.35032016263E+03  0.35751310370E+03  0.00000000000E+00 0. -1.
         -5    1    3    3    0  503  0.95243381825E+02  0.23979026792E+02 -0.46166281958E+03  0.47201794933E+03  0.47000000000E+01 0.  1.
         11    1    4    4    0    0 -0.22684527258E+02  0.44552953429E+01 -0.11716647841E+03  0.11942537877E+03  0.00000000000E+00 0. -1.
        -12    1    4    4    0    0 -0.96341117458E+01 -0.66454610103E+02 -0.36811120639E+03  0.37418563786E+03  0.00000000000E+00 0.  1.
</event>
<event>
12    1  0.8747122E-002  0.2054803E+03  0.7818608E-02  0.1145414E+00
         21   -1    0    0  501  502  0.00000000000E+00  0.00000000000E+00  0.22381528988E+03  0.22381528988E+03  0.00000000000E+00 0.  1.
         21   -1    0    0  502  503 -0.00000000000E+00 -0.00000000000E+00 -0.19071024072E+03  0.19071024072E+03  0.00000000000E+00 0. -1.
         -6    2    1    2    0  503  0.59777253855E+02 -0.94201756883E+02 -0.96648965369E+01  0.20464125575E+03  0.17128147083E+03 0.  0.
        -24    2    3    3    0    0  0.12758453371E+02 -0.21903246776E+02 -0.60370803938E+02  0.10448626981E+03  0.81426139903E+02 0.  0.
          6    2    1    2  501    0 -0.59777253855E+02  0.94201756883E+02  0.42769945702E+02  0.20988427485E+03  0.17255390316E+03 0.  0.
         24    2    5    5    0    0 -0.10523601369E+03  0.80301980714E+02  0.21856085714E+02  0.15773849686E+03  0.82950094794E+02 0.  0.
          5    1    5    5  501    0  0.45458759830E+02  0.13899776169E+02  0.20913859988E+02  0.52145777992E+02  0.47000000000E+01 0. -1.
        -13    1    6    6    0    0 -0.74583483534E+02  0.79901917137E+01  0.25191530716E+02  0.79127444035E+02  0.00000000000E+00 0.  1.
         14    1    6    6    0    0 -0.30652530151E+02  0.72311789000E+02 -0.33354450020E+01  0.78611052826E+02  0.00000000000E+00 0. -1.
         -5    1    3    3    0  503  0.47018800484E+02 -0.72298510107E+02  0.50705907401E+02  0.10015498594E+03  0.47000000000E+01 0.  1.
         13    1    4    4    0    0 -0.22778198159E+02 -0.38137517314E+02 -0.21416144781E+02  0.49314985507E+02  0.00000000000E+00 0. -1.
        -14    1    4    4    0    0  0.35536651530E+02  0.16234270538E+02 -0.38954659157E+02  0.55171284306E+02  0.00000000000E+00 0.  1.
</event>
<event>
12    1  0.8747122E-002  0.1902331E+03  0.7818608E-02  0.1158397E+00
         21   -1    0    0  501  502  0.00000000000E+00  0.00000000000E+00  0.48769626724E+03  0.48769626724E+03  0.00000000000E+00 0. -1.
         21   -1    0    0  502  503 -0.00000000000E+00 -0.00000000000E+00 -0.84591419441E+02  0.84591419441E+02  0.00000000000E+00 0. -1.
         -6    2    1    2    0  503 -0.11656400859E+02 -0.81213808238E+02  0.30273702522E+03  0.35720089837E+03  0.17091290479E+03 0.  0.
        -24    2    3    3    0    0 -0.16057798067E+02 -0.89353682414E+02  0.10785493895E+03  0.16204263592E+03  0.79894896969E+02 0.  0.
          6    2    1    2  501    0  0.11656400859E+02  0.81213808238E+02  0.10036782258E+03  0.21508678831E+03  0.17163062771E+03 0.  0.
         24    2    5    5    0    0 -0.33840144472E+02  0.91381308708E+02  0.30018066939E+02  0.13056169251E+03  0.81544909396E+02 0.  0.
          5    1    5    5  501    0  0.45496545332E+02 -0.10167500470E+02  0.70349755636E+02  0.84525095806E+02  0.47000000000E+01 0. -1.
        -11    1    6    6    0    0 -0.72315484817E+00 -0.14875189651E+02  0.86778553245E+01  0.17236571386E+02  0.00000000000E+00 0.  1.
         12    1    6    6    0    0 -0.33116989624E+02  0.10625649836E+03  0.21340211614E+02  0.11332512112E+03  0.00000000000E+00 0. -1.
         -5    1    3    3    0  503  0.44013972081E+01  0.81398741757E+01  0.19488208628E+03  0.19515826245E+03  0.47000000000E+01 0.  1.
         11    1    4    4    0    0  0.47477957889E+01 -0.82442411461E+02  0.11257652164E+03  0.13961649615E+03  0.00000000000E+00 0. -1.
        -12    1    4    4    0    0 -0.20805593856E+02 -0.69112709534E+01 -0.47215826956E+01  0.22426139772E+02  0.00000000000E+00 0.  1.
</event>
<event>
12    1  0.8747122E-002  0.2716850E+03  0.7818608E-02  0.1100539E+00
         21   -1    0    0  503  502  0.00000000000E+00  0.00000000000E+00  0.11482325976E+03  0.11482325976E+03  0.00000000000E+00 0. -1.
         21   -1    0    0  501  503 -0.00000000000E+00 -0.00000000000E+00 -0.68192819484E+03  0.68192819484E+03  0.00000000000E+00 0.  1.
          6    2    1    2  501    0 -0.11322695945E+03  0.17649156804E+03 -0.38403583489E+03  0.47042136038E+03  0.17275160171E+03 0.  0.
         24    2    3    3    0    0 -0.13496482238E+03  0.18585352246E+03 -0.36905170011E+03  0.44201722036E+03  0.80143812313E+02 0.  0.
         -6    2    1    2    0  502  0.11322695945E+03 -0.17649156804E+03 -0.18306910019E+03  0.32633009422E+03  0.17031563937E+03 0.  0.
        -24    2    5    5    0    0  0.12843714627E+03 -0.79913492259E+02 -0.10403432320E+03  0.20052365370E+03  0.80649417243E+02 0.  0.
          5    1    3    3  501    0  0.21737862927E+02 -0.93619544252E+01 -0.14984134779E+02  0.28404140022E+02  0.47000000000E+01 0. -1.
        -11    1    4    4    0    0 -0.14327072837E+02  0.39794505316E+02 -0.13176309534E+03  0.13838490150E+03  0.00000000000E+00 0.  1.
         12    1    4    4    0    0 -0.12063774954E+03  0.14605901715E+03 -0.23728860476E+03  0.30363231886E+03  0.00000000000E+00 0. -1.
         -5    1    5    5    0  502 -0.15210186813E+02 -0.96578075778E+02 -0.79034776985E+02  0.12580644052E+03  0.47000000000E+01 0.  1.
         13    1    6    6    0    0 -0.11605777383E+02 -0.58452247992E+01 -0.74221029366E+01  0.14964903395E+02  0.00000000000E+00 0. -1.
        -14    1    6    6    0    0  0.14004292365E+03 -0.74068267460E+02 -0.96612220264E+02  0.18555875030E+03  0.00000000000E+00 0.  1.
</event>
<event>
12    1  0.8747122E-002  0.2269225E+03  0.7818608E-02  0.1128988E+00
         21   -1    0    0  503  502  0.00000000000E+00  0.00000000000E+00  0.34603599520E+03  0.34603599520E+03  0.00000000000E+00 0. -1.
         21   -1    0    0  501  503 -0.00000000000E+00 -0.00000000000E+00 -0.25981537569E+03  0.25981537569E+03  0.00000000000E+00 0. -1.
          6    2    1    2  501    0 -0.16181473868E+02  0.14706999771E+03 -0.15537537763E+03  0.27501875375E+03  0.17205342954E+03 0.  0.
         24    2    3    3    0    0 -0.55333158257E+02  0.27038209571E+02 -0.82153460130E+02  0.12899127771E+03  0.78081595368E+02 0.  0.
         -6    2    1    2    0  502  0.16181473868E+02 -0.14706999771E+03  0.24159599714E+03  0.33083261715E+03  0.17085131083E+03 0.  0.
        -24    2    5    5    0    0  0.24465703627E+01 -0.17593816308E+03  0.21774955900E+03  0.29067341948E+03  0.78204497384E+02 0.  0.
          5    1    3    3  501    0  0.39151684388E+02  0.12003178814E+03 -0.73221917499E+02  0.14602747603E+03  0.47000000000E+01 0. -1.
        -11    1    4    4    0    0 -0.89841528979E+01  0.16201670501E+02 -0.79159299170E+02  0.81298239682E+02  0.00000000000E+00 0.  1.
         12    1    4    4    0    0 -0.46349005359E+02  0.10836539070E+02 -0.29941609601E+01  0.47693038031E+02  0.00000000000E+00 0. -1.
         -5    1    5    5    0  502  0.13734903506E+02  0.28868165366E+02  0.23846438138E+02  0.40159197674E+02  0.47000000000E+01 0.  1.
         11    1    6    6    0    0  0.34033933922E+02 -0.74734661944E+02  0.64969863822E+02  0.10471227989E+03  0.00000000000E+00 0. -1.
        -12    1    6    6    0    0 -0.31587363559E+02 -0.10120350113E+03  0.15277969518E+03  0.18596113959E+03  0.00000000000E+00 0.  1.
</event>
<event>
12    1  0.8747122E-002  0.1733147E+03  0.7818608E-02  0.1174756E+00
         21   -1    0    0  501  502  0.00000000000E+00  0.00000000000E+00  0.11360108763E+04  0.11360108763E+04  0.00000000000E+00 0.  1.
         21   -1    0    0  502  503 -0.00000000000E+00 -0.00000000000E+00 -0.97468031069E+02  0.97468031069E+02  0.00000000000E+00 0.  1.
         -6    2    1    2    0  503  0.37986938567E+01  0.13678539779E+01 -0.74062005919E+01  0.17347292085E+03  0.17326771586E+03 0.  0.
        -24    2    3    3    0    0 -0.44184493465E+02 -0.50012724794E+02  0.31376400127E+02  0.93045747213E+02  0.56740554151E+02 0.  0.
          6    2    1    2  501    0 -0.37986938567E+01 -0.13678539779E+01  0.10459490458E+04  0.10600059865E+04  0.17200867392E+03 0.  0.
         24    2    5    5    0    0  0.95969241772E+01  0.39838689522E+02  0.31757044645E+03  0.33032462056E+03  0.81142740598E+02 0.  0.
          5    1    5    5  501    0 -0.13395618034E+02 -0.41206543500E+02  0.72837859933E+03  0.72968136592E+03  0.47000000000E+01 0. -1.
        -11    1    6    6    0    0  0.10744087405E+02  0.14582697335E+02  0.29748307470E+03  0.29803400847E+03  0.00000000000E+00 0.  1.
         12    1    6    6    0    0 -0.11471632277E+01  0.25255992187E+02  0.20087371752E+02  0.32290612083E+02  0.00000000000E+00 0. -1.
         -5    1    3    3    0  503  0.47983187322E+02  0.51380578772E+02 -0.38782600719E+02  0.80427173636E+02  0.47000000000E+01 0.  1.
         11    1    4    4    0    0 -0.43676109162E+02 -0.59827444557E+02  0.17622108754E+02  0.76141081886E+02  0.00000000000E+00 0. -1.
        -12    1    4    4    0    0 -0.50838430269E+00  0.98147197636E+01  0.13754291373E+02  0.16904665327E+02  0.00000000000E+00 0.  1.
</event>
<event>
12    1  0.8747122E-002  0.2094318E+03  0.7818608E-02  0.1143277E+00
         21   -1    0    0  501  502  0.00000000000E+00  0.00000000000E+00  0.92929449472E+03  0.92929449472E+03  0.00000000000E+00 0.  1.
         21   -1    0    0  502  503 -0.00000000000E+00 -0.00000000000E+00 -0.45985057517E+02  0.45985057517E+02  0.00000000000E+00 0.  1.
         -6    2    1    2    0  503  0.94068728705E+02 -0.73651617111E+02  0.40431044175E+03  0.45249687215E+03  0.16435631894E+03 0.  0.
        -24    2    3    3    0    0  0.60583432864E+02  0.10730154543E+02  0.28384629671E+03  0.30158216557E+03  0.81225574019E+02 0.  0.
          6    2    1    2  501    0 -0.94068728705E+02  0.73651617111E+02  0.47899899545E+03  0.52278268008E+03  0.17201222784E+03 0.  0.
         24    2    5    5    0    0 -0.83377508588E+02  0.86312728175E+02  0.25439241954E+03  0.29751659328E+03  0.96948048839E+02 0.  0.
          5    1    5    5  501    0 -0.10691220117E+02 -0.12661111064E+02  0.22460657591E+03  0.22526608680E+03  0.47000000000E+01 0. -1.
        -11    1    6    6    0    0 -0.35449456309E+02  0.71574068245E+02  0.22642909687E+03  0.24010340920E+03  0.00000000000E+00 0.  1.
         12    1    6    6    0    0 -0.47928052278E+02  0.14738659931E+02  0.27963322667E+02  0.57413184081E+02  0.00000000000E+00 0. -1.
         -5    1    3    3    0  503  0.33485295840E+02 -0.84381771654E+02  0.12046414503E+03  0.15091470659E+03  0.47000000000E+01 0.  1.
         13    1    4    4    0    0  0.21489960320E+02 -0.52547655377E+01  0.23883829807E+03  0.23986071705E+03  0.00000000000E+00 0. -1.
        -14    1    4    4    0    0  0.39093472545E+02  0.15984920081E+02  0.45007998639E+02  0.61721448518E+02  0.00000000000E+00 0.  1.
</event>
<event>
12    1  0.8747122E-002  0.2066102E+03  0.7818608E-02  0.1144477E+00
         21   -1    0    0  503  502  0.00000000000E+00  0.00000000000E+00  0.30364261202E+03  0.30364261202E+03  0.00000000000E+00 0.  1.
         21   -1    0    0  501  503 -0.00000000000E+00 -0.00000000000E+00 -0.14886405417E+03  0.14886405417E+03  0.00000000000E+00 0.  1.
          6    2    1    2  501    0 -0.10553228984E+03  0.47243233823E+02  0.13267538953E+03  0.24471756504E+03  0.17004393641E+03 0.  0.
         24    2    3    3    0    0 -0.21283716052E+02 -0.25972869786E+02  0.89677234053E+02  0.12501229620E+03  0.80364677313E+02 0.  0.
         -6    2    1    2    0  502  0.10553228984E+03 -0.47243233823E+02  0.22103168313E+02  0.20778910115E+03  0.17122725591E+03 0.  0.
        -24    2    5    5    0    0  0.11831956170E+03  0.67089823684E+01  0.42013576259E+02  0.14868859102E+03  0.79363892191E+02 0.  0.
          5    1    3    3  501    0 -0.84248573791E+02  0.73216103609E+02  0.42998155477E+02  0.11970526884E+03  0.47000000000E+01 0. -1.
        -11    1    4    4    0    0 -0.50701389193E+02 -0.25099040271E+02  0.68018976665E+02  0.88471316680E+02  0.00000000000E+00 0.  1.
         12    1    4    4    0    0  0.29417673141E+02 -0.87382951448E+00  0.21658257389E+02  0.36540979519E+02  0.00000000000E+00 0. -1.
         -5    1    5    5    0  502 -0.12787271856E+02 -0.53952216192E+02 -0.19910407946E+02  0.59100510134E+02  0.47000000000E+01 0.  1.
         11    1    6    6    0    0  0.92970274501E+02  0.52910027863E+01  0.65701186943E+02  0.11396540096E+03  0.00000000000E+00 0. -1.
        -12    1    6    6    0    0  0.25349287197E+02  0.14179795821E+01 -0.23687610684E+02  0.34723190052E+02  0.00000000000E+00 0.  1.
</event>
<event>
12    1  0.8747122E-002  0.2490649E+03  0.7818608E-02  0.1113979E+00
         21   -1    0    0  503  502  0.00000000000E+00  0.00000000000E+00  0.52604733832E+03  0.52604733832E+03  0.00000000000E+00 0.  1.
         21   -1    0    0  501  503 -0.00000000000E+00 -0.00000000000E+00 -0.13699315535E+03  0.13699315535E+03  0.00000000000E+00 0.  1.
          6    2    1    2  501    0 -0.12447788570E+03  0.12895208103E+03  0.69880179081E+02  0.25818823771E+03  0.17220494601E+03 0.  0.
         24    2    3    3    0    0 -0.13425261743E+03  0.13409695240E+03  0.98257034422E+02  0.22737669765E+03  0.77717178859E+02 0.  0.
         -6    2    1    2    0  502  0.12447788570E+03 -0.12895208103E+03  0.31917400389E+03  0.40485225597E+03  0.17294485009E+03 0.  0.
        -24    2    5    5    0    0  0.13129264676E+02 -0.11157637426E+02  0.64103889908E+02  0.10259921728E+03  0.78233114608E+02 0.  0.
          5    1    3    3  501    0  0.97747317289E+01 -0.51448713693E+01 -0.28376855341E+02  0.30811540060E+02  0.47000000000E+01 0. -1.
        -11    1    4    4    0    0 -0.50224431474E+02  0.87953200302E+01  0.81156511767E+01  0.51630562318E+02  0.00000000000E+00 0.  1.
         12    1    4    4    0    0 -0.84028185957E+02  0.12530163237E+03  0.90141383246E+02  0.17574613533E+03  0.00000000000E+00 0. -1.
         -5    1    5    5    0  502  0.11134862103E+03 -0.11779444360E+03  0.25507011398E+03  0.30225303869E+03  0.47000000000E+01 0.  1.
         11    1    6    6    0    0  0.34593734847E+02 -0.17173929246E+01  0.31583854185E+00  0.34637778264E+02  0.00000000000E+00 0. -1.
        -12    1    6    6    0    0 -0.21464470171E+02 -0.94402445014E+01  0.63788051366E+02  0.67961439015E+02  0.00000000000E+00 0.  1.
</event>
<event>
12    1  0.8747122E-002  0.2944997E+03  0.7818608E-02  0.1088621E+00
         21   -1    0    0  503  502  0.00000000000E+00  0.00000000000E+00  0.72048303428E+03  0.72048303428E+03  0.00000000000E+00 0. -1.
         21   -1    0    0  501  503 -0.00000000000E+00 -0.00000000000E+00 -0.12997460185E+03  0.12997460185E+03  0.00000000000E+00 0.  1.
          6    2    1    2  501    0  0.16200152020E+03  0.16832493293E+03  0.16672149873E+03  0.33439033125E+03  0.17158980128E+03 0.  0.
         24    2    3    3    0    0  0.43366232347E+02  0.99629186716E+01  0.38054588976E+02  0.98318048363E+02  0.78983523822E+02 0.  0.
         -6    2    1    2    0  502 -0.16200152020E+03 -0.16832493293E+03  0.42378693370E+03  0.51606730488E+03  0.17931068680E+03 0.  0.
        -24    2    5    5    0    0 -0.12480147060E+02 -0.32777285111E+02  0.16284075977E+03  0.18615094951E+03  0.83096079754E+02 0.  0.
          5    1    3    3  501    0  0.11863528785E+03  0.15836201426E+03  0.12866690975E+03  0.23607228289E+03  0.47000000000E+01 0. -1.
        -13    1    4    4    0    0  0.24605442425E+02 -0.34466001227E+02  0.19847730947E+02  0.46768209943E+02  0.00000000000E+00 0.  1.
         14    1    4    4    0    0  0.18760789922E+02  0.44428919898E+02  0.18206858029E+02  0.51549838420E+02  0.00000000000E+00 0. -1.
         -5    1    5    5    0  502 -0.14952137314E+03 -0.13554764782E+03  0.26094617393E+03  0.32991635537E+03  0.47000000000E+01 0.  1.
         13    1    6    6    0    0  0.36703927880E+01 -0.50357610570E+02  0.50907716227E+02  0.71700462320E+02  0.00000000000E+00 0. -1.
        -14    1    6    6    0    0 -0.16150539848E+02  0.17580325459E+02  0.11193304355E+03  0.11445048719E+03  0.00000000000E+00 0.  1.
</event>
<event>
12    1  0.8747122E-002  0.2074905E+03  0.7818608E-02  0.1144088E+00
         21   -1    0    0  503  502  0.00000000000E+00  0.00000000000E+00  0.24497034612E+03  0.24497034612E+03  0.00000000000E+00 0. -1.
         21   -1    0    0  501  503 -0.00000000000E+00 -0.00000000000E+00 -0.20523105658E+03  0.20523105658E+03  0.00000000000E+00 0.  1.
          6    2    1    2  501    0  0.10141160182E+03 -0.53945166757E+02 -0.68425683024E+02  0.21848200553E+03  0.17279444043E+03 0.  0.
         24    2    3    3    0    0  0.13173009094E+03 -0.59323633160E+02 -0.82194297915E+02  0.18442611853E+03  0.79906071583E+02 0.  0.
         -6    2    1    2    0  502 -0.10141160182E+03  0.53945166757E+02  0.10816497256E+03  0.23171939716E+03  0.16970510815E+03 0.  0.
        -24    2    5    5    0    0 -0.81236334436E+02  0.68023488563E+01  0.23734110943E+01  0.11406128579E+03  0.79741644412E+02 0.  0.
          5    1    3    3  501    0 -0.30318489121E+02  0.53784664026E+01  0.13768614890E+02  0.34055887001E+02  0.47000000000E+01 0. -1.
        -13    1    4    4    0    0  0.10114691425E+03 -0.22305344154E+02 -0.88190039108E+02  0.13603569252E+03  0.00000000000E+00 0.  1.
         14    1    4    4    0    0  0.30583176689E+02 -0.37018289006E+02  0.59957411935E+01  0.48390426014E+02  0.00000000000E+00 0. -1.
         -5    1    5    5    0  502 -0.20175267385E+02  0.47142817901E+02  0.10579156147E+03  0.11765811137E+03  0.47000000000E+01 0.  1.
         11    1    6    6    0    0 -0.44686440701E+02  0.37085048066E+02 -0.20224202361E+02  0.61491439516E+02  0.00000000000E+00 0. -1.
        -12    1    6    6    0    0 -0.36549893736E+02 -0.30282699210E+02  0.22597613455E+02  0.52569846275E+02  0.00000000000E+00 0.  1.
</event>
<event>
12    1  0.8747122E-002  0.1720130E+03  0.7818608E-02  0.1175798E+00
         21   -1    0    0  501  502  0.00000000000E+00  0.00000000000E+00  0.17993032439E+03  0.17993032439E+03  0.00000000000E+00 0. -1.
         21   -1    0    0  502  503 -0.00000000000E+00 -0.00000000000E+00 -0.41737630223E+03  0.41737630223E+03  0.00000000000E+00 0. -1.
         -6    2    1    2    0  503  0.13002398711E+02 -0.44760165855E+01 -0.35125320010E+03  0.39105301697E+03  0.17133170871E+03 0.  0.
        -24    2    3    3    0    0  0.53181238948E+02 -0.32482325589E+02 -0.13348958951E+03  0.16780030671E+03  0.80337580067E+02 0.  0.
          6    2    1    2  501    0 -0.13002398711E+02  0.44760165855E+01  0.11380722227E+03  0.20625360965E+03  0.17146244649E+03 0.  0.
         24    2    5    5    0    0 -0.98698185098E+01  0.67506945233E+02  0.57581908747E+02  0.12160086660E+03  0.82562058904E+02 0.  0.
          5    1    5    5  501    0 -0.31325802009E+01 -0.63030928647E+02  0.56225313520E+02  0.84652743046E+02  0.47000000000E+01 0. -1.
        -13    1    6    6    0    0 -0.20336639151E+02  0.25847593911E+02 -0.15865138081E+02  0.36515470821E+02  0.00000000000E+00 0.  1.
         14    1    6    6    0    0  0.10466820642E+02  0.41659351321E+02  0.73447046828E+02  0.85085395778E+02  0.00000000000E+00 0. -1.
         -5    1    3    3    0  503 -0.40178840237E+02  0.28006309004E+02 -0.21776361058E+03  0.22325271027E+03  0.47000000000E+01 0.  1.
         11    1    4    4    0    0  0.26881420507E+02 -0.24475090211E+02 -0.53513790776E+01  0.36746129963E+02  0.00000000000E+00 0. -1.
        -12    1    4    4    0    0  0.26299818441E+02 -0.80072353788E+01 -0.12813821044E+03  0.13105417674E+03  0.00000000000E+00 0.  1.
</event>
<event>
12    1  0.8747122E-002  0.1961850E+03  0.7818608E-02  0.1153487E+00
         21   -1    0    0  501  502  0.00000000000E+00  0.00000000000E+00  0.63345899782E+03  0.63345899782E+03  0.00000000000E+00 0.  1.
         21   -1    0    0  502  503 -0.00000000000E+00 -0.00000000000E+00 -0.89390239068E+02  0.89390239068E+02  0.00000000000E+00 0.  1.
         -6    2    1    2    0  503  0.56143123566E+01 -0.91358005502E+02  0.63977846100E+02  0.20422041582E+03  0.17098247797E+03 0.  0.
        -24    2    3    3    0    0 -0.11166551086E+01 -0.10561501082E+03  0.98914146499E+02  0.16560431543E+03  0.80529519317E+02 0.  0.
          6    2    1    2  501    0 -0.56143123566E+01  0.91358005502E+02  0.48009091265E+03  0.51862882107E+03  0.17352453418E+03 0.  0.
         24    2    5    5    0    0 -0.59582216485E+02  0.26133053282E+02  0.33687272457E+03  0.35219454435E+03  0.79528532743E+02 0.  0.
          5    1    5    5  501    0  0.53967904129E+02  0.65224952221E+02  0.14321818808E+03  0.16643427671E+03  0.47000000000E+01 0. -1.
        -13    1    6    6    0    0 -0.18032134073E+02  0.50890097770E+02  0.19300523860E+03  0.20041452551E+03  0.00000000000E+00 0.  1.
         14    1    6    6    0    0 -0.41550082412E+02 -0.24757044489E+02  0.14386748597E+03  0.15178001884E+03  0.00000000000E+00 0. -1.
         -5    1    3    3    0  503  0.67309674652E+01  0.14257005317E+02 -0.34936300399E+02  0.38616100389E+02  0.47000000000E+01 0.  1.
         11    1    4    4    0    0  0.19829866003E+02 -0.11463630274E+02  0.55089934435E+02  0.59661874600E+02  0.00000000000E+00 0. -1.
        -12    1    4    4    0    0 -0.20946521112E+02 -0.94151380546E+02  0.43824212064E+02  0.10594244083E+03  0.00000000000E+00 0.  1.
</event>
<event>
12    1  0.8747122E-002  0.2068884E+03  0.7818608E-02  0.1144092E+00
         21   -1    0    0  503  502  0.00000000000E+00  0.00000000000E+00  0.57331650873E+03  0.57331650873E+03  0.00000000000E+00 0. -1.
         21   -1    0    0  501  503 -0.00000000000E+00 -0.00000000000E+00 -0.74598016179E+02  0.74598016179E+02  0.00000000000E+00 0. -1.
          6    2    1    2  501    0 -0.89833107922E+02  0.71244737782E+02  0.25288424165E+03  0.32673114263E+03  0.17221207840E+03 0.  0.
         24    2    3    3    0    0 -0.91711099714E+02  0.10881849090E+03  0.23250130037E+03  0.28368618855E+03  0.78540493572E+02 0.  0.
         -6    2    1    2    0  502  0.89833107922E+02 -0.71244737782E+02  0.24583425090E+03  0.32118338228E+03  0.17198397075E+03 0.  0.
        -24    2    5    5    0    0 -0.91883588075E+01 -0.68884675452E+02  0.92526756621E+02  0.13860162369E+03  0.76286859609E+02 0.  0.
          5    1    3    3  501    0  0.18779917916E+01 -0.37573753114E+02  0.20382941282E+02  0.43044954077E+02  0.47000000000E+01 0. -1.
        -11    1    4    4    0    0 -0.61409799984E+02  0.23379158370E+02  0.60801088581E+02  0.89523856892E+02  0.00000000000E+00 0.  1.
         12    1    4    4    0    0 -0.30301299730E+02  0.85439332526E+02  0.17170021179E+03  0.19416233166E+03  0.00000000000E+00 0. -1.
         -5    1    5    5    0  502  0.99021466730E+02 -0.23600623298E+01  0.15330749427E+03  0.18258175859E+03  0.47000000000E+01 0.  1.
         13    1    6    6    0    0  0.28795569526E+02 -0.51249854673E+02  0.68706939057E+02  0.90423315041E+02  0.00000000000E+00 0. -1.
        -14    1    6    6    0    0 -0.37983928334E+02 -0.17634820779E+02  0.23819817564E+02  0.48178308650E+02  0.00000000000E+00 0.  1.
</event>
<event>
12    1  0.8747122E-002  0.2534549E+03  0.7818608E-02  0.1111266E+00
         21   -1    0    0  501  502  0.00000000000E+00  0.00000000000E+00  0.16444279515E+04  0.16444279515E+04  0.00000000000E+00 0.  1.
         21   -1    0    0  502  503 -0.00000000000E+00 -0.00000000000E+00 -0.45319666167E+02  0.45319666167E+02  0.00000000000E+00 0.  1.
         -6    2    1    2    0  503 -0.17141746428E+03 -0.69448179674E+02  0.48367919280E+03  0.54606311355E+03  0.17329848734E+03 0.  0.
        -24    2    3    3    0    0 -0.11804365707E+03  0.58347172167E+01  0.19412409142E+03  0.24212146686E+03  0.83488280273E+02 0.  0.
          6    2    1    2  501    0  0.17141746428E+03  0.69448179674E+02  0.11154290925E+04  0.11436845041E+04  0.17211969024E+03 0.  0.
         24    2    5    5    0    0  0.10586129653E+03  0.11073965211E+03  0.82707570965E+03  0.84506708961E+03  0.81328173461E+02 0.  0.
          5    1    5    5  501    0  0.65556167744E+02 -0.41291472435E+02  0.28835338285E+03  0.29861741447E+03  0.47000000000E+01 0. -1.
        -13    1    6    6    0    0  0.77572632742E+01  0.20007226832E+01  0.23537455755E+03  0.23551084979E+03  0.00000000000E+00 0.  1.
         14    1    6    6    0    0  0.98104033259E+02  0.10873892943E+03  0.59170115210E+03  0.60955623982E+03  0.00000000000E+00 0. -1.
         -5    1    3    3    0  503 -0.53373807203E+02 -0.75282896891E+02  0.28955510138E+03  0.30394164669E+03  0.47000000000E+01 0.  1.
         13    1    4    4    0    0 -0.12315902144E+03 -0.97276144530E+01  0.18730137896E+03  0.22437597377E+03  0.00000000000E+00 0. -1.
        -14    1    4    4    0    0  0.51153643647E+01  0.15562331670E+02  0.68227124581E+01  0.17745493086E+02  0.00000000000E+00 0.  1.
</event>
<event>
12    1  0.8747122E-002  0.2021806E+03  0.7818608E-02  0.1148845E+00
         21   -1    0    0  503  502  0.00000000000E+00  0.00000000000E+00  0.28014555412E+03  0.28014555412E+03  0.00000000000E+00 0.  1.
         21   -1    0    0  501  503 -0.00000000000E+00 -0.00000000000E+00 -0.18459136148E+03  0.18459136148E+03  0.00000000000E+00 0. -1.
          6    2    1    2  501    0 -0.32110162254E+02 -0.94675002140E+02 -0.63280352450E+02  0.20762721878E+03  0.17061723366E+03 0.  0.
         24    2    3    3    0    0 -0.33451993271E+02 -0.12922571436E+03 -0.66508874548E+02  0.17258345214E+03  0.86852152847E+02 0.  0.
         -6    2    1    2    0  502  0.32110162254E+02  0.94675002140E+02  0.15883454510E+03  0.25710969682E+03  0.17573435899E+03 0.  0.
        -24    2    5    5    0    0  0.77423834840E+01 -0.17741588815E+02  0.96572504575E+02  0.12622833736E+03  0.78947045771E+02 0.  0.
          5    1    3    3  501    0  0.13418310169E+01  0.34550712220E+02  0.32285220975E+01  0.35043766640E+02  0.47000000000E+01 0. -1.
        -13    1    4    4    0    0  0.90441971159E+00 -0.11041396224E+03 -0.20751517891E+02  0.11235072998E+03  0.00000000000E+00 0.  1.
         14    1    4    4    0    0 -0.34356412982E+02 -0.18811752121E+02 -0.45757356656E+02  0.60232722162E+02  0.00000000000E+00 0. -1.
         -5    1    5    5    0  502  0.24367778770E+02  0.11241659095E+03  0.62262040524E+02  0.13088135946E+03  0.47000000000E+01 0.  1.
         11    1    6    6    0    0  0.42694579017E+02 -0.59653062293E+01  0.40744404100E+02  0.59317100581E+02  0.00000000000E+00 0. -1.
        -12    1    6    6    0    0 -0.34952195533E+02 -0.11776282585E+02  0.55828100475E+02  0.66911236775E+02  0.00000000000E+00 0.  1.
</event>
<event>
12    1  0.8747122E-002  0.3456064E+03  0.7818608E-02  0.1065172E+00
         21   -1    0    0  501  502  0.00000000000E+00  0.00000000000E+00  0.39671218952E+03  0.39671218952E+03  0.00000000000E+00 0.  1.
         21   -1    0    0  502  503 -0.00000000000E+00 -0.00000000000E+00 -0.30370908690E+03  0.30370908690E+03  0.00000000000E+00 0. -1.
         -6    2    1    2    0  503  0.28603262402E+03 -0.58722637895E+02 -0.12306894200E+02  0.34582548001E+03  0.18488048241E+03 0.  0.
        -24    2    3    3    0    0  0.24379634479E+03 -0.40617303112E+02 -0.73502037776E+02  0.26915317714E+03  0.77165148610E+02 0.  0.
          6    2    1    2  501    0 -0.28603262402E+03  0.58722637895E+02  0.10530999682E+03  0.35459579640E+03  0.17142045732E+03 0.  0.
         24    2    5    5    0    0 -0.66030972278E+02  0.35829674074E+02  0.71153264479E+02  0.13073515465E+03  0.79906437603E+02 0.  0.
          5    1    5    5  501    0 -0.22000165174E+03  0.22892963821E+02  0.34156732344E+02  0.22386064176E+03  0.47000000000E+01 0. -1.
        -13    1    6    6    0    0 -0.51706894061E+02 -0.14856040857E+02  0.51622010215E+02  0.74559618977E+02  0.00000000000E+00 0.  1.
         14    1    6    6    0    0 -0.14324078218E+02  0.50685714930E+02  0.19531254264E+02  0.56175535671E+02  0.00000000000E+00 0. -1.
         -5    1    3    3    0  503  0.42236279231E+02 -0.18105334783E+02  0.61195143577E+02  0.76672302876E+02  0.47000000000E+01 0.  1.
         13    1    4    4    0    0  0.15692405000E+03 -0.25637592996E+02 -0.84923281558E+02  0.18026205201E+03  0.00000000000E+00 0. -1.
        -14    1    4    4    0    0  0.86872294791E+02 -0.14979710116E+02  0.11421243782E+02  0.88891125130E+02  0.00000000000E+00 0.  1.
</event>
<event>
12    1  0.8747122E-002  0.2403175E+03  0.7818608E-02  0.1119939E+00
         21   -1    0    0  501  502  0.00000000000E+00  0.00000000000E+00  0.12302782455E+03  0.12302782455E+03  0.00000000000E+00 0. -1.
         21   -1    0    0  502  503 -0.00000000000E+00 -0.00000000000E+00 -0.10596334256E+04  0.10596334256E+04  0.00000000000E+00 0. -1.
         -6    2    1    2    0  503 -0.13761391444E+03 -0.90752396834E+02 -0.91209550977E+03  0.94322358953E+03  0.17486833308E+03 0.  0.
        -24    2    3    3    0    0 -0.23325086618E+02 -0.80595706799E+02 -0.32004980020E+03  0.34014373848E+03  0.78906023839E+02 0.  0.
          6    2    1    2  501    0  0.13761391444E+03  0.90752396834E+02 -0.24510091296E+02  0.23943766063E+03  0.17191876505E+03 0.  0.
         24    2    5    5    0    0  0.82375773388E+02  0.42878648615E+02  0.52276984344E+02  0.13331747885E+03  0.80101938351E+02 0.  0.
          5    1    5    5  501    0  0.55238141049E+02  0.47873748219E+02 -0.76787075640E+02  0.10612018178E+03  0.47000000000E+01 0. -1.
        -13    1    6    6    0    0 -0.68646537246E+01  0.71461328301E+01 -0.13567399484E+02  0.16800744446E+02  0.00000000000E+00 0.  1.
         14    1    6    6    0    0  0.89240427113E+02  0.35732515784E+02  0.65844383828E+02  0.11651673441E+03  0.00000000000E+00 0. -1.
         -5    1    3    3    0  503 -0.11428882782E+03 -0.10156690034E+02 -0.59204570957E+03  0.60307985105E+03  0.47000000000E+01 0.  1.
         11    1    4    4    0    0 -0.21796080997E+02 -0.78327179877E+02 -0.32471325744E+03  0.33473708461E+03  0.00000000000E+00 0. -1.
        -12    1    4    4    0    0 -0.15290056210E+01 -0.22685269226E+01  0.46634572434E+01  0.54066538680E+01  0.00000000000E+00 0.  1.
</event>
<event>
12    1  0.8747122E-002  0.1900619E+03  0.7818608E-02  0.1158717E+00
         21   -1    0    0  503  502  0.00000000000E+00  0.00000000000E+00  0.10745283385E+04  0.10745283385E+04  0.00000000000E+00 0. -1.
         21   -1    0    0  501  503 -0.00000000000E+00 -0.00000000000E+00 -0.33384420314E+02  0.33384420314E+02  0.00000000000E+00 0. -1.
          6    2    1    2  501    0 -0.23131361049E+02  0.75272039657E+02  0.53160905570E+03  0.56456330617E+03  0.17298149828E+03 0.  0.
         24    2    3    3    0    0 -0.76117228775E+02  0.74284983479E+02  0.42374802834E+03  0.44429457506E+03  0.80766246776E+02 0.  0.
         -6    2    1    2    0  502  0.23131361049E+02 -0.75272039657E+02  0.50953486246E+03  0.54334945262E+03  0.17146985679E+03 0.  0.
        -24    2    5    5    0    0 -0.23344474874E+01 -0.73932325131E+02  0.50488092320E+03  0.51700459753E+03  0.83171923768E+02 0.  0.
          5    1    3    3  501    0  0.52985867726E+02  0.98705617791E+00  0.10786102736E+03  0.12026873111E+03  0.47000000000E+01 0. -1.
        -13    1    4    4    0    0 -0.51649250655E+02  0.17783143147E+01  0.11290373753E+03  0.12416948676E+03  0.00000000000E+00 0.  1.
         14    1    4    4    0    0 -0.24467978119E+02  0.72506669165E+02  0.31084429081E+03  0.32012508830E+03  0.00000000000E+00 0. -1.
         -5    1    5    5    0  502  0.25465808536E+02 -0.13397145261E+01  0.46539392536E+01  0.26344855095E+02  0.47000000000E+01 0.  1.
         11    1    6    6    0    0  0.27585925326E+02 -0.25550188237E+02  0.80741303480E+02  0.89067129081E+02  0.00000000000E+00 0. -1.
        -12    1    6    6    0    0 -0.29920372813E+02 -0.48382136895E+02  0.42413961972E+03  0.42793746844E+03  0.00000000000E+00 0.  1.
</event>
<event>
12    1  0.8747122E-002  0.1754868E+03  0.7818608E-02  0.1172472E+00
         21   -1    0    0  501  502  0.00000000000E+00  0.00000000000E+00  0.26236811644E+02  0.26236811644E+02  0.00000000000E+00 0.  1.
         21   -1    0    0  502  503 -0.00000000000E+00 -0.00000000000E+00 -0.19634436115E+04  0.19634436115E+04  0.00000000000E+00 0.  1.
         -6    2    1    2    0  503  0.31712680450E+02 -0.12585799914E+02 -0.16034378822E+04  0.16130122922E+04  0.17213807364E+03 0.  0.
        -24    2    3    3    0    0  0.81086578545E+01 -0.63448132550E+02 -0.63730563269E+03  0.64524282574E+03  0.78028320813E+02 0.  0.
          6    2    1    2  501    0 -0.31712680450E+02  0.12585799914E+02 -0.33376891770E+03  0.37666813095E+03  0.17121067135E+03 0.  0.
         24    2    5    5    0    0 -0.63883603374E+02 -0.20327972907E+02 -0.11198183555E+03  0.15010713578E+03  0.74147686783E+02 0.  0.
          5    1    5    5  501    0  0.32170922923E+02  0.32913772822E+02 -0.22178708215E+03  0.22656099517E+03  0.47000000000E+01 0. -1.
        -13    1    6    6    0    0 -0.38611425530E+02  0.24214728955E+02 -0.34206250283E+02  0.56984759702E+02  0.00000000000E+00 0.  1.
         14    1    6    6    0    0 -0.25272177844E+02 -0.44542701862E+02 -0.77775585270E+02  0.93122376078E+02  0.00000000000E+00 0. -1.
         -5    1    3    3    0  503  0.23604022596E+02  0.50862332636E+02 -0.96613224948E+03  0.96776946648E+03  0.47000000000E+01 0.  1.
         11    1    4    4    0    0 -0.19076491803E+02 -0.90963311113E+01 -0.43781388755E+02  0.48615489101E+02  0.00000000000E+00 0. -1.
        -12    1    4    4    0    0  0.27185149658E+02 -0.54351801439E+02 -0.59352424394E+03  0.59662733664E+03  0.00000000000E+00 0.  1.
</event>
<event>
12    1  0.8747122E-002  0.1779638E+03  0.7818608E-02  0.1170261E+00
         21   -1    0    0  503  502  0.00000000000E+00  0.00000000000E+00  0.46569795861E+02  0.46569795861E+02  0.00000000000E+00 0. -1.
         21   -1    0    0  501  503 -0.00000000000E+00 -0.00000000000E+00 -0.82446376642E+03  0.82446376642E+03  0.00000000000E+00 0. -1.
          6    2    1    2  501    0 -0.18056418908E+02  0.21872907495E+02 -0.57746437088E+03  0.60426502830E+03  0.17568911876E+03 0.  0.
         24    2    3    3    0    0  0.39702546890E+01 -0.28189119369E+01 -0.56116797178E+03  0.56708273520E+03  0.81545244044E+02 0.  0.
         -6    2    1    2    0  502  0.18056418908E+02 -0.21872907495E+02 -0.20042959968E+03  0.26676853398E+03  0.17374972790E+03 0.  0.
        -24    2    5    5    0    0  0.61927449382E+02 -0.25037305403E+02 -0.19713151402E+03  0.22241035437E+03  0.78381479099E+02 0.  0.
          5    1    3    3  501    0 -0.22026673597E+02  0.24691819432E+02 -0.16296399099E+02  0.37182293101E+02  0.47000000000E+01 0. -1.
        -11    1    4    4    0    0  0.10315120637E+02  0.14194575346E+01 -0.63157805163E+01  0.12178081005E+02  0.00000000000E+00 0.  1.
         12    1    4    4    0    0 -0.63448659476E+01 -0.42383694715E+01 -0.55485219126E+03  0.55490465420E+03  0.00000000000E+00 0. -1.
         -5    1    5    5    0  502 -0.43871030473E+02  0.31643979077E+01 -0.32980856664E+01  0.44358179606E+02  0.47000000000E+01 0.  1.
         11    1    6    6    0    0  0.48787421331E+02 -0.38974038921E+02 -0.19295298707E+03  0.20280543240E+03  0.00000000000E+00 0. -1.
        -12    1    6    6    0    0  0.13140028050E+02  0.13936733518E+02 -0.41785269451E+01  0.19604921977E+02  0.00000000000E+00 0.  1.
</event>
<event>
12    1  0.8747122E-002  0.2922723E+03  0.7818608E-02  0.1089640E+00
         21   -1    0    0  503  502  0.00000000000E+00  0.00000000000E+00  0.14748063566E+03  0.14748063566E+03  0.00000000000E+00 0.  1.
         21   -1    0    0  501  503 -0.00000000000E+00 -0.00000000000E+00 -0.71441010260E+03  0.71441010260E+03  0.00000000000E+00 0. -1.
          6    2    1    2  501    0 -0.13422519019E+03  0.18734461295E+03 -0.92514620971E+02  0.30656494278E+03  0.17974621935E+03 0.  0.
         24    2    3    3    0    0 -0.76027391868E+02  0.18600427721E+03 -0.25652700796E+02  0.21778776892E+03  0.79973094102E+02 0.  0.
         -6    2    1    2    0  502  0.13422519019E+03 -0.18734461295E+03 -0.47441484597E+03  0.55532579548E+03  0.17378977923E+03 0.  0.
        -24    2    5    5    0    0  0.90438743547E+02 -0.41427975911E+02 -0.15871726224E+03  0.20476057723E+03  0.82705992109E+02 0.  0.
          5    1    3    3  501    0 -0.58197798318E+02  0.13403357398E+01 -0.66861920175E+02  0.88777173859E+02  0.47000000000E+01 0. -1.
        -13    1    4    4    0    0 -0.52346716713E+02  0.64720558647E+02  0.20752237272E+02  0.85788022556E+02  0.00000000000E+00 0.  1.
         14    1    4    4    0    0 -0.23680675155E+02  0.12128371856E+03 -0.46404938069E+02  0.13199974637E+03  0.00000000000E+00 0. -1.
         -5    1    5    5    0  502  0.43786446638E+02 -0.14591663704E+03 -0.31569758373E+03  0.35056521825E+03  0.47000000000E+01 0.  1.
         13    1    6    6    0    0  0.92392875802E+02 -0.38356306587E+02 -0.16758607813E+03  0.19517362357E+03  0.00000000000E+00 0. -1.
        -14    1    6    6    0    0 -0.19541322552E+01 -0.30716693245E+01  0.88688158851E+01  0.95869536619E+01  0.00000000000E+00 0.  1.
</event>
<event>
12    1  0.8747122E-002  0.1871468E+03  0.7818608E-02  0.1161183E+00
         21   -1    0    0  503  502  0.00000000000E+00  0.00000000000E+00  0.54469083328E+02  0.54469083328E+02  0.00000000000E+00 0. -1.
         21   -1    0    0  501  503 -0.00000000000E+00 -0.00000000000E+00 -0.96186661951E+03  0.96186661951E+03  0.00000000000E+00 0. -1.
          6    2    1    2  501    0 -0.54429917479E+01 -0.78237595369E+02 -0.74669016336E+03  0.76965620772E+03  0.16933319381E+03 0.  0.
         24    2    3    3    0    0  0.15584477492E+02 -0.56311828965E+02 -0.72591926447E+03  0.73255615467E+03  0.79157079297E+02 0.  0.
         -6    2    1    2    0  502  0.54429917479E+01  0.78237595369E+02 -0.16070737282E+03  0.24667949512E+03  0.16992105857E+03 0.  0.
        -24    2    5    5    0    0 -0.37068144841E+02  0.32134228299E+02 -0.15833281977E+03  0.18374742308E+03  0.79291725187E+02 0.  0.
          5    1    3    3  501    0 -0.21027469240E+02 -0.21925766404E+02 -0.20770898896E+02  0.37100053045E+02  0.47000000000E+01 0. -1.
        -11    1    4    4    0    0 -0.92889410590E+01  0.16910261461E+02 -0.20838220073E+03  0.20927346451E+03  0.00000000000E+00 0.  1.
         12    1    4    4    0    0  0.24873418551E+02 -0.73222090426E+02 -0.51753706374E+03  0.52328269016E+03  0.00000000000E+00 0. -1.
         -5    1    5    5    0  502  0.42511136589E+02  0.46103367070E+02 -0.23745530549E+01  0.62932072042E+02  0.47000000000E+01 0.  1.
         11    1    6    6    0    0 -0.49489910310E+02  0.70206251601E+01 -0.45854096671E+02  0.67831693047E+02  0.00000000000E+00 0. -1.
        -12    1    6    6    0    0  0.12421765469E+02  0.25113603139E+02 -0.11247872309E+03  0.11591573003E+03  0.00000000000E+00 0.  1.
</event>
<event>
12    1  0.8747122E-002  0.3575521E+03  0.7818608E-02  0.1059604E+00
         21   -1    0    0  501  502  0.00000000000E+00  0.00000000000E+00  0.29232489940E+03  0.29232489940E+03  0.00000000000E+00 0.  1.
         21   -1    0    0  502  503 -0.00000000000E+00 -0.00000000000E+00 -0.79955496311E+03  0.79955496311E+03  0.00000000000E+00 0. -1.
         -6    2    1    2    0  503 -0.18480180751E+03  0.25301302871E+03 -0.62126990164E+03  0.71658188217E+03  0.17130674949E+03 0.  0.
        -24    2    3    3    0    0 -0.86220166318E+02  0.44133325728E+02 -0.21153214237E+03  0.24620310750E+03  0.80550948878E+02 0.  0.
          6    2    1    2  501    0  0.18480180751E+03 -0.25301302871E+03  0.11403983793E+03  0.37529798033E+03  0.17226778181E+03 0.  0.
         24    2    5    5    0    0  0.27187998205E+02 -0.13457990346E+03  0.68062418202E+02  0.17280222442E+03  0.79857237170E+02 0.  0.
          5    1    5    5  501    0  0.15761380931E+03 -0.11843312524E+03  0.45977419724E+02  0.20249575592E+03  0.47000000000E+01 0. -1.
        -13    1    6    6    0    0  0.39232568324E+02 -0.36306461228E+02  0.14555394637E+01  0.53474032383E+02  0.00000000000E+00 0.  1.
         14    1    6    6    0    0 -0.12044570119E+02 -0.98273442237E+02  0.66606878739E+02  0.11932819203E+03  0.00000000000E+00 0. -1.
         -5    1    3    3    0  503 -0.98581641197E+02  0.20887970298E+03 -0.40973775926E+03  0.47037877467E+03  0.47000000000E+01 0.  1.
         11    1    4    4    0    0 -0.49231242162E+02  0.64811130415E+02 -0.11611083862E+03  0.14179536197E+03  0.00000000000E+00 0. -1.
        -12    1    4    4    0    0 -0.36988924156E+02 -0.20677804687E+02 -0.95421303751E+02  0.10440774553E+03  0.00000000000E+00 0.  1.
</event>
<event>
12    1  0.8747122E-002  0.1878832E+03  0.7818608E-02  0.1164679E+00
         21   -1    0    0  503  502  0.00000000000E+00  0.00000000000E+00  0.59991726859E+03  0.59991726859E+03  0.00000000000E+00 0.  1.
         21   -1    0    0  501  503 -0.00000000000E+00 -0.00000000000E+00 -0.66276571591E+02  0.66276571591E+02  0.00000000000E+00 0.  1.
          6    2    1    2  501    0  0.32313691538E+02 -0.14851988019E+02  0.10944858590E+03  0.20225522268E+03  0.16632325735E+03 0.  0.
         24    2    3    3    0    0 -0.19020919006E+02  0.80469779438E+01  0.17660150250E+02  0.94520308183E+02  0.90529876496E+02 0.  0.
         -6    2    1    2    0  502 -0.32313691538E+02  0.14851988019E+02  0.42419211110E+03  0.46393861750E+03  0.18448668647E+03 0.  0.
        -24    2    5    5    0    0 -0.84013766564E+02 -0.30176776452E+02  0.27259418382E+03  0.29749190248E+03  0.78897985894E+02 0.  0.
          5    1    3    3  501    0  0.51334610544E+02 -0.22898965963E+02  0.91788435649E+02  0.10773491449E+03  0.47000000000E+01 0. -1.
        -11    1    4    4    0    0 -0.13374938666E+02 -0.40159955816E+02 -0.14595462230E+01  0.42353763831E+02  0.00000000000E+00 0.  1.
         12    1    4    4    0    0 -0.56459803397E+01  0.48206933760E+02  0.19119696473E+02  0.52166544353E+02  0.00000000000E+00 0. -1.
         -5    1    5    5    0  502  0.51700075026E+02  0.45028764471E+02  0.15159792728E+03  0.16644671502E+03  0.47000000000E+01 0.  1.
         11    1    6    6    0    0 -0.38621614568E+02 -0.54724393777E+02  0.16799905812E+03  0.18085925996E+03  0.00000000000E+00 0. -1.
        -12    1    6    6    0    0 -0.45392151996E+02  0.24547617325E+02  0.10459512570E+03  0.11663264251E+03  0.00000000000E+00 0.  1.
</event>
<event>
12    1  0.8747122E-002  0.1937258E+03  0.7818608E-02  0.1155229E+00
         21   -1    0    0  503  502  0.00000000000E+00  0.00000000000E+00  0.34579302029E+03  0.34579302029E+03  0.00000000000E+00 0. -1.
         21   -1    0    0  501  503 -0.00000000000E+00 -0.00000000000E+00 -0.11916710180E+03  0.11916710180E+03  0.00000000000E+00 0. -1.
          6    2    1    2  501    0  0.40675878306E+02 -0.78765107922E+02  0.18336823904E+03  0.26646347625E+03  0.17181502782E+03 0.  0.
         24    2    3    3    0    0  0.13839247242E+02  0.21947892526E+02  0.56661242598E+02  0.10232918314E+03  0.81163603665E+02 0.  0.
         -6    2    1    2    0  502 -0.40675878306E+02  0.78765107922E+02  0.43257679453E+02  0.19849664583E+03  0.17225336651E+03 0.  0.
        -24    2    5    5    0    0 -0.45200980896E+02  0.11196161033E+03  0.64819710329E+02  0.15837812765E+03  0.79394619522E+02 0.  0.
          5    1    3    3  501    0  0.26836631064E+02 -0.10071300045E+03  0.12670699644E+03  0.16413429311E+03  0.47000000000E+01 0. -1.
        -13    1    4    4    0    0 -0.42175955252E+01  0.36373703439E+01  0.72113048741E+02  0.72327798071E+02  0.00000000000E+00 0.  1.
         14    1    4    4    0    0  0.18056842767E+02  0.18310522182E+02 -0.15451806143E+02  0.30001385074E+02  0.00000000000E+00 0. -1.
         -5    1    5    5    0  502  0.45251025897E+01 -0.33196502410E+02 -0.21562030876E+02  0.40118518183E+02  0.47000000000E+01 0.  1.
         13    1    6    6    0    0 -0.60039569839E+02  0.99342324311E+02  0.73139207892E+02  0.13719690622E+03  0.00000000000E+00 0. -1.
        -14    1    6    6    0    0  0.14838588943E+02  0.12619286021E+02 -0.83194975627E+01  0.21181221428E+02  0.00000000000E+00 0.  1.
</event>
<event>
12    1  0.8747122E-002  0.1757096E+03  0.7818608E-02  0.1172474E+00
         21   -1    0    0  501  502  0.00000000000E+00  0.00000000000E+00  0.70484645613E+02  0.70484645613E+02  0.00000000000E+00 0. -1.
         21   -1    0    0  502  503 -0.00000000000E+00 -0.00000000000E+00 -0.45302100945E+03  0.45302100945E+03  0.00000000000E+00 0. -1.
         -6    2    1    2    0  503  0.27660689786E+02  0.93649400417E+00 -0.13603886909E+03  0.22079314483E+03  0.17168881187E+03 0.  0.
        -24    2    3    3    0    0  0.81744012630E+02 -0.18191484737E+02 -0.10701290300E+03  0.15633011599E+03  0.77293790425E+02 0.  0.
          6    2    1    2  501    0 -0.27660689786E+02 -0.93649400417E+00 -0.24649749475E+03  0.30271251023E+03  0.17351616107E+03 0.  0.
         24    2    5    5    0    0 -0.52806372322E+02 -0.56982203444E+01 -0.25636029626E+03  0.27488546868E+03  0.83788046391E+02 0.  0.
          5    1    5    5  501    0  0.25145682536E+02  0.47617263402E+01  0.98628015113E+01  0.27827041553E+02  0.47000000000E+01 0. -1.
        -13    1    6    6    0    0 -0.25377678995E+02 -0.24557874967E+02 -0.30729731239E+02  0.46812735405E+02  0.00000000000E+00 0.  1.
         14    1    6    6    0    0 -0.27428693327E+02  0.18859654623E+02 -0.22563056503E+03  0.22807273328E+03  0.00000000000E+00 0. -1.
         -5    1    3    3    0  503 -0.54083322844E+02  0.19127978742E+02 -0.29025966085E+02  0.64463028844E+02  0.47000000000E+01 0.  1.
         11    1    4    4    0    0  0.79022990577E+02 -0.28629669245E+02 -0.48930947405E+02  0.97254967044E+02  0.00000000000E+00 0. -1.
        -12    1    4    4    0    0  0.27210220530E+01  0.10438184507E+02 -0.58081955598E+02  0.59075148945E+02  0.00000000000E+00 0.  1.
</event>
<event>
12    1  0.8747122E-002  0.1814830E+03  0.7818608E-02  0.1166500E+00
         21   -1    0    0  501  502  0.00000000000E+00  0.00000000000E+00  0.30096048504E+03  0.30096048504E+03  0.00000000000E+00 0.  1.
         21   -1    0    0  502  503 -0.00000000000E+00 -0.00000000000E+00 -0.12877582725E+03  0.12877582725E+03  0.00000000000E+00 0.  1.
         -6    2    1    2    0  503  0.56486194376E+02 -0.94031063436E+01  0.16992573200E+03  0.24823926286E+03  0.17166498963E+03 0.  0.
        -24    2    3    3    0    0 -0.13605726395E+02 -0.53781370469E+02  0.86334839969E+02  0.13037563440E+03  0.80414860887E+02 0.  0.
          6    2    1    2  501    0 -0.56486194376E+02  0.94031063436E+01  0.22589257916E+01  0.18149704943E+03  0.17221198461E+03 0.  0.
         24    2    5    5    0    0 -0.99906646499E+02  0.40235108586E+02  0.20984905762E+02  0.12485165817E+03  0.59559787619E+02 0.  0.
          5    1    5    5  501    0  0.43420452123E+02 -0.30832002243E+02 -0.18725979970E+02  0.56645391258E+02  0.47000000000E+01 0. -1.
        -11    1    6    6    0    0 -0.29039931835E+02  0.33096389123E+02 -0.13033937926E+02  0.45919191541E+02  0.00000000000E+00 0.  1.
         12    1    6    6    0    0 -0.70866714665E+02  0.71387194636E+01  0.34018843688E+02  0.78932466633E+02  0.00000000000E+00 0. -1.
         -5    1    3    3    0  503  0.70091920771E+02  0.44378264125E+02  0.83590892032E+02  0.11786362846E+03  0.47000000000E+01 0.  1.
         13    1    4    4    0    0 -0.13278898941E+02  0.82371860131E+01 -0.79416461963E+01  0.17528551988E+02  0.00000000000E+00 0. -1.
        -14    1    4    4    0    0 -0.32682745393E+00 -0.62018556482E+02  0.94276486165E+02  0.11284708241E+03  0.00000000000E+00 0.  1.
</event>
<event>
12    1  0.8747122E-002  0.1852288E+03  0.7818608E-02  0.1163076E+00
         21   -1    0    0  501  502  0.00000000000E+00  0.00000000000E+00  0.44806570335E+02  0.44806570335E+02  0.00000000000E+00 0.  1.
         21   -1    0    0  502  503 -0.00000000000E+00 -0.00000000000E+00 -0.94208748800E+03  0.94208748800E+03  0.00000000000E+00 0.  1.
         -6    2    1    2    0  503 -0.58262758683E+02  0.35944337111E+02 -0.66367466355E+03  0.68876392953E+03  0.17101212581E+03 0.  0.
        -24    2    3    3    0    0 -0.19600193993E+02 -0.23365986102E+02 -0.53146273913E+03  0.53871529973E+03  0.82652248416E+02 0.  0.
          6    2    1    2  501    0  0.58262758683E+02 -0.35944337111E+02 -0.23360625412E+03  0.29813012881E+03  0.17211376272E+03 0.  0.
         24    2    5    5    0    0  0.38273147276E+02  0.83550980453E+01 -0.36982165985E+02  0.95534110694E+02  0.78895147121E+02 0.  0.
          5    1    5    5  501    0  0.19989611407E+02 -0.44299435157E+02 -0.19662408814E+03  0.20259601811E+03  0.47000000000E+01 0. -1.
        -13    1    6    6    0    0  0.59494789819E+02  0.18240645239E+02 -0.16378155154E+02  0.64347456209E+02  0.00000000000E+00 0.  1.
         14    1    6    6    0    0 -0.21221642544E+02 -0.98855471938E+01 -0.20604010832E+02  0.31186654484E+02  0.00000000000E+00 0. -1.
         -5    1    3    3    0  503 -0.38662564690E+02  0.59310323213E+02 -0.13221192442E+03  0.15004862981E+03  0.47000000000E+01 0.  1.
         13    1    4    4    0    0 -0.43504679600E+02  0.12213716055E+02 -0.28168593257E+03  0.28528721775E+03  0.00000000000E+00 0. -1.
        -14    1    4    4    0    0  0.23904485607E+02 -0.35579702157E+02 -0.24977680656E+03  0.25342808197E+03  0.00000000000E+00 0.  1.
</event>
<event>
12    1  0.8747122E-002  0.1867323E+03  0.7818608E-02  0.1162172E+00
         21   -1    0    0  503  502  0.00000000000E+00  0.00000000000E+00  0.10910495890E+04  0.10910495890E+04  0.00000000000E+00 0.  1.
         21   -1    0    0  501  503 -0.00000000000E+00 -0.00000000000E+00 -0.37944854642E+02  0.37944854642E+02  0.00000000000E+00 0.  1.
          6    2    1    2  501    0 -0.33646935378E+01 -0.68443215485E+02  0.28886265102E+03  0.34227026820E+03  0.17032765610E+03 0.  0.
         24    2    3    3    0    0 -0.74802098226E+01 -0.32014497337E+02  0.29266630349E+03  0.30511455865E+03  0.79752411365E+02 0.  0.
         -6    2    1    2    0  502  0.33646935378E+01  0.68443215485E+02  0.76424208339E+03  0.78672417549E+03  0.17370426410E+03 0.  0.
        -24    2    5    5    0    0 -0.52399725997E+02  0.25660682703E+01  0.27040370851E+03  0.28537808793E+03  0.74633581593E+02 0.  0.
          5    1    3    3  501    0  0.41155162848E+01 -0.36428718149E+02 -0.38036524795E+01  0.37155709553E+02  0.47000000000E+01 0. -1.
        -13    1    4    4    0    0 -0.25933173168E+02 -0.52279455175E+02  0.18326447794E+03  0.19233184806E+03  0.00000000000E+00 0.  1.
         14    1    4    4    0    0  0.18452963346E+02  0.20264957838E+02  0.10940182555E+03  0.11278271058E+03  0.00000000000E+00 0. -1.
         -5    1    5    5    0  502  0.55764419535E+02  0.65877147215E+02  0.49383837488E+03  0.50134608756E+03  0.47000000000E+01 0.  1.
         11    1    6    6    0    0 -0.29292072064E+02 -0.12828376354E+02  0.24700848131E+03  0.24906983471E+03  0.00000000000E+00 0. -1.
        -12    1    6    6    0    0 -0.23107653933E+02  0.15394444624E+02  0.23395227204E+02  0.36308253215E+02  0.00000000000E+00 0.  1.
</event>
<event>
12    1  0.8747122E-002  0.1739171E+03  0.7818608E-02  0.1174392E+00
         21   -1    0    0  503  502  0.00000000000E+00  0.00000000000E+00  0.22867013785E+03  0.22867013785E+03  0.00000000000E+00 0. -1.
         21   -1    0    0  501  503 -0.00000000000E+00 -0.00000000000E+00 -0.13423969759E+04  0.13423969759E+04  0.00000000000E+00 0. -1.
          6    2    1    2  501    0 -0.21982772167E+02  0.42421374985E+01 -0.13035610641E+04  0.13151116339E+04  0.17247006684E+03 0.  0.
         24    2    3    3    0    0  0.29919844686E+02  0.31508208656E+01 -0.35806731418E+03  0.36818207283E+03  0.80254049713E+02 0.  0.
         -6    2    1    2    0  502  0.21982772167E+02 -0.42421374985E+01  0.18983422600E+03  0.25595547983E+03  0.17022025817E+03 0.  0.
        -24    2    5    5    0    0 -0.50867825636E+02 -0.17915078444E+02  0.11721044096E+03  0.15207832610E+03  0.80504932009E+02 0.  0.
          5    1    3    3  501    0 -0.51902616853E+02  0.10913166329E+01 -0.94549374988E+03  0.94692956110E+03  0.47000000000E+01 0. -1.
        -13    1    4    4    0    0  0.22277269385E+02 -0.18206371971E+02 -0.33352099281E+03  0.33475961727E+03  0.00000000000E+00 0.  1.
         14    1    4    4    0    0  0.76425753004E+01  0.21357192836E+02 -0.24546321370E+02  0.33422455563E+02  0.00000000000E+00 0. -1.
         -5    1    5    5    0  502  0.72850597802E+02  0.13672940945E+02  0.72623785041E+02  0.10387715373E+03  0.47000000000E+01 0.  1.
         11    1    6    6    0    0  0.10878943005E+02 -0.21738205699E+02  0.70460672598E+02  0.74535946837E+02  0.00000000000E+00 0. -1.
        -12    1    6    6    0    0 -0.61746768640E+02  0.38231272548E+01  0.46749768366E+02  0.77542379263E+02  0.00000000000E+00 0.  1.
</event>
<event>
12    1  0.8747122E-002  0.1737921E+03  0.7818608E-02  0.1174122E+00
         21   -1    0    0  501  502  0.00000000000E+00  0.00000000000E+00  0.12729988868E+03  0.12729988868E+03  0.00000000000E+00 0.  1.
         21   -1    0    0  502  503 -0.00000000000E+00 -0.00000000000E+00 -0.30348910667E+03  0.30348910667E+03  0.00000000000E+00 0.  1.
         -6    2    1    2    0  503  0.29449969800E+01 -0.38694323570E+01 -0.18954593364E+03  0.25716016490E+03  0.17372404536E+03 0.  0.
        -24    2    3    3    0    0  0.25610318752E+02 -0.35376835581E+02 -0.34857041808E+02  0.97607112512E+02  0.80029532843E+02 0.  0.
          6    2    1    2  501    0 -0.29449969800E+01  0.38694323570E+01  0.13356715648E+02  0.17362883045E+03  0.17304601526E+03 0.  0.
         24    2    5    5    0    0 -0.46164724574E+02 -0.39789884353E+02 -0.21254004260E+02  0.10296007695E+03  0.80216133392E+02 0.  0.
          5    1    5    5  501    0  0.43219727594E+02  0.43659316711E+02  0.34610719909E+02  0.70668753502E+02  0.47000000000E+01 0. -1.
        -11    1    6    6    0    0 -0.36304721013E+02  0.45673736669E+01  0.19901567032E+02  0.41652923551E+02  0.00000000000E+00 0.  1.
         12    1    6    6    0    0 -0.98600035619E+01 -0.44357258020E+02 -0.41155571293E+02  0.61307153398E+02  0.00000000000E+00 0. -1.
         -5    1    3    3    0  503 -0.22665321772E+02  0.31507403224E+02 -0.15468889183E+03  0.15955305239E+03  0.47000000000E+01 0.  1.
         13    1    4    4    0    0 -0.10882892702E+02  0.16329675673E+02 -0.27656369691E+02  0.33911214157E+02  0.00000000000E+00 0. -1.
        -14    1    4    4    0    0  0.36493211454E+02 -0.51706511254E+02 -0.72006721167E+01  0.63695898355E+02  0.00000000000E+00 0.  1.
</event>
<event>
12    1  0.8747122E-002  0.2128154E+03  0.7818608E-02  0.1139517E+00
         21   -1    0    0  501  502  0.00000000000E+00  0.00000000000E+00  0.32862841779E+03  0.32862841779E+03  0.00000000000E+00 0.  1.
         21   -1    0    0  502  503 -0.00000000000E+00 -0.00000000000E+00 -0.13869537156E+03  0.13869537156E+03  0.00000000000E+00 0. -1.
         -6    2    1    2    0  503 -0.20413626318E+02  0.12251723828E+03  0.11875299937E+03  0.24370614856E+03  0.17280978609E+03 0.  0.
        -24    2    3    3    0    0  0.40435892172E+02  0.16395366626E+02  0.47248894344E+02  0.10193364565E+03  0.79083125103E+02 0.  0.
          6    2    1    2  501    0  0.20413626318E+02 -0.12251723828E+03  0.71180046861E+02  0.22361764079E+03  0.17178783538E+03 0.  0.
         24    2    5    5    0    0 -0.16434359599E+02 -0.10605491304E+03  0.10346569162E+03  0.17172125290E+03  0.85236767885E+02 0.  0.
          5    1    5    5  501    0  0.36847985917E+02 -0.16462325245E+02 -0.32285644761E+02  0.51896387892E+02  0.47000000000E+01 0. -1.
        -11    1    6    6    0    0 -0.37480046585E+02 -0.64864449551E+02  0.22064958731E+02  0.78096178596E+02  0.00000000000E+00 0.  1.
         12    1    6    6    0    0  0.21045686986E+02 -0.41190463488E+02  0.81400732891E+02  0.93625074303E+02  0.00000000000E+00 0. -1.
         -5    1    3    3    0  503 -0.60849518490E+02  0.10612187166E+03  0.71504105028E+02  0.14177250291E+03  0.47000000000E+01 0.  1.
         11    1    4    4    0    0 -0.84020533653E+01  0.22615437530E+02 -0.10271100306E+02  0.26221136835E+02  0.00000000000E+00 0. -1.
        -12    1    4    4    0    0  0.48837945537E+02 -0.62200709043E+01  0.57519994650E+02  0.75712508814E+02  0.00000000000E+00 0.  1.
</event>
<event>
12    1  0.8747122E-002  0.1805731E+03  0.7818608E-02  0.1167815E+00
         21   -1    0    0  501  502  0.00000000000E+00  0.00000000000E+00  0.47535600586E+03  0.47535600586E+03  0.00000000000E+00 0.  1.
         21   -1    0    0  502  503 -0.00000000000E+00 -0.00000000000E+00 -0.22771981328E+03  0.22771981328E+03  0.00000000000E+00 0.  1.
         -6    2    1    2    0  503  0.41740135289E+02  0.20720476072E+02 -0.17061591953E+03  0.24842795179E+03  0.17445652240E+03 0.  0.
        -24    2    3    3    0    0  0.58008821720E+02 -0.60474917811E+02 -0.86552169539E+02  0.13033406452E+03  0.49733803814E+02 0.  0.
          6    2    1    2  501    0 -0.41740135289E+02 -0.20720476072E+02  0.41825211212E+03  0.45464786735E+03  0.17204149782E+03 0.  0.
         24    2    5    5    0    0  0.28686770205E+02 -0.71993416102E+01  0.32747714229E+03  0.33886809692E+03  0.81948441596E+02 0.  0.
          5    1    5    5  501    0 -0.70426905494E+02 -0.13521134462E+02  0.90774969827E+02  0.11577977043E+03  0.47000000000E+01 0. -1.
        -13    1    6    6    0    0  0.10102145559E+02 -0.44115578853E+02  0.15235215025E+03  0.15893210918E+03  0.00000000000E+00 0.  1.
         14    1    6    6    0    0  0.18584624646E+02  0.36916237243E+02  0.17512499204E+03  0.17993598773E+03  0.00000000000E+00 0. -1.
         -5    1    3    3    0  503 -0.16268686431E+02  0.81195393883E+02 -0.84063749993E+02  0.11809388726E+03  0.47000000000E+01 0.  1.
         11    1    4    4    0    0  0.43975439238E+02 -0.32224956265E+02 -0.81991302229E+02  0.98462483737E+02  0.00000000000E+00 0. -1.
        -12    1    4    4    0    0  0.14033382482E+02 -0.28249961546E+02 -0.45608673101E+01  0.31871580787E+02  0.00000000000E+00 0.  1.
</event>
<event>
12    1  0.8747122E-002  0.3060714E+03  0.7818608E-02  0.1082750E+00
         21   -1    0    0  503  502  0.00000000000E+00  0.00000000000E+00  0.26146952792E+03  0.26146952792E+03  0.00000000000E+00 0. -1.
         21   -1    0    0  501  503 -0.00000000000E+00 -0.00000000000E+00 -0.41016627630E+03  0.41016627630E+03  0.00000000000E+00 0.  1.
          6    2    1    2  501    0  0.18204770627E+03 -0.16938492197E+03 -0.19962661880E+03  0.36541827381E+03  0.17845758251E+03 0.  0.
         24    2    3    3    0    0  0.14696538247E+03 -0.84760125358E+02 -0.19920556091E+03  0.27368827363E+03  0.80245330863E+02 0.  0.
         -6    2    1    2    0  502 -0.18204770627E+03  0.16938492197E+03  0.50929870415E+02  0.30621753041E+03  0.17129712514E+03 0.  0.
        -24    2    5    5    0    0 -0.17800118742E+03  0.17211147847E+03  0.84835404858E+02  0.27164176301E+03  0.72700878616E+02 0.  0.
          5    1    3    3  501    0  0.35082323800E+02 -0.84624796607E+02 -0.42105788282E+00  0.91730000184E+02  0.47000000000E+01 0. -1.
        -11    1    4    4    0    0  0.37084562756E+02 -0.62733538914E+02 -0.56343996659E+02  0.92116272498E+02  0.00000000000E+00 0.  1.
         12    1    4    4    0    0  0.10988081972E+03 -0.22026586443E+02 -0.14286156425E+03  0.18157200113E+03  0.00000000000E+00 0. -1.
         -5    1    5    5    0  502 -0.40465188577E+01 -0.27265565082E+01 -0.33905534443E+02  0.34575767397E+02  0.47000000000E+01 0.  1.
         11    1    6    6    0    0 -0.88719634666E+02  0.37428897182E+02  0.26850804838E+02  0.99965302180E+02  0.00000000000E+00 0. -1.
        -12    1    6    6    0    0 -0.89281552751E+02  0.13468258129E+03  0.57984600020E+02  0.17167646083E+03  0.00000000000E+00 0.  1.
</event>
<event>
12    1  0.8747122E-002  0.2381744E+03  0.7818608E-02  0.1121254E+00
         21   -1    0    0  501  502  0.00000000000E+00  0.00000000000E+00  0.27603254981E+03  0.27603254981E+03  0.00000000000E+00 0. -1.
         21   -1    0    0  502  503 -0.00000000000E+00 -0.00000000000E+00 -0.20518817540E+03  0.20518817540E+03  0.00000000000E+00 0. -1.
         -6    2    1    2    0  503 -0.16357382214E+03 -0.10947956930E+02  0.19582797476E+02  0.23897814645E+03  0.17277388539E+03 0.  0.
        -24    2    3    3    0    0 -0.15581952963E+03  0.32421909883E+02  0.50794993737E+02  0.18478067792E+03  0.78948473621E+02 0.  0.
          6    2    1    2  501    0  0.16357382214E+03  0.10947956930E+02  0.51261576937E+02  0.24224257877E+03  0.17081412309E+03 0.  0.
         24    2    5    5    0    0  0.17331020052E+03  0.24482854252E+02  0.79972724650E+02  0.20871034782E+03  0.80799361631E+02 0.  0.
          5    1    5    5  501    0 -0.97363783855E+01 -0.13534897323E+02 -0.28711147713E+02  0.33532230951E+02  0.47000000000E+01 0. -1.
        -13    1    6    6    0    0 -0.79992342019E+01  0.56134375105E+01  0.83571451865E+01  0.12858472078E+02  0.00000000000E+00 0.  1.
         14    1    6    6    0    0  0.18130943472E+03  0.18869416742E+02  0.71615579463E+02  0.19585187574E+03  0.00000000000E+00 0. -1.
         -5    1    3    3    0  503 -0.77542925055E+01 -0.43369866812E+02 -0.31212196261E+02  0.54197468529E+02  0.47000000000E+01 0.  1.
         13    1    4    4    0    0 -0.42482183501E+02  0.34929261637E+02 -0.10370693153E+02  0.55967316444E+02  0.00000000000E+00 0. -1.
        -14    1    4    4    0    0 -0.11333734613E+03 -0.25073517548E+01  0.61165686889E+02  0.12881336147E+03  0.00000000000E+00 0.  1.
</event>
<event>
12    1  0.8747122E-002  0.2360887E+03  0.7818608E-02  0.1122603E+00
         21   -1    0    0  503  502  0.00000000000E+00  0.00000000000E+00  0.21813777230E+03  0.21813777230E+03  0.00000000000E+00 0. -1.
         21   -1    0    0  501  503 -0.00000000000E+00 -0.00000000000E+00 -0.38213446845E+03  0.38213446845E+03  0.00000000000E+00 0. -1.
          6    2    1    2  501    0 -0.16144572117E+02  0.15759109801E+03 -0.25540658092E+03  0.34710504474E+03  0.17364846423E+03 0.  0.
         24    2    3    3    0    0 -0.77251663425E+02  0.10575599820E+03 -0.15635863143E+03  0.21961567076E+03  0.81430157583E+02 0.  0.
         -6    2    1    2    0  502  0.16144572117E+02 -0.15759109801E+03  0.91409884771E+02  0.25316719601E+03  0.17504930940E+03 0.  0.
        -24    2    5    5    0    0 -0.33185006702E+02 -0.16113514949E+03  0.49203319957E+02  0.18797937689E+03  0.76482013398E+02 0.  0.
          5    1    3    3  501    0  0.61107091308E+02  0.51835099802E+02 -0.99047949489E+02  0.12748937398E+03  0.47000000000E+01 0. -1.
        -11    1    4    4    0    0  0.15434905124E+02  0.14151350312E+02 -0.86994989052E+01  0.22675499841E+02  0.00000000000E+00 0.  1.
         12    1    4    4    0    0 -0.92686568549E+02  0.91604647892E+02 -0.14765913252E+03  0.19694017092E+03  0.00000000000E+00 0. -1.
         -5    1    5    5    0  502  0.49329578818E+02  0.35440514799E+01  0.42206564814E+02  0.65187819113E+02  0.47000000000E+01 0.  1.
         11    1    6    6    0    0 -0.37065623277E+02 -0.66561328398E+02 -0.92289349723E+01  0.76742713711E+02  0.00000000000E+00 0. -1.
        -12    1    6    6    0    0  0.38806165754E+01 -0.94573821088E+02  0.58432254929E+02  0.11123666318E+03  0.00000000000E+00 0.  1.
</event>
<event>
12    1  0.8747122E-002  0.2564221E+03  0.7818608E-02  0.1109375E+00
         21   -1    0    0  501  502  0.00000000000E+00  0.00000000000E+00  0.17442373120E+04  0.17442373120E+04  0.00000000000E+00 0.  1.
         21   -1    0    0  502  503 -0.00000000000E+00 -0.00000000000E+00 -0.62053208587E+02  0.62053208587E+02  0.00000000000E+00 0. -1.
         -6    2    1    2    0  503  0.15342885728E+03  0.11152500627E+03  0.27497554693E+03  0.37598386852E+03  0.17255166387E+03 0.  0.
        -24    2    3    3    0    0  0.69644485308E+02  0.11228179055E+03  0.23297331842E+03  0.28214000399E+03  0.88706594645E+02 0.  0.
          6    2    1    2  501    0 -0.15342885728E+03 -0.11152500627E+03  0.14072085565E+04  0.14303066521E+04  0.17193881542E+03 0.  0.
         24    2    5    5    0    0 -0.16634677418E+03 -0.13104745478E+03  0.11644178438E+04  0.11863447314E+04  0.81854884216E+02 0.  0.
          5    1    5    5  501    0  0.12917916900E+02  0.19522448511E+02  0.24279071268E+03  0.24396192067E+03  0.47000000000E+01 0. -1.
        -13    1    6    6    0    0 -0.59483785215E+02 -0.16889746883E+02  0.49814964762E+03  0.50197276388E+03  0.00000000000E+00 0.  1.
         14    1    6    6    0    0 -0.10686298897E+03 -0.11415770790E+03  0.66626819622E+03  0.68437196755E+03  0.00000000000E+00 0. -1.
         -5    1    3    3    0  503  0.83784371975E+02 -0.75678427430E+00  0.42002228511E+02  0.93843864528E+02  0.47000000000E+01 0.  1.
         13    1    4    4    0    0  0.72704330607E+02  0.97234229261E+02  0.12941888569E+03  0.17745326991E+03  0.00000000000E+00 0. -1.
        -14    1    4    4    0    0 -0.30598452982E+01  0.15047561287E+02  0.10355443273E+03  0.10468673408E+03  0.00000000000E+00 0.  1.
</event>
<event>
12    1  0.8747122E-002  0.1776799E+03  0.7818608E-02  0.1170213E+00
         21   -1    0    0  501  502  0.00000000000E+00  0.00000000000E+00  0.20287057711E+03  0.20287057711E+03  0.00000000000E+00 0. -1.
         21   -1    0    0  502  503 -0.00000000000E+00 -0.00000000000E+00 -0.19026880818E+03  0.19026880818E+03  0.00000000000E+00 0. -1.
         -6    2    1    2    0  503 -0.16723043402E+02 -0.35524533540E+02 -0.78217747933E+02  0.19359407450E+03  0.17268177937E+03 0.  0.
        -24    2    3    3    0    0  0.10970578751E+02  0.43674646811E+02 -0.43530225633E+02  0.10268334312E+03  0.81370510866E+02 0.  0.
          6    2    1    2  501    0  0.16723043402E+02  0.35524533540E+02  0.90819516854E+02  0.19954531079E+03  0.17328731562E+03 0.  0.
         24    2    5    5    0    0 -0.18501836575E+02 -0.22725809039E+02 -0.22516994501E+01  0.84140649342E+02  0.78840334653E+02 0.  0.
          5    1    5    5  501    0  0.35224879977E+02  0.58250342579E+02  0.93071216304E+02  0.11540466145E+03  0.47000000000E+01 0. -1.
        -11    1    6    6    0    0 -0.32543356278E+02 -0.19419891064E+02 -0.32952157288E+02  0.50219984834E+02  0.00000000000E+00 0.  1.
         12    1    6    6    0    0  0.14041519704E+02 -0.33059179754E+01  0.30700457838E+02  0.33920664508E+02  0.00000000000E+00 0. -1.
         -5    1    3    3    0  503 -0.27693622153E+02 -0.79199180351E+02 -0.34687522300E+02  0.90910731377E+02  0.47000000000E+01 0.  1.
         11    1    4    4    0    0  0.13854838408E+02  0.24678568112E+02 -0.66775300380E+02  0.72525368060E+02  0.00000000000E+00 0. -1.
        -12    1    4    4    0    0 -0.28842596577E+01  0.18996078699E+02  0.23245074748E+02  0.30157975061E+02  0.00000000000E+00 0.  1.
</event>
<event>
12    1  0.8747122E-002  0.2332833E+03  0.7818608E-02  0.1125256E+00
         21   -1    0    0  501  502  0.00000000000E+00  0.00000000000E+00  0.23258436077E+03  0.23258436077E+03  0.00000000000E+00 0.  1.
         21   -1    0    0  502  503 -0.00000000000E+00 -0.00000000000E+00 -0.30461691139E+03  0.30461691139E+03  0.00000000000E+00 0.  1.
         -6    2    1    2    0  503  0.11959910560E+03 -0.10291256399E+03 -0.17030271923E+03  0.28883231017E+03  0.17183173553E+03 0.  0.
        -24    2    3    3    0    0 -0.38485205792E+01 -0.11429331129E+02 -0.60858922520E+02  0.10013007663E+03  0.78592512844E+02 0.  0.
          6    2    1    2  501    0 -0.11959910560E+03  0.10291256399E+03  0.98270168614E+02  0.24836896199E+03  0.16472757314E+03 0.  0.
         24    2    5    5    0    0 -0.13024870636E+03  0.33579356313E+02  0.57759480126E+02  0.16722887593E+03  0.80851967961E+02 0.  0.
          5    1    5    5  501    0  0.10649600755E+02  0.69333207678E+02  0.40510688487E+02  0.81140086054E+02  0.47000000000E+01 0. -1.
        -13    1    6    6    0    0 -0.93803232134E+02  0.51754748710E+02  0.65785730675E+02  0.12571938090E+03  0.00000000000E+00 0.  1.
         14    1    6    6    0    0 -0.36445474225E+02 -0.18175392398E+02 -0.80262505489E+01  0.41509495037E+02  0.00000000000E+00 0. -1.
         -5    1    3    3    0  503  0.12344762618E+03 -0.91483232862E+02 -0.10944379671E+03  0.18870223354E+03  0.47000000000E+01 0.  1.
         11    1    4    4    0    0  0.52129837945E+01  0.32450607002E+02 -0.36552677780E+02  0.49156030635E+02  0.00000000000E+00 0. -1.
        -12    1    4    4    0    0 -0.90615043737E+01 -0.43879938131E+02 -0.24306244740E+02  0.50974045997E+02  0.00000000000E+00 0.  1.
</event>
<event>
12    1  0.8747122E-002  0.1827439E+03  0.7818608E-02  0.1165182E+00
         21   -1    0    0  501  502  0.00000000000E+00  0.00000000000E+00  0.39715680207E+03  0.39715680207E+03  0.00000000000E+00 0.  1.
         21   -1    0    0  502  503 -0.00000000000E+00 -0.00000000000E+00 -0.90066236601E+02  0.90066236601E+02  0.00000000000E+00 0. -1.
         -6    2    1    2    0  503  0.99906022747E+01  0.61161790464E+02  0.90703547084E+02  0.20401586820E+03  0.17191499143E+03 0.  0.
        -24    2    3    3    0    0 -0.36007826250E+01  0.83981374056E+02  0.11761526786E+03  0.16591350798E+03  0.81413168917E+02 0.  0.
          6    2    1    2  501    0 -0.99906022747E+01 -0.61161790464E+02  0.21638701839E+03  0.28320717047E+03  0.17187897758E+03 0.  0.
         24    2    5    5    0    0  0.23876969063E+02 -0.64717639347E+02  0.56588257567E+02  0.11975261896E+03  0.79874754208E+02 0.  0.
          5    1    5    5  501    0 -0.33867571338E+02  0.35558488827E+01  0.15979876082E+03  0.16345455151E+03  0.47000000000E+01 0. -1.
        -11    1    6    6    0    0 -0.21834707063E+02 -0.39676959107E+02  0.49599983398E+02  0.67165272795E+02  0.00000000000E+00 0.  1.
         12    1    6    6    0    0  0.45711676127E+02 -0.25040680240E+02  0.69882741691E+01  0.52587346169E+02  0.00000000000E+00 0. -1.
         -5    1    3    3    0  503  0.13591384900E+02 -0.22819583591E+02 -0.26911720779E+02  0.38102360216E+02  0.47000000000E+01 0.  1.
         11    1    4    4    0    0 -0.23002007464E+02  0.17849369890E+02 -0.54787862830E+00  0.29120311190E+02  0.00000000000E+00 0. -1.
        -12    1    4    4    0    0  0.19401224839E+02  0.66132004166E+02  0.11816314649E+03  0.13679319679E+03  0.00000000000E+00 0.  1.
</event>
<event>
12    1  0.8747122E-002  0.2956511E+03  0.7818608E-02  0.1087457E+00
         21   -1    0    0  503  502  0.00000000000E+00  0.00000000000E+00  0.46938627666E+02  0.46938627666E+02  0.00000000000E+00 0. -1.
         21   -1    0    0  501  503 -0.00000000000E+00 -0.00000000000E+00 -0.19374526732E+04  0.19374526732E+04  0.00000000000E+00 0.  1.
          6    2    1    2  501    0  0.53381018139E+02 -0.23407734872E+03 -0.74859589965E+03  0.80486359843E+03  0.17253362812E+03 0.  0.
         24    2    3    3    0    0  0.89512894353E+02 -0.20038178880E+03 -0.51285249201E+03  0.56395293557E+03  0.82824002793E+02 0.  0.
         -6    2    1    2    0  502 -0.53381018139E+02  0.23407734872E+03 -0.11419181458E+04  0.11795277024E+04  0.17224056032E+03 0.  0.
        -24    2    5    5    0    0 -0.60812229780E+02  0.24585871571E+03 -0.11298048909E+04  0.11604792258E+04  0.78155656746E+02 0.  0.
          5    1    3    3  501    0 -0.36131876214E+02 -0.33695559922E+02 -0.23574340763E+03  0.24091066286E+03  0.47000000000E+01 0.  1.
        -11    1    4    4    0    0  0.18590846530E+01 -0.66015004036E+02 -0.22407595832E+03  0.23360537675E+03  0.00000000000E+00 0.  1.
         12    1    4    4    0    0  0.87653809700E+02 -0.13436678476E+03 -0.28877653370E+03  0.33034755882E+03  0.00000000000E+00 0. -1.
         -5    1    5    5    0  502  0.74312116410E+01 -0.11781366992E+02 -0.12113254971E+02  0.19048476597E+02  0.47000000000E+01 0.  1.
         13    1    6    6    0    0  0.84154686026E+01  0.40976754897E+02 -0.30235795734E+03  0.30523802011E+03  0.00000000000E+00 0. -1.
        -14    1    6    6    0    0 -0.69227698382E+02  0.20488196081E+03 -0.82744693353E+03  0.85524120568E+03  0.00000000000E+00 0.  1.
</event>
<event>
12    1  0.8747122E-002  0.1722254E+03  0.7818608E-02  0.1175724E+00
         21   -1    0    0  503  502  0.00000000000E+00  0.00000000000E+00  0.14846012012E+03  0.14846012012E+03  0.00000000000E+00 0.  1.
         21   -1    0    0  501  503 -0.00000000000E+00 -0.00000000000E+00 -0.20266486507E+03  0.20266486507E+03  0.00000000000E+00 0.  1.
          6    2    1    2  501    0  0.14414908162E+02  0.88966469665E+01 -0.35277145691E+01  0.17226156880E+03  0.17139038308E+03 0.  0.
         24    2    3    3    0    0  0.32641048186E+01 -0.52631620293E+02 -0.34816687361E+02  0.10218191480E+03  0.80300685912E+02 0.  0.
         -6    2    1    2    0  502 -0.14414908162E+02 -0.88966469665E+01 -0.50677030384E+02  0.17886341639E+03  0.17069569535E+03 0.  0.
        -24    2    5    5    0    0 -0.37078311884E+02 -0.53942630949E+02 -0.74480469144E+02  0.12290392892E+03  0.72618364167E+02 0.  0.
          5    1    3    3  501    0  0.11150803344E+02  0.61528267259E+02  0.31288972792E+02  0.70079654005E+02  0.47000000000E+01 0. -1.
        -11    1    4    4    0    0  0.40828564458E+02 -0.17721895735E+02 -0.12316003998E+02  0.46181394724E+02  0.00000000000E+00 0.  1.
         12    1    4    4    0    0 -0.37564459639E+02 -0.34909724558E+02 -0.22500683363E+02  0.56000520073E+02  0.00000000000E+00 0. -1.
         -5    1    5    5    0  502  0.22663403722E+02  0.45045983982E+02  0.23803438760E+02  0.55959487471E+02  0.47000000000E+01 0.  1.
         13    1    6    6    0    0  0.18250120311E+02  0.34495659936E-01 -0.25633508170E+02  0.31466566740E+02  0.00000000000E+00 0. -1.
        -14    1    6    6    0    0 -0.55328432195E+02 -0.53977126609E+02 -0.48846960974E+02  0.91437362180E+02  0.00000000000E+00 0.  1.
</event>
<event>
12    1  0.8747122E-002  0.2494062E+03  0.7818608E-02  0.1114616E+00
         21   -1    0    0  501  502  0.00000000000E+00  0.00000000000E+00  0.13032986823E+04  0.13032986823E+04  0.00000000000E+00 0. -1.
         21   -1    0    0  502  503 -0.00000000000E+00 -0.00000000000E+00 -0.96332349216E+02  0.96332349216E+02  0.00000000000E+00 0.  1.
         -6    2    1    2    0  503  0.11174639293E+03 -0.13331458220E+03  0.10422377917E+03  0.27030736800E+03  0.17872728637E+03 0.  0.
        -24    2    3    3    0    0  0.14368575769E+03 -0.13993949578E+03  0.84298177602E+02  0.23179591388E+03  0.79965639511E+02 0.  0.
          6    2    1    2  501    0 -0.11174639293E+03  0.13331458220E+03  0.11027425539E+04  0.11293236635E+04  0.17050150320E+03 0.  0.
         24    2    5    5    0    0 -0.64239946100E+02  0.28094530886E+02  0.75672152287E+03  0.76452129837E+03  0.83362336475E+02 0.  0.
          5    1    5    5  501    0 -0.47506446832E+02  0.10522005131E+03  0.34602103100E+03  0.36480236511E+03  0.47000000000E+01 0. -1.
        -11    1    6    6    0    0 -0.52918742475E+02  0.89220534968E+01  0.19194339472E+03  0.19930444832E+03  0.00000000000E+00 0.  1.
         12    1    6    6    0    0 -0.11321203625E+02  0.19172477389E+02  0.56477812815E+03  0.56521685005E+03  0.00000000000E+00 0. -1.
         -5    1    3    3    0  503 -0.31939364757E+02  0.66249135784E+01  0.19925601568E+02  0.38511454125E+02  0.47000000000E+01 0.  1.
         11    1    4    4    0    0  0.11554259995E+03 -0.58697716034E+02  0.57093533569E+02  0.14161633326E+03  0.00000000000E+00 0. -1.
        -12    1    4    4    0    0  0.28143157740E+02 -0.81241779744E+02  0.27204644033E+02  0.90179580618E+02  0.00000000000E+00 0.  1.
</event>
<event>
12    1  0.8747122E-002  0.2096038E+03  0.7818608E-02  0.1142073E+00
         21   -1    0    0  501  502  0.00000000000E+00  0.00000000000E+00  0.18420069515E+03  0.18420069515E+03  0.00000000000E+00 0. -1.
         21   -1    0    0  502  503 -0.00000000000E+00 -0.00000000000E+00 -0.26423040045E+03  0.26423040045E+03  0.00000000000E+00 0. -1.
         -6    2    1    2    0  503 -0.11330455272E+03  0.40192300804E+02 -0.11136484797E+03  0.23649796586E+03  0.17051632116E+03 0.  0.
        -24    2    3    3    0    0 -0.48245772642E+02  0.27168789114E+02 -0.13513689855E+03  0.16586187656E+03  0.78628131519E+02 0.  0.
          6    2    1    2  501    0  0.11330455272E+03 -0.40192300804E+02  0.31335142673E+02  0.21193312974E+03  0.17169862436E+03 0.  0.
         24    2    5    5    0    0  0.10778785997E+03 -0.72194634892E+02 -0.15829221808E+02  0.15447748978E+03  0.82355585867E+02 0.  0.
          5    1    5    5  501    0  0.55166927481E+01  0.32002334088E+02  0.47164364481E+02  0.57455639957E+02  0.47000000000E+01 0. -1.
        -11    1    6    6    0    0  0.33831698041E+02  0.14684998733E+02 -0.16444104068E+02  0.40381202790E+02  0.00000000000E+00 0.  1.
         12    1    6    6    0    0  0.73956161927E+02 -0.86879633625E+02  0.61488226090E+00  0.11409628700E+03  0.00000000000E+00 0. -1.
         -5    1    3    3    0  503 -0.65058780074E+02  0.13023511690E+02  0.23772050586E+02  0.70636089293E+02  0.47000000000E+01 0.  1.
         11    1    4    4    0    0 -0.43850341380E+02  0.50463575973E+02 -0.12105592432E+03  0.13828941301E+03  0.00000000000E+00 0. -1.
        -12    1    4    4    0    0 -0.43954312622E+01 -0.23294786859E+02 -0.14080974239E+02  0.27572463552E+02  0.00000000000E+00 0.  1.
</event>
<event>
12    1  0.8747122E-002  0.1950809E+03  0.7818608E-02  0.1154182E+00
         21   -1    0    0  501  502  0.00000000000E+00  0.00000000000E+00  0.30105310837E+03  0.30105310837E+03  0.00000000000E+00 0. -1.
         21   -1    0    0  502  503 -0.00000000000E+00 -0.00000000000E+00 -0.25789708654E+03  0.25789708654E+03  0.00000000000E+00 0. -1.
         -6    2    1    2    0  503  0.90176812839E+02 -0.19226954055E+02 -0.17850713006E+03  0.26366878301E+03  0.17074805509E+03 0.  0.
        -24    2    3    3    0    0  0.14495566674E+02  0.45153294198E+02 -0.13649102070E+03  0.15568771601E+03  0.57964857913E+02 0.  0.
          6    2    1    2  501    0 -0.90176812839E+02  0.19226954055E+02  0.22166315189E+03  0.29528141189E+03  0.17191575253E+03 0.  0.
         24    2    5    5    0    0 -0.49368959903E+02 -0.64754457179E+01  0.22760297580E+03  0.24646270929E+03  0.80383623195E+02 0.  0.
          5    1    5    5  501    0 -0.40807852936E+02  0.25702399773E+02 -0.59398239161E+01  0.48818702599E+02  0.47000000000E+01 0. -1.
        -11    1    6    6    0    0  0.10909099791E+02  0.19893791867E+02  0.26579643894E+02  0.34946371523E+02  0.00000000000E+00 0.  1.
         12    1    6    6    0    0 -0.60278059694E+02 -0.26369237585E+02  0.20102333191E+03  0.21151633777E+03  0.00000000000E+00 0. -1.
         -5    1    3    3    0  503  0.75681246165E+02 -0.64380248253E+02 -0.42016109358E+02  0.10798106701E+03  0.47000000000E+01 0.  1.
         11    1    4    4    0    0 -0.18408450893E+02  0.36159742586E+02 -0.79862518210E+02  0.89579126268E+02  0.00000000000E+00 0. -1.
        -12    1    4    4    0    0  0.32904017567E+02  0.89935516123E+01 -0.56628502491E+02  0.66108589737E+02  0.00000000000E+00 0.  1.
</event>
<event>
12    1  0.8747122E-002  0.1834125E+03  0.7818608E-02  0.1164702E+00
         21   -1    0    0  503  502  0.00000000000E+00  0.00000000000E+00  0.12999374191E+04  0.12999374191E+04  0.00000000000E+00 0. -1.
         21   -1    0    0  501  503 -0.00000000000E+00 -0.00000000000E+00 -0.48308297953E+02  0.48308297953E+02  0.00000000000E+00 0. -1.
          6    2    1    2  501    0 -0.16222078073E+02  0.60215914605E+02  0.16610537551E+03  0.24744926327E+03  0.17248486870E+03 0.  0.
         24    2    3    3    0    0 -0.47382718668E+02  0.61745580117E+02  0.38263533353E+02  0.11577180884E+03  0.76690123521E+02 0.  0.
         -6    2    1    2    0  502  0.16222078073E+02 -0.60215914605E+02  0.10855237456E+04  0.11007964538E+04  0.17176122417E+03 0.  0.
        -24    2    5    5    0    0  0.62340568322E+02 -0.55333406907E+02  0.52583475682E+03  0.53916970208E+03  0.85168326166E+02 0.  0.
          5    1    3    3  501    0  0.31160640596E+02 -0.15296655112E+01  0.12784184216E+03  0.13167745443E+03  0.47000000000E+01 0. -1.
        -13    1    4    4    0    0 -0.11316195918E+02 -0.17687530863E+02  0.13356412528E+01  0.21040175276E+02  0.00000000000E+00 0.  1.
         14    1    4    4    0    0 -0.36066522750E+02  0.79433110980E+02  0.36927892100E+02  0.94731633566E+02  0.00000000000E+00 0. -1.
         -5    1    5    5    0  502 -0.46118490249E+02 -0.48825076987E+01  0.55968898882E+03  0.56162675171E+03  0.47000000000E+01 0.  1.
         13    1    6    6    0    0  0.54769400630E+02 -0.63278425149E+02  0.52009384317E+03  0.52678406586E+03  0.00000000000E+00 0. -1.
        -14    1    6    6    0    0  0.75711676922E+01  0.79450182424E+01  0.57409136447E+01  0.12385636220E+02  0.00000000000E+00 0.  1.
</event>
<event>
12    1  0.8747122E-002  0.2298173E+03  0.7818608E-02  0.1127512E+00
         21   -1    0    0  501  502  0.00000000000E+00  0.00000000000E+00  0.37527192570E+03  0.37527192570E+03  0.00000000000E+00 0.  1.
         21   -1    0    0  502  503 -0.00000000000E+00 -0.00000000000E+00 -0.14664406236E+03  0.14664406236E+03  0.00000000000E+00 0. -1.
         -6    2    1    2    0  503 -0.14746500558E+03  0.25187121992E+02  0.17596911247E+03  0.28614290892E+03  0.16891511713E+03 0.  0.
        -24    2    3    3    0    0 -0.75149683305E+02 -0.50520251970E+02  0.91717155235E+02  0.15167508895E+03  0.79959522787E+02 0.  0.
          6    2    1    2  501    0  0.14746500558E+03 -0.25187121992E+02  0.52658750865E+02  0.23577307914E+03  0.17445825238E+03 0.  0.
         24    2    5    5    0    0  0.72923230502E+02  0.58817778198E+02  0.23093200122E+02  0.11954265594E+03  0.70567854711E+02 0.  0.
          5    1    5    5  501    0  0.74541775073E+02 -0.84004900189E+02  0.29565550743E+02  0.11623042320E+03  0.47000000000E+01 0. -1.
        -13    1    6    6    0    0  0.51689713632E+02  0.57485714496E+02 -0.12267860385E+02  0.78274735802E+02  0.00000000000E+00 0.  1.
         14    1    6    6    0    0  0.21233516871E+02  0.13320637018E+01  0.35361060507E+02  0.41267920139E+02  0.00000000000E+00 0. -1.
         -5    1    3    3    0  503 -0.72315322271E+02  0.75707373962E+02  0.84251957236E+02  0.13446781996E+03  0.47000000000E+01 0.  1.
         13    1    4    4    0    0 -0.71532510834E+02 -0.22063217055E+02  0.24784041396E+02  0.78853879809E+02  0.00000000000E+00 0. -1.
        -14    1    4    4    0    0 -0.36171724709E+01 -0.28457034916E+02  0.66933113840E+02  0.72821209144E+02  0.00000000000E+00 0.  1.
</event>
<event>
12    1  0.8747122E-002  0.1735548E+03  0.7818608E-02  0.1174221E+00
         21   -1    0    0  503  502  0.00000000000E+00  0.00000000000E+00  0.95964654426E+03  0.95964654426E+03  0.00000000000E+00 0. -1.
         21   -1    0    0  501  503 -0.00000000000E+00 -0.00000000000E+00 -0.41148344325E+02  0.41148344325E+02  0.00000000000E+00 0. -1.
          6    2    1    2  501    0  0.19456171297E+02 -0.74648414528E+01  0.21515056801E+03  0.27635085444E+03  0.17217944529E+03 0.  0.
         24    2    3    3    0    0  0.66406355026E+01  0.60914020192E+01  0.23523976226E+03  0.24853583296E+03  0.79693859847E+02 0.  0.
         -6    2    1    2    0  502 -0.19456171297E+02  0.74648414528E+01  0.70334763193E+03  0.72444403414E+03  0.17229916077E+03 0.  0.
        -24    2    5    5    0    0 -0.21407754994E+02 -0.48468713754E+02  0.59130961987E+03  0.59911655343E+03  0.80536140012E+02 0.  0.
          5    1    3    3  501    0  0.12815535794E+02 -0.13556243472E+02 -0.20089194251E+02  0.27815021489E+02  0.47000000000E+01 0. -1.
        -13    1    4    4    0    0 -0.85788630831E+00 -0.32909673945E+01  0.23644078485E+03  0.23646524306E+03  0.00000000000E+00 0.  1.
         14    1    4    4    0    0  0.74985218109E+01  0.93823694137E+01 -0.12010225913E+01  0.12070589896E+02  0.00000000000E+00 0. -1.
         -5    1    5    5    0  502  0.19515836968E+01  0.55933555207E+02  0.11203801206E+03  0.12532748072E+03  0.47000000000E+01 0.  1.
         11    1    6    6    0    0  0.11727683991E+01 -0.66696884378E+02  0.44302677265E+03  0.44802072615E+03  0.00000000000E+00 0. -1.
        -12    1    6    6    0    0 -0.22580523393E+02  0.18228170624E+02  0.14828284722E+03  0.15109582728E+03  0.00000000000E+00 0.  1.
</event>
<event>
12    1  0.8747122E-002  0.1728146E+03  0.7818608E-02  0.1175143E+00
         21   -1    0    0  503  502  0.00000000000E+00  0.00000000000E+00  0.37748237595E+03  0.37748237595E+03  0.00000000000E+00 0. -1.
         21   -1    0    0  501  503 -0.00000000000E+00 -0.00000000000E+00 -0.81871350090E+02  0.81871350090E+02  0.00000000000E+00 0. -1.
          6    2    1    2  501    0 -0.13849527080E+02  0.39566782003E+01  0.10335222034E+03  0.20136177445E+03  0.17221329235E+03 0.  0.
         24    2    3    3    0    0  0.20778855255E+02  0.56831831155E+02  0.29413482794E+02  0.10397628492E+03  0.79273557993E+02 0.  0.
         -6    2    1    2    0  502  0.13849527080E+02 -0.39566782003E+01  0.19225880552E+03  0.25799195158E+03  0.17143201007E+03 0.  0.
        -24    2    5    5    0    0  0.74589803050E+02 -0.56883629421E+01  0.10439446208E+03  0.15105920306E+03  0.79527875150E+02 0.  0.
          5    1    3    3  501    0 -0.34628382336E+02 -0.52875152955E+02  0.73938737542E+02  0.97385489538E+02  0.47000000000E+01 0. -1.
        -13    1    4    4    0    0  0.40242809881E+02  0.43778245423E+02  0.46071226790E+02  0.75223510004E+02  0.00000000000E+00 0.  1.
         14    1    4    4    0    0 -0.19463954626E+02  0.13053585732E+02 -0.16657743996E+02  0.28752774913E+02  0.00000000000E+00 0. -1.
         -5    1    5    5    0  502 -0.60740275969E+02  0.17316847417E+01  0.87864343443E+02  0.10693274852E+03  0.47000000000E+01 0.  1.
         13    1    6    6    0    0  0.31387598302E+02  0.43447645284E+01  0.10181552053E+03  0.10663235216E+03  0.00000000000E+00 0. -1.
        -14    1    6    6    0    0  0.43202204748E+02 -0.10033127471E+02  0.25789415478E+01  0.44426850906E+02  0.00000000000E+00 0.  1.
</event>
<event>
12    1  0.8747122E-002  0.1895235E+03  0.7818608E-02  0.1159063E+00
         21   -1    0    0  501  502  0.00000000000E+00  0.00000000000E+00  0.20782372378E+04  0.20782372378E+04  0.00000000000E+00 0. -1.
         21   -1    0    0  502  503 -0.00000000000E+00 -0.00000000000E+00 -0.17724363499E+02  0.17724363499E+02  0.00000000000E+00 0. -1.
         -6    2    1    2    0  503  0.56900897592E+02 -0.54673585459E+02  0.85456409939E+03  0.87532791551E+03  0.17231438309E+03 0.  0.
        -24    2    3    3    0    0  0.44530976063E+02  0.34345886853E+02  0.48927853322E+03  0.49911904233E+03  0.81016588275E+02 0.  0.
          6    2    1    2  501    0 -0.56900897592E+02  0.54673585459E+02  0.12059487750E+04  0.12206336858E+04  0.17148537567E+03 0.  0.
         24    2    5    5    0    0 -0.47882243556E+02  0.54378696012E+02  0.39086560645E+03  0.40548702132E+03  0.79962805883E+02 0.  0.
          5    1    5    5  501    0 -0.90186540352E+01  0.29488944679E+00  0.81508316851E+03  0.81514666452E+03  0.47000000000E+01 0. -1.
        -13    1    6    6    0    0 -0.48622294575E+02 -0.46646469214E+01  0.17383216528E+03  0.18056441550E+03  0.00000000000E+00 0.  1.
         14    1    6    6    0    0  0.74005101808E+00  0.59043342934E+02  0.21703344117E+03  0.22492260581E+03  0.00000000000E+00 0. -1.
         -5    1    3    3    0  503  0.12369921529E+02 -0.89019472312E+02  0.36528556617E+03  0.37620887318E+03  0.47000000000E+01 0.  1.
         13    1    4    4    0    0  0.41275416111E+02 -0.91854159333E+00  0.99367045907E+02  0.10760257202E+03  0.00000000000E+00 0. -1.
        -14    1    4    4    0    0  0.32555599523E+01  0.35264428446E+02  0.38991148732E+03  0.39151647031E+03  0.00000000000E+00 0.  1.
</event>
<event>
12    1  0.8747122E-002  0.1760892E+03  0.7818608E-02  0.1171670E+00
         21   -1    0    0  503  502  0.00000000000E+00  0.00000000000E+00  0.49677627783E+03  0.49677627783E+03  0.00000000000E+00 0.  1.
         21   -1    0    0  501  503 -0.00000000000E+00 -0.00000000000E+00 -0.63442996723E+02  0.63442996723E+02  0.00000000000E+00 0.  1.
          6    2    1    2  501    0  0.12595551745E+02 -0.33350205017E+02  0.25303028702E+03  0.30827217147E+03  0.17244280635E+03 0.  0.
         24    2    3    3    0    0  0.22745974947E+02 -0.68621065540E+02  0.90063746689E+02  0.14115769586E+03  0.81165181090E+02 0.  0.
         -6    2    1    2    0  502 -0.12595551745E+02  0.33350205017E+02  0.18030299409E+03  0.25194710307E+03  0.17232901373E+03 0.  0.
        -24    2    5    5    0    0 -0.62095887939E+02 -0.21532080680E+01  0.15659343888E+03  0.18641078771E+03  0.79793114169E+02 0.  0.
          5    1    3    3  501    0 -0.10150423202E+02  0.35270860523E+02  0.16296654033E+03  0.16711447561E+03  0.47000000000E+01 0. -1.
        -13    1    4    4    0    0  0.61015227765E+01 -0.82944774678E+02  0.84373067127E+02  0.11847311376E+03  0.00000000000E+00 0.  1.
         14    1    4    4    0    0  0.16644452171E+02  0.14323709137E+02  0.56906795622E+01  0.22684582107E+02  0.00000000000E+00 0. -1.
         -5    1    5    5    0  502  0.49500336194E+02  0.35503413085E+02  0.23709555208E+02  0.65536315369E+02  0.47000000000E+01 0.  1.
         13    1    6    6    0    0 -0.48537546440E+02 -0.14787693982E+02  0.31007021588E+02  0.59464314470E+02  0.00000000000E+00 0. -1.
        -14    1    6    6    0    0 -0.13558341499E+02  0.12634485914E+02  0.12558641729E+03  0.12694647324E+03  0.00000000000E+00 0.  1.
</event>
<event>
12    1  0.8747122E-002  0.1938584E+03  0.7818608E-02  0.1155234E+00
         21   -1    0    0  503  502  0.00000000000E+00  0.00000000000E+00  0.77043583082E+02  0.77043583082E+02  0.00000000000E+00 0.  1.
         21   -1    0    0  501  503 -0.00000000000E+00 -0.00000000000E+00 -0.65305709329E+03  0.65305709329E+03  0.00000000000E+00 0. -1.
          6    2    1    2  501    0  0.83881365183E+02  0.26097886720E+02 -0.47243808402E+03  0.51030767118E+03  0.17175270862E+03 0.  0.
         24    2    3    3    0    0  0.45510704944E+02 -0.47127670704E+02 -0.19521630311E+03  0.22098381174E+03  0.80200987794E+02 0.  0.
         -6    2    1    2    0  502 -0.83881365183E+02 -0.26097886720E+02 -0.10357542619E+03  0.21979300519E+03  0.17281178520E+03 0.  0.
        -24    2    5    5    0    0 -0.14290003471E+02  0.60330791074E+01 -0.11713077883E+03  0.14181099332E+03  0.78422804304E+02 0.  0.
          5    1    3    3  501    0  0.38370660239E+02  0.73225557424E+02 -0.27722178091E+03  0.28932385944E+03  0.47000000000E+01 0. -1.
        -11    1    4    4    0    0 -0.12677291044E+02 -0.21045321927E+02 -0.11947200190E+03  0.12197203992E+03  0.00000000000E+00 0.  1.
         12    1    4    4    0    0  0.58187995988E+02 -0.26082348777E+02 -0.75744301204E+02  0.99011771824E+02  0.00000000000E+00 0. -1.
         -5    1    5    5    0  502 -0.69591361712E+02 -0.32130965827E+02  0.13555352643E+02  0.77982011870E+02  0.47000000000E+01 0.  1.
         11    1    6    6    0    0 -0.84075466295E+01  0.41364444902E+02 -0.47762437736E+02  0.63741310002E+02  0.00000000000E+00 0. -1.
        -12    1    6    6    0    0 -0.58824568416E+01 -0.35331365795E+02 -0.69368341096E+02  0.78069683321E+02  0.00000000000E+00 0.  1.
</event>
<event>
12    1  0.8747122E-002  0.2092872E+03  0.7818608E-02  0.1142294E+00
         21   -1    0    0  501  502  0.00000000000E+00  0.00000000000E+00  0.24147840407E+03  0.24147840407E+03  0.00000000000E+00 0. -1.
         21   -1    0    0  502  503 -0.00000000000E+00 -0.00000000000E+00 -0.35184618468E+03  0.35184618468E+03  0.00000000000E+00 0. -1.
         -6    2    1    2    0  503  0.78936603767E+02  0.88672850169E+02 -0.26204280003E+03  0.33485515328E+03  0.17137001739E+03 0.  0.
        -24    2    3    3    0    0  0.47712128344E+01  0.72473342673E+02 -0.22448567697E+03  0.25002852569E+03  0.82736295692E+02 0.  0.
          6    2    1    2  501    0 -0.78936603767E+02 -0.88672850169E+02  0.15167501942E+03  0.25846943547E+03  0.17235798729E+03 0.  0.
         24    2    5    5    0    0 -0.11347944809E+03 -0.87628223888E+02  0.86712205037E+02  0.18473642664E+03  0.77796208548E+02 0.  0.
          5    1    5    5  501    0  0.34542844326E+02 -0.10446262811E+01  0.64962814382E+02  0.73733008826E+02  0.47000000000E+01 0. -1.
        -13    1    6    6    0    0 -0.67894581201E+02 -0.41884080135E+02  0.41022142821E+01  0.79879775208E+02  0.00000000000E+00 0.  1.
         14    1    6    6    0    0 -0.45584866892E+02 -0.45744143753E+02  0.82609990755E+02  0.10485665143E+03  0.00000000000E+00 0. -1.
         -5    1    3    3    0  503  0.74165390932E+02  0.16199507496E+02 -0.37557123057E+02  0.84826627586E+02  0.47000000000E+01 0.  1.
         13    1    4    4    0    0  0.35371718634E+02  0.89888601775E+01 -0.10670166865E+03  0.11277058206E+03  0.00000000000E+00 0. -1.
        -14    1    4    4    0    0 -0.30600505800E+02  0.63484482496E+02 -0.11778400832E+03  0.13725794363E+03  0.00000000000E+00 0.  1.
</event>
<event>
12    1  0.8747122E-002  0.2581912E+03  0.7818608E-02  0.1108465E+00
         21   -1    0    0  501  502  0.00000000000E+00  0.00000000000E+00  0.45162187816E+03  0.45162187816E+03  0.00000000000E+00 0.  1.
         21   -1    0    0  502  503 -0.00000000000E+00 -0.00000000000E+00 -0.16178633417E+03  0.16178633417E+03  0.00000000000E+00 0.  1.
         -6    2    1    2    0  503  0.18830781723E+03 -0.30213204581E+02  0.23805659196E+03  0.35007623300E+03  0.17178403935E+03 0.  0.
        -24    2    3    3    0    0  0.73853286963E+02  0.39108133203E+02  0.15366075590E+03  0.19180420605E+03  0.78698611657E+02 0.  0.
          6    2    1    2  501    0 -0.18830781723E+03  0.30213204581E+02  0.51778952035E+02  0.26333197932E+03  0.17404022437E+03 0.  0.
         24    2    5    5    0    0 -0.19786715611E+03  0.51196397561E+02  0.72151160898E+02  0.23220655175E+03  0.83316325350E+02 0.  0.
          5    1    5    5  501    0  0.95593388753E+01 -0.20983192980E+02 -0.20372208864E+02  0.31125427569E+02  0.47000000000E+01 0. -1.
        -13    1    6    6    0    0 -0.11029430982E+03  0.47017286201E+02  0.19862594643E+01  0.11991415766E+03  0.00000000000E+00 0.  1.
         14    1    6    6    0    0 -0.87572846285E+02  0.41791113605E+01  0.70164901434E+02  0.11229239409E+03  0.00000000000E+00 0. -1.
         -5    1    3    3    0  503  0.11445453027E+03 -0.69321337785E+02  0.84395836058E+02  0.15827202695E+03  0.47000000000E+01 0.  1.
         11    1    4    4    0    0  0.38729185102E+02  0.42120953838E+02  0.14444620046E+03  0.15536675757E+03  0.00000000000E+00 0. -1.
        -12    1    4    4    0    0  0.35124101861E+02 -0.30128206346E+01  0.92145554408E+01  0.36437448480E+02  0.00000000000E+00 0.  1.
</event>
<event>
12    1  0.8747122E-002  0.2203476E+03  0.7818608E-02  0.1134239E+00
         21   -1    0    0  501  502  0.00000000000E+00  0.00000000000E+00  0.18566109297E+03  0.18566109297E+03  0.00000000000E+00 0.  1.
         21   -1    0    0  502  503 -0.00000000000E+00 -0.00000000000E+00 -0.35246886419E+03  0.35246886419E+03  0.00000000000E+00 0.  1.
         -6    2    1    2    0  503 -0.10566154626E+03 -0.88750449903E+02  0.56612309657E+02  0.22433127779E+03  0.16756659533E+03 0.  0.
        -24    2    3    3    0    0 -0.13254520020E+03 -0.71499875453E+02  0.74938472099E+02  0.18720646940E+03  0.82158537579E+02 0.  0.
          6    2    1    2  501    0  0.10566154626E+03  0.88750449903E+02 -0.22342008088E+03  0.31379867938E+03  0.17179078533E+03 0.  0.
         24    2    5    5    0    0  0.14470451864E+02  0.37564386522E+02 -0.17857961130E+03  0.19991897753E+03  0.80351993695E+02 0.  0.
          5    1    5    5  501    0  0.91191094400E+02  0.51186063381E+02 -0.44840469576E+02  0.11387970185E+03  0.47000000000E+01 0. -1.
        -11    1    6    6    0    0  0.46143648513E+02  0.10684172431E+02 -0.80431949902E+02  0.93341772019E+02  0.00000000000E+00 0.  1.
         12    1    6    6    0    0 -0.31673196649E+02  0.26880214091E+02 -0.98147661399E+02  0.10657720551E+03  0.00000000000E+00 0. -1.
         -5    1    3    3    0  503  0.26883653941E+02 -0.17250574450E+02 -0.18326162442E+02  0.37124808389E+02  0.47000000000E+01 0.  1.
         13    1    4    4    0    0 -0.47034736726E+02  0.11659157639E+02  0.44635017305E+01  0.48663387299E+02  0.00000000000E+00 0. -1.
        -14    1    4    4    0    0 -0.85510463479E+02 -0.83159033092E+02  0.70474970368E+02  0.13854308210E+03  0.00000000000E+00 0.  1.
</event>
<event>
12    1  0.8747122E-002  0.2020016E+03  0.7818608E-02  0.1150121E+00
         21   -1    0    0  503  502  0.00000000000E+00  0.00000000000E+00  0.32307003773E+03  0.32307003773E+03  0.00000000000E+00 0.  1.
         21   -1    0    0  501  503 -0.00000000000E+00 -0.00000000000E+00 -0.79088617345E+03  0.79088617345E+03  0.00000000000E+00 0.  1.
          6    2    1    2  501    0  0.85424225142E+02  0.15074442331E+02 -0.74760733538E+03  0.77441680717E+03  0.18242841407E+03 0.  0.
         24    2    3    3    0    0  0.13216012273E+03  0.16492802090E+02 -0.56939455417E+03  0.59011232742E+03  0.79272253015E+02 0.  0.
         -6    2    1    2    0  502 -0.85424225142E+02 -0.15074442331E+02  0.27979119966E+03  0.33953940401E+03  0.17169552824E+03 0.  0.
        -24    2    5    5    0    0 -0.61268639804E+02  0.42875136466E+02  0.10110917340E+03  0.15009019580E+03  0.81926054330E+02 0.  0.
          5    1    3    3  501    0 -0.46735897587E+02 -0.14183597594E+01 -0.17821278121E+03  0.18430447975E+03  0.47000000000E+01 0. -1.
        -11    1    4    4    0    0  0.46391238220E+02  0.43347024034E+02 -0.19473878447E+03  0.20482750219E+03  0.00000000000E+00 0.  1.
         12    1    4    4    0    0  0.85768884509E+02 -0.26854221944E+02 -0.37465576970E+03  0.38528482524E+03  0.00000000000E+00 0. -1.
         -5    1    5    5    0  502 -0.24155585338E+02 -0.57949578796E+02  0.17868202626E+03  0.18944920821E+03  0.47000000000E+01 0.  1.
         13    1    6    6    0    0  0.11783447389E+02 -0.13450814646E+02  0.23563722806E+02  0.29580789027E+02  0.00000000000E+00 0. -1.
        -14    1    6    6    0    0 -0.73052087193E+02  0.56325951112E+02  0.77545450595E+02  0.12050940677E+03  0.00000000000E+00 0.  1.
</event>
<event>
12    1  0.8747122E-002  0.2633324E+03  0.7818608E-02  0.1105798E+00
         21   -1    0    0  503  502  0.00000000000E+00  0.00000000000E+00  0.84471002594E+03  0.84471002594E+03  0.00000000000E+00 0. -1.
         21   -1    0    0  501  503 -0.00000000000E+00 -0.00000000000E+00 -0.21936930430E+03  0.21936930430E+03  0.00000000000E+00 0. -1.
          6    2    1    2  501    0  0.15913140031E+03 -0.12025971570E+03 -0.10929524320E+03  0.28511299022E+03  0.17192662744E+03 0.  0.
         24    2    3    3    0    0  0.18388193851E+03 -0.84786228752E+02 -0.78038266373E+02  0.23154017980E+03  0.80744114006E+02 0.  0.
         -6    2    1    2    0  502 -0.15913140031E+03  0.12025971570E+03  0.73463596484E+03  0.77896634002E+03  0.16526752938E+03 0.  0.
        -24    2    5    5    0    0 -0.21253269763E+02  0.16944699311E+02  0.23258783811E+03  0.24815678561E+03  0.82133205837E+02 0.  0.
          5    1    3    3  501    0 -0.24750538192E+02 -0.35473486944E+02 -0.31256976826E+02  0.53572810427E+02  0.47000000000E+01 0. -1.
        -11    1    4    4    0    0 -0.70365969397E+01 -0.95410818881E+01 -0.94800083800E+01  0.15179476242E+02  0.00000000000E+00 0.  1.
         12    1    4    4    0    0  0.19091853545E+03 -0.75245146864E+02 -0.68558257993E+02  0.21636070355E+03  0.00000000000E+00 0. -1.
         -5    1    5    5    0  502 -0.13787813055E+03  0.10331501638E+03  0.50204812673E+03  0.53080955441E+03  0.47000000000E+01 0.  1.
         11    1    6    6    0    0 -0.20385148322E+02  0.49367168975E+02  0.15922018153E+03  0.16793968516E+03  0.00000000000E+00 0. -1.
        -12    1    6    6    0    0 -0.86812144072E+00 -0.32422469664E+02  0.73367656572E+02  0.80217100452E+02  0.00000000000E+00 0.  1.
</event>
<event>
12    1  0.8747122E-002  0.2297642E+03  0.7818608E-02  0.1128702E+00
         21   -1    0    0  503  502  0.00000000000E+00  0.00000000000E+00  0.23613180586E+03  0.23613180586E+03  0.00000000000E+00 0.  1.
         21   -1    0    0  501  503 -0.00000000000E+00 -0.00000000000E+00 -0.27808136716E+03  0.27808136716E+03  0.00000000000E+00 0.  1.
          6    2    1    2  501    0 -0.49485063275E+02 -0.12620554814E+03 -0.14449981618E+03  0.26260210584E+03  0.17234574914E+03 0.  0.
         24    2    3    3    0    0 -0.22809310348E+02 -0.14025259708E+03 -0.61418379036E+02  0.17409487124E+03  0.79660223963E+02 0.  0.
         -6    2    1    2    0  502  0.49485063275E+02  0.12620554814E+03  0.10255025488E+03  0.25161106718E+03  0.18551270168E+03 0.  0.
        -24    2    5    5    0    0 -0.41481762976E+02  0.26536596206E+02  0.35294946736E+02  0.10076601446E+03  0.80517878802E+02 0.  0.
          5    1    3    3  501    0 -0.26675752927E+02  0.14047048947E+02 -0.83081437143E+02  0.88507234598E+02  0.47000000000E+01 0. -1.
        -13    1    4    4    0    0 -0.68671847843E+01 -0.14579508569E+03 -0.53516566261E+02  0.15545863792E+03  0.00000000000E+00 0.  1.
         14    1    4    4    0    0 -0.15942125564E+02  0.55424886062E+01 -0.79018127748E+01  0.18636233326E+02  0.00000000000E+00 0. -1.
         -5    1    5    5    0  502  0.90966826251E+02  0.99668951931E+02  0.67255308139E+02  0.15084505272E+03  0.47000000000E+01 0.  1.
         11    1    6    6    0    0 -0.92152951827E+01  0.48739150717E+02  0.36492714140E+02  0.61580391873E+02  0.00000000000E+00 0. -1.
        -12    1    6    6    0    0 -0.32266467793E+02 -0.22202554510E+02 -0.11977674035E+01  0.39185622585E+02  0.00000000000E+00 0.  1.
</event>
<event>
12    1  0.8747122E-002  0.2132784E+03  0.7818608E-02  0.1139052E+00
         21   -1    0    0  501  502  0.00000000000E+00  0.00000000000E+00  0.31981025243E+03  0.31981025243E+03  0.00000000000E+00 0.  1.
         21   -1    0    0  502  503 -0.00000000000E+00 -0.00000000000E+00 -0.63972881704E+03  0.63972881704E+03  0.00000000000E+00 0.  1.
         -6    2    1    2    0  503  0.91521047732E+02  0.85641418642E+02 -0.58315216660E+03  0.62093005859E+03  0.17256052122E+03 0.  0.
        -24    2    3    3    0    0  0.52145870723E+02  0.11798576921E+03 -0.50324818452E+03  0.52604434876E+03  0.82608038763E+02 0.  0.
          6    2    1    2  501    0 -0.91521047732E+02 -0.85641418642E+02  0.26323360199E+03  0.33860901089E+03  0.17220214363E+03 0.  0.
         24    2    5    5    0    0 -0.38106183389E+01 -0.60521560628E+02  0.21138620867E+03  0.23356440662E+03  0.78681781309E+02 0.  0.
          5    1    5    5  501    0 -0.87710429393E+02 -0.25119858014E+02  0.51847393319E+02  0.10504460426E+03  0.47000000000E+01 0. -1.
        -13    1    6    6    0    0 -0.37210190658E+02 -0.39277083167E+02  0.81854938014E+02  0.98119918611E+02  0.00000000000E+00 0.  1.
         14    1    6    6    0    0  0.33399572319E+02 -0.21244477461E+02  0.12953127066E+03  0.13544448801E+03  0.00000000000E+00 0. -1.
         -5    1    3    3    0  503  0.39375177009E+02 -0.32344350566E+02 -0.79903982086E+02  0.94885709836E+02  0.47000000000E+01 0.  1.
         13    1    4    4    0    0 -0.20673178734E+02  0.31939596820E+02 -0.90309432850E+02  0.97996488844E+02  0.00000000000E+00 0. -1.
        -14    1    4    4    0    0  0.72819049457E+02  0.86046172389E+02 -0.41293875167E+03  0.42804785991E+03  0.00000000000E+00 0.  1.
</event>
<event>
12    1  0.8747122E-002  0.2419254E+03  0.7818608E-02  0.1118933E+00
         21   -1    0    0  501  502  0.00000000000E+00  0.00000000000E+00  0.49753810722E+02  0.49753810722E+02  0.00000000000E+00 0.  1.
         21   -1    0    0  502  503 -0.00000000000E+00 -0.00000000000E+00 -0.11663779510E+04  0.11663779510E+04  0.00000000000E+00 0.  1.
         -6    2    1    2    0  503 -0.13092421824E+03  0.10378253199E+03 -0.58767891404E+03  0.63552686441E+03  0.17497406811E+03 0.  0.
        -24    2    3    3    0    0 -0.16230799124E+03  0.72134892544E+02 -0.44108281384E+03  0.48223296080E+03  0.80294788585E+02 0.  0.
          6    2    1    2  501    0  0.13092421824E+03 -0.10378253199E+03 -0.52894522626E+03  0.58060489733E+03  0.17148477938E+03 0.  0.
         24    2    5    5    0    0  0.31956592509E+02 -0.94732696370E+02 -0.19541360643E+03  0.23255041612E+03  0.76796555214E+02 0.  0.
          5    1    5    5  501    0  0.98967625730E+02 -0.90498356182E+01 -0.33353161983E+03  0.34805448122E+03  0.47000000000E+01 0. -1.
        -11    1    6    6    0    0  0.22680272017E+01 -0.72866520909E+02 -0.67230673460E+02  0.99169739693E+02  0.00000000000E+00 0.  1.
         12    1    6    6    0    0  0.29688565308E+02 -0.21866175461E+02 -0.12818293297E+03  0.13338067642E+03  0.00000000000E+00 0. -1.
         -5    1    3    3    0  503  0.31383772999E+02  0.31647639445E+02 -0.14659610020E+03  0.15329390361E+03  0.47000000000E+01 0.  1.
         13    1    4    4    0    0 -0.59248377137E+02  0.56150902897E+02 -0.12415007137E+03  0.14858174286E+03  0.00000000000E+00 0. -1.
        -14    1    4    4    0    0 -0.10305961410E+03  0.15983989647E+02 -0.31693274247E+03  0.33365121794E+03  0.00000000000E+00 0.  1.
</event>
<event>
12    1  0.8747122E-002  0.2277989E+03  0.7818608E-02  0.1128206E+00
         21   -1    0    0  503  502  0.00000000000E+00  0.00000000000E+00  0.60834011493E+02  0.60834011493E+02  0.00000000000E+00 0.  1.
         21   -1    0    0  501  503 -0.00000000000E+00 -0.00000000000E+00 -0.14705816709E+04  0.14705816709E+04  0.00000000000E+00 0.  1.
          6    2    1    2  501    0  0.19329484373E+02 -0.14748715506E+03 -0.12011043108E+04  0.12225072792E+04  0.17247142505E+03 0.  0.
         24    2    3    3    0    0  0.16166783796E+02 -0.17286469270E+03 -0.89740054735E+03  0.91769243702E+03  0.81780802800E+02 0.  0.
         -6    2    1    2    0  502 -0.19329484373E+02  0.14748715506E+03 -0.20864334863E+03  0.30890840319E+03  0.17252902585E+03 0.  0.
        -24    2    5    5    0    0 -0.51176486754E+02  0.52159093069E+02 -0.16868770877E+03  0.20064846545E+03  0.80403108209E+02 0.  0.
          5    1    3    3  501    0  0.31627005764E+01  0.25377537643E+02 -0.30370376340E+03  0.30481484215E+03  0.47000000000E+01 0. -1.
        -13    1    4    4    0    0  0.44731926946E+02 -0.14396459922E+03 -0.73328525744E+03  0.74862141293E+03  0.00000000000E+00 0.  1.
         14    1    4    4    0    0 -0.28565143150E+02 -0.28900093478E+02 -0.16411528991E+03  0.16907102410E+03  0.00000000000E+00 0. -1.
         -5    1    5    5    0  502  0.31847002382E+02  0.95328061989E+02 -0.39955639855E+02  0.10825993774E+03  0.47000000000E+01 0.  1.
         13    1    6    6    0    0 -0.32340330284E+02 -0.15391031230E+02 -0.79476827105E+02  0.87174232729E+02  0.00000000000E+00 0. -1.
        -14    1    6    6    0    0 -0.18836156471E+02  0.67550124299E+02 -0.89210881667E+02  0.11347423272E+03  0.00000000000E+00 0.  1.
</event>
<event>
12    1  0.8747122E-002  0.2550989E+03  0.7818608E-02  0.1112349E+00
         21   -1    0    0  503  502  0.00000000000E+00  0.00000000000E+00  0.96960374575E+03  0.96960374575E+03  0.00000000000E+00 0. -1.
         21   -1    0    0  501  503 -0.00000000000E+00 -0.00000000000E+00 -0.85207730708E+02  0.85207730708E+02  0.00000000000E+00 0. -1.
          6    2    1    2  501    0 -0.15617315840E+03 -0.65001745369E+02  0.18524106651E+03  0.31526134728E+03  0.19094549500E+03 0.  0.
         24    2    3    3    0    0 -0.25458584392E+02 -0.35355904862E+02  0.15367316813E+03  0.17747964339E+03  0.77365377842E+02 0.  0.
         -6    2    1    2    0  502  0.15617315840E+03  0.65001745369E+02  0.69915494853E+03  0.73955012918E+03  0.17175991736E+03 0.  0.
        -24    2    5    5    0    0  0.15750417573E+03  0.71741407616E+02  0.70438646326E+03  0.72971888304E+03  0.79843369804E+02 0.  0.
          5    1    3    3  501    0 -0.13071457400E+03 -0.29645840507E+02  0.31567898384E+02  0.13778170388E+03  0.47000000000E+01 0. -1.
        -11    1    4    4    0    0 -0.30676167672E+02 -0.51700963236E+02  0.14743995174E+03  0.15922486059E+03  0.00000000000E+00 0.  1.
         12    1    4    4    0    0  0.52175832800E+01  0.16345058374E+02  0.62332163919E+01  0.18254782801E+02  0.00000000000E+00 0. -1.
         -5    1    5    5    0  502 -0.13310173379E+01 -0.67396622462E+01 -0.52315147284E+01  0.98312461418E+01  0.47000000000E+01 0.  1.
         13    1    6    6    0    0  0.11732011471E+03  0.18478844953E+02  0.52655270406E+03  0.53978072138E+03  0.00000000000E+00 0. -1.
        -14    1    6    6    0    0  0.40184061029E+02  0.53262562662E+02  0.17783375920E+03  0.18993816165E+03  0.00000000000E+00 0.  1.
</event>
<event>
12    1  0.8747122E-002  0.1899184E+03  0.7818608E-02  0.1158639E+00
         21   -1    0    0  503  502  0.00000000000E+00  0.00000000000E+00  0.19072016657E+03  0.19072016657E+03  0.00000000000E+00 0. -1.
         21   -1    0    0  501  503 -0.00000000000E+00 -0.00000000000E+00 -0.19274571917E+03  0.19274571917E+03  0.00000000000E+00 0. -1.
          6    2    1    2  501    0 -0.65496448207E+02 -0.45414647203E+02 -0.28916774666E+02  0.19165314617E+03  0.17187924154E+03 0.  0.
         24    2    3    3    0    0 -0.90350475693E+02 -0.27262962208E+02  0.24909389452E+02  0.12947153881E+03  0.85064235210E+02 0.  0.
         -6    2    1    2    0  502  0.65496448207E+02  0.45414647203E+02  0.26891222072E+02  0.19181273957E+03  0.17238536576E+03 0.  0.
        -24    2    5    5    0    0  0.66889683111E+02  0.25506559025E+02 -0.40915871218E+02  0.12097373210E+03  0.88519608456E+02 0.  0.
          5    1    3    3  501    0  0.24854027486E+02 -0.18151684995E+02 -0.53826164118E+02  0.62181607362E+02  0.47000000000E+01 0. -1.
        -13    1    4    4    0    0 -0.36549384208E+02  0.36889593092E+01  0.50404309215E+02  0.62370347876E+02  0.00000000000E+00 0.  1.
         14    1    4    4    0    0 -0.53801091485E+02 -0.30951921517E+02 -0.25494919763E+02  0.67101190930E+02  0.00000000000E+00 0. -1.
         -5    1    5    5    0  502 -0.13932349041E+01  0.19908088178E+02  0.67807093290E+02  0.70839007467E+02  0.47000000000E+01 0.  1.
         11    1    6    6    0    0  0.84079853815E+02  0.16772300040E+01 -0.26013636175E+02  0.88028087478E+02  0.00000000000E+00 0. -1.
        -12    1    6    6    0    0 -0.17190170704E+02  0.23829329021E+02 -0.14902235044E+02  0.32945644624E+02  0.00000000000E+00 0.  1.
</event>
<event>
12    1  0.8747122E-002  0.2024156E+03  0.7818608E-02  0.1148497E+00
         21   -1    0    0  501  502  0.00000000000E+00  0.00000000000E+00  0.74455523796E+03  0.74455523796E+03  0.00000000000E+00 0.  1.
         21   -1    0    0  502  503 -0.00000000000E+00 -0.00000000000E+00 -0.11046862345E+03  0.11046862345E+03  0.00000000000E+00 0.  1.
         -6    2    1    2    0  503  0.99280992249E+02  0.64152978608E+01  0.12891943009E+02  0.20282571286E+03  0.17627874555E+03 0.  0.
        -24    2    3    3    0    0 -0.55513644573E+01 -0.11325065570E+02 -0.34226935741E+02  0.86434896028E+02  0.78360917323E+02 0.  0.
          6    2    1    2  501    0 -0.99280992249E+02 -0.64152978608E+01  0.62119467151E+03  0.65219814855E+03  0.17199341150E+03 0.  0.
         24    2    5    5    0    0  0.95775078864E+00 -0.91530296388E+01  0.15021666036E+03  0.17064059461E+03  0.80426812940E+02 0.  0.
          5    1    5    5  501    0 -0.10023874304E+03  0.27377317780E+01  0.47097801115E+03  0.48155755395E+03  0.47000000000E+01 0. -1.
        -11    1    6    6    0    0  0.25860609373E+02  0.11637067870E+02  0.12852444209E+03  0.13161582230E+03  0.00000000000E+00 0.  1.
         12    1    6    6    0    0 -0.24902858584E+02 -0.20790097509E+02  0.21692218277E+02  0.39024772310E+02  0.00000000000E+00 0. -1.
         -5    1    3    3    0  503  0.10483235671E+03  0.17740363431E+02  0.47118878750E+02  0.11639081683E+03  0.47000000000E+01 0.  1.
         11    1    4    4    0    0 -0.22344282850E+02 -0.38113408913E+02 -0.70421714904E+01  0.44738027386E+02  0.00000000000E+00 0. -1.
        -12    1    4    4    0    0  0.16792918393E+02  0.26788343343E+02 -0.27184764251E+02  0.41696868642E+02  0.00000000000E+00 0.  1.
</event>
<event>
12    1  0.8747122E-002  0.2168353E+03  0.7818608E-02  0.1136549E+00
         21   -1    0    0  501  502  0.00000000000E+00  0.00000000000E+00  0.21793152413E+04  0.21793152413E+04  0.00000000000E+00 0.  1.
         21   -1    0    0  502  503 -0.00000000000E+00 -0.00000000000E+00 -0.22370577996E+02  0.22370577996E+02  0.00000000000E+00 0.  1.
         -6    2    1    2    0  503 -0.57119664284E+02 -0.11684733555E+03  0.13010718094E+04  0.13187725204E+04  0.17163085780E+03 0.  0.
        -24    2    3    3    0    0  0.57570612788E+01 -0.19660055201E+02  0.81666040275E+03  0.82070088799E+03  0.78715135719E+02 0.  0.
          6    2    1    2  501    0  0.57119664284E+02  0.11684733555E+03  0.85587285387E+03  0.88291329891E+03  0.17349811389E+03 0.  0.
         24    2    5    5    0    0  0.91979101408E+02  0.13166934247E+03  0.69678670584E+03  0.71931206193E+03  0.78109910770E+02 0.  0.
          5    1    5    5  501    0 -0.34859437125E+02 -0.14822006919E+02  0.15908614803E+03  0.16360123698E+03  0.47000000000E+01 0. -1.
        -13    1    6    6    0    0  0.89121755523E+02  0.13854680985E+03  0.59892842945E+03  0.62117080536E+03  0.00000000000E+00 0.  1.
         14    1    6    6    0    0  0.28573458855E+01 -0.68774673836E+01  0.97858276397E+02  0.98141256577E+02  0.00000000000E+00 0. -1.
         -5    1    3    3    0  503 -0.62876725562E+02 -0.97187280349E+02  0.48441140664E+03  0.49807163236E+03  0.47000000000E+01 0.  1.
         13    1    4    4    0    0 -0.16924057525E+02  0.21877100068E+02  0.16305172838E+03  0.16538106710E+03  0.00000000000E+00 0. -1.
        -14    1    4    4    0    0  0.22681118804E+02 -0.41537155269E+02  0.65360867438E+03  0.65531982088E+03  0.00000000000E+00 0.  1.
</event>
<event>
12    1  0.8747122E-002  0.2631803E+03  0.7818608E-02  0.1106120E+00
         21   -1    0    0  501  502  0.00000000000E+00  0.00000000000E+00  0.53413645900E+03  0.53413645900E+03  0.00000000000E+00 0.  1.
         21   -1    0    0  502  503 -0.00000000000E+00 -0.00000000000E+00 -0.14054041750E+03  0.14054041750E+03  0.00000000000E+00 0. -1.
         -6    2    1    2    0  503 -0.17026085575E+03  0.89515974386E+02  0.30021609799E+03  0.39542129091E+03  0.17095737230E+03 0.  0.
        -24    2    3    3    0    0 -0.22313105205E+02  0.65233737356E+02  0.89540790221E+02  0.13680122358E+03  0.77095437640E+02 0.  0.
          6    2    1    2  501    0  0.17026085575E+03 -0.89515974386E+02  0.93379943511E+02  0.27925558559E+03  0.17961625640E+03 0.  0.
         24    2    5    5    0    0  0.72466985823E+02  0.20270343152E+02  0.77811723846E+01  0.10906182504E+03  0.78559430946E+02 0.  0.
          5    1    5    5  501    0  0.97793869922E+02 -0.10978631754E+03  0.85598771127E+02  0.17019376055E+03  0.47000000000E+01 0. -1.
        -13    1    6    6    0    0  0.58844175802E+02  0.38337651427E+02  0.30885775164E+02  0.76722510714E+02  0.00000000000E+00 0.  1.
         14    1    6    6    0    0  0.13622810021E+02 -0.18067308275E+02 -0.23104602780E+02  0.32339314321E+02  0.00000000000E+00 0. -1.
         -5    1    3    3    0  503 -0.14794775054E+03  0.24282237030E+02  0.21067530777E+03  0.25862006734E+03  0.47000000000E+01 0.  1.
         13    1    4    4    0    0 -0.13744699314E+02  0.34461513532E+02 -0.46030935678E+01  0.37385841498E+02  0.00000000000E+00 0. -1.
        -14    1    4    4    0    0 -0.85684058909E+01  0.30772223824E+02  0.94143883789E+02  0.99415382077E+02  0.00000000000E+00 0.  1.
</event>
<event>
12    1  0.8747122E-002  0.1735905E+03  0.7818608E-02  0.1174352E+00
         21   -1    0    0  501  502  0.00000000000E+00  0.00000000000E+00  0.33049275953E+03  0.33049275953E+03  0.00000000000E+00 0.  1.
         21   -1    0    0  502  503 -0.00000000000E+00 -0.00000000000E+00 -0.37537266213E+03  0.37537266213E+03  0.00000000000E+00 0.  1.
         -6    2    1    2    0  503 -0.18165618844E+02 -0.11204373590E+02 -0.32976443458E+03  0.37266373295E+03  0.17227346821E+03 0.  0.
        -24    2    3    3    0    0  0.36113291264E+02  0.33463927096E+02 -0.11987449159E+03  0.15126514367E+03  0.78020803199E+02 0.  0.
          6    2    1    2  501    0  0.18165618844E+02  0.11204373590E+02  0.28488453199E+03  0.33320168870E+03  0.17148947808E+03 0.  0.
         24    2    5    5    0    0  0.21239350669E+02 -0.82593480770E+01  0.33961285822E+02  0.81462041936E+02  0.70451178089E+02 0.  0.
          5    1    5    5  501    0 -0.30737318252E+01  0.19463721667E+02  0.25092324617E+03  0.25173964677E+03  0.47000000000E+01 0. -1.
        -13    1    6    6    0    0  0.12849778121E+02 -0.19292780877E+02  0.53037543646E+02  0.57881855773E+02  0.00000000000E+00 0.  1.
         14    1    6    6    0    0  0.83895725480E+01  0.11033432799E+02 -0.19076257824E+02  0.23580186163E+02  0.00000000000E+00 0. -1.
         -5    1    3    3    0  503 -0.54278910108E+02 -0.44668300686E+02 -0.20988994299E+03  0.22139858929E+03  0.47000000000E+01 0.  1.
         11    1    4    4    0    0  0.55979115966E+02  0.10374811195E+02 -0.99446210983E+02  0.11458990798E+03  0.00000000000E+00 0. -1.
        -12    1    4    4    0    0 -0.19865824702E+02  0.23089115901E+02 -0.20428280605E+02  0.36675235687E+02  0.00000000000E+00 0.  1.
</event>
<event>
12    1  0.8747122E-002  0.2836401E+03  0.7818608E-02  0.1093726E+00
         21   -1    0    0  503  502  0.00000000000E+00  0.00000000000E+00  0.33377004819E+03  0.33377004819E+03  0.00000000000E+00 0. -1.
         21   -1    0    0  501  503 -0.00000000000E+00 -0.00000000000E+00 -0.78452698027E+03  0.78452698027E+03  0.00000000000E+00 0.  1.
          6    2    1    2  501    0  0.21332479981E+03  0.72703384292E+02 -0.69078461242E+03  0.74672602889E+03  0.17211370999E+03 0.  0.
         24    2    3    3    0    0  0.18946511330E+03  0.60893423020E+02 -0.68682178573E+03  0.71940289180E+03  0.78811910607E+02 0.  0.
         -6    2    1    2    0  502 -0.21332479981E+03 -0.72703384292E+02  0.24002768035E+03  0.37157099956E+03  0.17221634093E+03 0.  0.
        -24    2    5    5    0    0 -0.42440481570E+02 -0.83804960772E+01  0.12945100145E+03  0.15805712160E+03  0.79706114703E+02 0.  0.
          5    1    3    3  501    0  0.23859686507E+02  0.11809961273E+02 -0.39628266986E+01  0.27323137099E+02  0.47000000000E+01 0. -1.
        -11    1    4    4    0    0  0.14693108872E+03  0.17410831541E+02 -0.40736559670E+03  0.43340352013E+03  0.00000000000E+00 0.  1.
         12    1    4    4    0    0  0.42534024582E+02  0.43482591479E+02 -0.27945618902E+03  0.28599937167E+03  0.00000000000E+00 0. -1.
         -5    1    5    5    0  502 -0.17088431824E+03 -0.64322888215E+02  0.11057667890E+03  0.21351387797E+03  0.47000000000E+01 0.  1.
         13    1    6    6    0    0 -0.31587410891E+02  0.32631482248E+02  0.86438328506E+02  0.97643037618E+02  0.00000000000E+00 0. -1.
        -14    1    6    6    0    0 -0.10853070679E+02 -0.41011978325E+02  0.43012672943E+02  0.60414083979E+02  0.00000000000E+00 0.  1.
</event>
<event>
12    1  0.8747122E-002  0.1762698E+03  0.7818608E-02  0.1172260E+00
         21   -1    0    0  501  502  0.00000000000E+00  0.00000000000E+00  0.25904534287E+03  0.25904534287E+03  0.00000000000E+00 0. -1.
         21   -1    0    0  502  503 -0.00000000000E+00 -0.00000000000E+00 -0.54330711794E+03  0.54330711794E+03  0.00000000000E+00 0. -1.
         -6    2    1    2    0  503 -0.10055631356E+02 -0.24055807020E+02 -0.49688122483E+03  0.52616758377E+03  0.17111860521E+03 0.  0.
        -24    2    3    3    0    0 -0.62047049211E+02 -0.22610912621E+01 -0.23926999072E+03  0.26241816651E+03  0.88080740268E+02 0.  0.
          6    2    1    2  501    0  0.10055631356E+02  0.24055807020E+02  0.21261944977E+03  0.27618487704E+03  0.17433088743E+03 0.  0.
         24    2    5    5    0    0  0.58460592820E+02  0.16112928147E+02  0.20263060716E+03  0.22590569054E+03  0.79353328165E+02 0.  0.
          5    1    5    5  501    0 -0.48404961463E+02  0.79428788737E+01  0.99888426036E+01  0.50279186505E+02  0.47000000000E+01 0.  1.
        -13    1    6    6    0    0  0.60729974888E+02  0.41675381488E+02  0.13931507654E+03  0.15758698494E+03  0.00000000000E+00 0.  1.
         14    1    6    6    0    0 -0.22693820680E+01 -0.25562453342E+02  0.63315530624E+02  0.68318705594E+02  0.00000000000E+00 0. -1.
         -5    1    3    3    0  503  0.51991417855E+02 -0.21794715758E+02 -0.25761123411E+03  0.26374941726E+03  0.47000000000E+01 0.  1.
         13    1    4    4    0    0  0.13714559558E+02  0.23047800968E+02 -0.77352467755E+02  0.81869985594E+02  0.00000000000E+00 0. -1.
        -14    1    4    4    0    0 -0.75761608770E+02 -0.25308892230E+02 -0.16191752296E+03  0.18054818091E+03  0.00000000000E+00 0.  1.
</event>
<event>
12    1  0.8747122E-002  0.2040070E+03  0.7818608E-02  0.1146601E+00
         21   -1    0    0  501  502  0.00000000000E+00  0.00000000000E+00  0.58687261456E+03  0.58687261456E+03  0.00000000000E+00 0.  1.
         21   -1    0    0  502  503 -0.00000000000E+00 -0.00000000000E+00 -0.74793972127E+02  0.74793972127E+02  0.00000000000E+00 0.  1.
         -6    2    1    2    0  503 -0.10777961303E+03 -0.24409950125E+02  0.33398296234E+03  0.39085868154E+03  0.17033378748E+03 0.  0.
        -24    2    3    3    0    0 -0.86421468760E+02 -0.35136349573E+02  0.10389095195E+03  0.15948096175E+03  0.77055914379E+02 0.  0.
          6    2    1    2  501    0  0.10777961303E+03  0.24409950125E+02  0.17809568010E+03  0.27080790514E+03  0.17148340902E+03 0.  0.
         24    2    5    5    0    0  0.10963781610E+02  0.48457460601E+02  0.47792689967E+02  0.10663559563E+03  0.81355264407E+02 0.  0.
          5    1    5    5  501    0  0.96815831416E+02 -0.24047510475E+02  0.13030299013E+03  0.16417230951E+03  0.47000000000E+01 0. -1.
        -11    1    6    6    0    0  0.36613302392E+02  0.56264705031E+02  0.25647920449E+02  0.71861441453E+02  0.00000000000E+00 0.  1.
         12    1    6    6    0    0 -0.25649520782E+02 -0.78072444306E+01  0.22144769518E+02  0.34774154181E+02  0.00000000000E+00 0. -1.
         -5    1    3    3    0  503 -0.21358144266E+02  0.10726399448E+02  0.23009201039E+03  0.23137771979E+03  0.47000000000E+01 0.  1.
         13    1    4    4    0    0 -0.39655725145E+02 -0.11852467793E+02 -0.19651031903E+01  0.41435723237E+02  0.00000000000E+00 0. -1.
        -14    1    4    4    0    0 -0.46765743615E+02 -0.23283881780E+02  0.10585605514E+03  0.11804523852E+03  0.00000000000E+00 0.  1.
</event>
<event>
12    1  0.8747122E-002  0.1911122E+03  0.7818608E-02  0.1157463E+00
         21   -1    0    0  503  502  0.00000000000E+00  0.00000000000E+00  0.34646700091E+03  0.34646700091E+03  0.00000000000E+00 0.  1.
         21   -1    0    0  501  503 -0.00000000000E+00 -0.00000000000E+00 -0.12396795977E+03  0.12396795977E+03  0.00000000000E+00 0.  1.
          6    2    1    2  501    0  0.34229968688E+02  0.75814332920E+02  0.20251424202E+02  0.19217615316E+03  0.17205246244E+03 0.  0.
         24    2    3    3    0    0 -0.22055589123E+02  0.71766545338E+02  0.59009746802E+02  0.12355584878E+03  0.78402879473E+02 0.  0.
         -6    2    1    2    0  502 -0.34229968688E+02 -0.75814332920E+02  0.20224761694E+03  0.27825880752E+03  0.17205918043E+03 0.  0.
        -24    2    5    5    0    0  0.11602547912E+02  0.64672159109E+01  0.15206995088E+03  0.17143764375E+03  0.78033016964E+02 0.  0.
          5    1    3    3  501    0  0.56285557811E+02  0.40477875813E+01 -0.38758322600E+02  0.68620304380E+02  0.47000000000E+01 0. -1.
        -13    1    4    4    0    0  0.20590724420E+02  0.48745171146E+02  0.85669778848E+01  0.53604689648E+02  0.00000000000E+00 0.  1.
         14    1    4    4    0    0 -0.42646313542E+02  0.23021374193E+02  0.50442768917E+02  0.69951159136E+02  0.00000000000E+00 0. -1.
         -5    1    5    5    0  502 -0.45832516601E+02 -0.82281548830E+02  0.50177666066E+02  0.10682116376E+03  0.47000000000E+01 0.  1.
         11    1    6    6    0    0 -0.18739533627E+02 -0.73170799269E+01  0.51236289511E+01  0.20759608687E+02  0.00000000000E+00 0. -1.
        -12    1    6    6    0    0  0.30342081540E+02  0.13784295838E+02  0.14694632193E+03  0.15067803507E+03  0.00000000000E+00 0.  1.
</event>
<event>
12    1  0.8747122E-002  0.2779385E+03  0.7818608E-02  0.1097055E+00
         21   -1    0    0  503  502  0.00000000000E+00  0.00000000000E+00  0.13059613588E+03  0.13059613588E+03  0.00000000000E+00 0. -1.
         21   -1    0    0  501  503 -0.00000000000E+00 -0.00000000000E+00 -0.58902993090E+03  0.58902993090E+03  0.00000000000E+00 0.  1.
          6    2    1    2  501    0  0.15661546364E+03 -0.15165665055E+03 -0.24425193819E+03  0.36873619085E+03  0.16964441055E+03 0.  0.
         24    2    3    3    0    0  0.11185444344E+03 -0.30487828614E+02 -0.89585150517E+02  0.16716898730E+03  0.80492527061E+02 0.  0.
         -6    2    1    2    0  502 -0.15661546364E+03  0.15165665055E+03 -0.21418185684E+03  0.35088987593E+03  0.17239980895E+03 0.  0.
        -24    2    5    5    0    0 -0.33349098675E+02  0.23296488216E+02 -0.32180985875E+02  0.96297387754E+02  0.81133730905E+02 0.  0.
          5    1    3    3  501    0  0.44761020206E+02 -0.12116882193E+03 -0.15466678767E+03  0.20156720355E+03  0.47000000000E+01 0. -1.
        -13    1    4    4    0    0  0.78089587429E+01  0.20354522216E+02 -0.18420845144E+01  0.21878749659E+02  0.00000000000E+00 0.  1.
         14    1    4    4    0    0  0.10404548469E+03 -0.50842350830E+02 -0.87743066003E+02  0.14529023764E+03  0.00000000000E+00 0. -1.
         -5    1    5    5    0  502 -0.12326636497E+03  0.12836016233E+03 -0.18200087096E+03  0.25459248818E+03  0.47000000000E+01 0.  1.
         11    1    6    6    0    0  0.14338311437E+02 -0.59212279515E+01  0.16140801814E+02  0.22386906855E+02  0.00000000000E+00 0. -1.
        -12    1    6    6    0    0 -0.47687410112E+02  0.29217716168E+02 -0.48321787689E+02  0.73910480899E+02  0.00000000000E+00 0.  1.
</event>
<event>
12    1  0.8747122E-002  0.2020464E+03  0.7818608E-02  0.1148052E+00
         21   -1    0    0  503  502  0.00000000000E+00  0.00000000000E+00  0.36544291861E+03  0.36544291861E+03  0.00000000000E+00 0.  1.
         21   -1    0    0  501  503 -0.00000000000E+00 -0.00000000000E+00 -0.11904393707E+03  0.11904393707E+03  0.00000000000E+00 0. -1.
          6    2    1    2  501    0 -0.35009007706E+02  0.10120206822E+03  0.18367678105E+03  0.27305659191E+03  0.17133374815E+03 0.  0.
         24    2    3    3    0    0  0.23724076256E+02  0.10923100258E+03  0.96089352707E+02  0.16719023020E+03  0.78899718955E+02 0.  0.
         -6    2    1    2    0  502  0.35009007706E+02 -0.10120206822E+03  0.62722200484E+02  0.21143026377E+03  0.17117591178E+03 0.  0.
        -24    2    5    5    0    0 -0.46010753896E+02 -0.42836872349E+02  0.40806579487E+02  0.10909218531E+03  0.79271311711E+02 0.  0.
          5    1    3    3  501    0 -0.58733083961E+02 -0.80289343529E+01  0.87587428347E+02  0.10586636172E+03  0.47000000000E+01 0. -1.
        -13    1    4    4    0    0 -0.29319480991E+02  0.38099172685E+02  0.34836426896E+02  0.59369651875E+02  0.00000000000E+00 0.  1.
         14    1    4    4    0    0  0.53043557246E+02  0.71131829891E+02  0.61252925812E+02  0.10782057832E+03  0.00000000000E+00 0. -1.
         -5    1    5    5    0  502  0.81019761601E+02 -0.58365195875E+02  0.21915620997E+02  0.10233807846E+03  0.47000000000E+01 0.  1.
         13    1    6    6    0    0 -0.40733648866E+02 -0.30930057879E+02 -0.13783041214E+02  0.52970471542E+02  0.00000000000E+00 0. -1.
        -14    1    6    6    0    0 -0.52771050297E+01 -0.11906814470E+02  0.54589620701E+02  0.56121713771E+02  0.00000000000E+00 0.  1.
</event>
<event>
12    1  0.8747122E-002  0.3678030E+03  0.7818608E-02  0.1055559E+00
         21   -1    0    0  501  502  0.00000000000E+00  0.00000000000E+00  0.31963412428E+03  0.31963412428E+03  0.00000000000E+00 0.  1.
         21   -1    0    0  502  503 -0.00000000000E+00 -0.00000000000E+00 -0.42490018492E+03  0.42490018492E+03  0.00000000000E+00 0. -1.
         -6    2    1    2    0  503  0.69009541336E+02  0.31768883266E+03 -0.77777604418E+02  0.37570557372E+03  0.17151329740E+03 0.  0.
        -24    2    3    3    0    0  0.39472581231E+00  0.87293471232E+02 -0.64995734097E+02  0.13492459091E+03  0.79748942643E+02 0.  0.
          6    2    1    2  501    0 -0.69009541336E+02 -0.31768883266E+03 -0.27488456223E+02  0.36882873548E+03  0.17201892250E+03 0.  0.
         24    2    5    5    0    0 -0.33324895260E+02 -0.17769609938E+03  0.51079159380E+02  0.20431028801E+03  0.80294214518E+02 0.  0.
          5    1    5    5  501    0 -0.35684646076E+02 -0.13999273328E+03 -0.78567615602E+02  0.16451844747E+03  0.47000000000E+01 0. -1.
        -13    1    6    6    0    0 -0.27781249240E+02 -0.18572042769E+03  0.50870180518E+02  0.19455500594E+03  0.00000000000E+00 0.  1.
         14    1    6    6    0    0 -0.55436460200E+01  0.80243283124E+01  0.20897886160E+00  0.97552820679E+01  0.00000000000E+00 0. -1.
         -5    1    3    3    0  503  0.68614815524E+02  0.23039536143E+03 -0.12781870321E+02  0.24078098282E+03  0.47000000000E+01 0.  1.
         11    1    4    4    0    0  0.35165658755E+02  0.30099743373E+02 -0.46205889377E+02  0.65403381563E+02  0.00000000000E+00 0. -1.
        -12    1    4    4    0    0 -0.34770932943E+02  0.57193727859E+02 -0.18789844720E+02  0.69521209345E+02  0.00000000000E+00 0.  1.
</event>
<event>
12    1  0.8747122E-002  0.4311177E+03  0.7818608E-02  0.1033637E+00
         21   -1    0    0  503  502  0.00000000000E+00  0.00000000000E+00  0.65525255757E+02  0.65525255757E+02  0.00000000000E+00 0.  1.
         21   -1    0    0  501  503 -0.00000000000E+00 -0.00000000000E+00 -0.28775193343E+04  0.28775193343E+04  0.00000000000E+00 0.  1.
          6    2    1    2  501    0 -0.39354614306E+03 -0.45693468485E+02 -0.16061406992E+04  0.16629944127E+04  0.16998826823E+03 0.  0.
         24    2    3    3    0    0 -0.38819327539E+03 -0.69119731559E+02 -0.15567837895E+04  0.16078977928E+04  0.79296837402E+02 0.  0.
         -6    2    1    2    0  502  0.39354614306E+03  0.45693468485E+02 -0.12058533794E+04  0.12800501774E+04  0.16576979294E+03 0.  0.
        -24    2    5    5    0    0  0.79874671556E+02  0.73181031293E+01 -0.28245117773E+03  0.30406033280E+03  0.78996837851E+02 0.  0.
          5    1    3    3  501    0 -0.53528676700E+01  0.23426263074E+02 -0.49356909690E+02  0.55096619933E+02  0.47000000000E+01 0. -1.
        -13    1    4    4    0    0 -0.14814372747E+03 -0.41222158486E+02 -0.75433637389E+03  0.76985011224E+03  0.00000000000E+00 0.  1.
         14    1    4    4    0    0 -0.24004954792E+03 -0.27897573073E+02 -0.80244741559E+03  0.83804768052E+03  0.00000000000E+00 0. -1.
         -5    1    5    5    0  502  0.31367147150E+03  0.38375365355E+02 -0.92340220165E+03  0.97598984458E+03  0.47000000000E+01 0.  1.
         13    1    6    6    0    0  0.56530227712E+02  0.31118336377E+01 -0.27253022756E+03  0.27834883705E+03  0.00000000000E+00 0. -1.
        -14    1    6    6    0    0  0.23344443844E+02  0.42062694916E+01 -0.99209501758E+01  0.25711495752E+02  0.00000000000E+00 0.  1.
</event>
<event>
12    1  0.8747122E-002  0.1779268E+03  0.7818608E-02  0.1170247E+00
         21   -1    0    0  501  502  0.00000000000E+00  0.00000000000E+00  0.11192530278E+04  0.11192530278E+04  0.00000000000E+00 0.  1.
         21   -1    0    0  502  503 -0.00000000000E+00 -0.00000000000E+00 -0.35132830264E+02  0.35132830264E+02  0.00000000000E+00 0.  1.
         -6    2    1    2    0  503 -0.42276381368E+02  0.17451702928E+02  0.80396187585E+03  0.82341523982E+03  0.17194797176E+03 0.  0.
        -24    2    3    3    0    0 -0.33806006466E+01 -0.27640534856E+02  0.21232963014E+03  0.22877501597E+03  0.80490424684E+02 0.  0.
          6    2    1    2  501    0  0.42276381368E+02 -0.17451702928E+02  0.28015832171E+03  0.33097061826E+03  0.17017934826E+03 0.  0.
         24    2    5    5    0    0  0.93625359677E+02 -0.14831858024E+02  0.21563532284E+03  0.24833352887E+03  0.78646405620E+02 0.  0.
          5    1    5    5  501    0 -0.51348978310E+02 -0.26198449041E+01  0.64522998862E+02  0.82637089391E+02  0.47000000000E+01 0. -1.
        -13    1    6    6    0    0  0.27460102970E+02 -0.34966289052E+02  0.40908990022E+02  0.60417249936E+02  0.00000000000E+00 0.  1.
         14    1    6    6    0    0  0.66165256707E+02  0.20134431028E+02  0.17472633282E+03  0.18791627894E+03  0.00000000000E+00 0. -1.
         -5    1    3    3    0  503 -0.38895780721E+02  0.45092237784E+02  0.59163224571E+03  0.59464022386E+03  0.47000000000E+01 0.  1.
         13    1    4    4    0    0 -0.20789440380E+02 -0.19368353443E+02  0.20677256572E+03  0.20871566276E+03  0.00000000000E+00 0. -1.
        -14    1    4    4    0    0  0.17408839734E+02 -0.82721814131E+01  0.55570644268E+01  0.20059353211E+02  0.00000000000E+00 0.  1.
</event>
<event>
12    1  0.8747122E-002  0.2056292E+03  0.7818608E-02  0.1145482E+00
         21   -1    0    0  503  502  0.00000000000E+00  0.00000000000E+00  0.49366634621E+02  0.49366634621E+02  0.00000000000E+00 0.  1.
         21   -1    0    0  501  503 -0.00000000000E+00 -0.00000000000E+00 -0.27555068968E+04  0.27555068968E+04  0.00000000000E+00 0.  1.
          6    2    1    2  501    0 -0.79360327048E+02  0.79063576710E+02 -0.25178169014E+04  0.25260383847E+04  0.17005546419E+03 0.  0.
         24    2    3    3    0    0  0.12843298687E+02  0.73143636646E+02 -0.12886987316E+04  0.12934435121E+04  0.82077746058E+02 0.  0.
         -6    2    1    2    0  502  0.79360327048E+02 -0.79063576710E+02 -0.18832336074E+03  0.27883514676E+03  0.17243619168E+03 0.  0.
        -24    2    5    5    0    0 -0.18705153605E+02 -0.65579616584E+02 -0.10228282862E+03  0.14759598019E+03  0.81683703730E+02 0.  0.
          5    1    3    3  501    0 -0.92203625735E+02  0.59199400638E+01 -0.12291181699E+04  0.12325948725E+04  0.47000000000E+01 0. -1.
        -13    1    4    4    0    0 -0.23860065417E+02  0.60283107014E+02 -0.10053338511E+04  0.10074222093E+04  0.00000000000E+00 0.  1.
         14    1    4    4    0    0  0.36703364104E+02  0.12860529632E+02 -0.28336488048E+03  0.28602130279E+03  0.00000000000E+00 0. -1.
         -5    1    5    5    0  502  0.98065480652E+02 -0.13483960126E+02 -0.86040532118E+02  0.13123916658E+03  0.47000000000E+01 0.  1.
         13    1    6    6    0    0 -0.29052136612E+01  0.12684500258E+02 -0.51158807716E+02  0.52787881375E+02  0.00000000000E+00 0. -1.
        -14    1    6    6    0    0 -0.15799939943E+02 -0.78264116842E+02 -0.51124020903E+02  0.94808098813E+02  0.00000000000E+00 0.  1.
</event>
<event>
12    1  0.8747122E-002  0.2854961E+03  0.7818608E-02  0.1092853E+00
         21   -1    0    0  501  502  0.00000000000E+00  0.00000000000E+00  0.58683850568E+03  0.58683850568E+03  0.00000000000E+00 0.  1.
         21   -1    0    0  502  503 -0.00000000000E+00 -0.00000000000E+00 -0.18496100972E+03  0.18496100972E+03  0.00000000000E+00 0.  1.
         -6    2    1    2    0  503  0.16517947092E+03 -0.15533699681E+03  0.71141153834E+01  0.28461769225E+03  0.17188013239E+03 0.  0.
        -24    2    3    3    0    0  0.14232999071E+03 -0.37152240126E+02  0.21687349945E+02  0.16327435858E+03  0.67454131247E+02 0.  0.
          6    2    1    2  501    0 -0.16517947092E+03  0.15533699681E+03  0.39476338058E+03  0.48718182315E+03  0.17347669001E+03 0.  0.
         24    2    5    5    0    0 -0.85387214582E+02  0.45299381326E+02  0.91060868473E+02  0.15441706112E+03  0.78800613169E+02 0.  0.
          5    1    5    5  501    0 -0.79792256342E+02  0.11003761548E+03  0.30370251210E+03  0.33276476203E+03  0.47000000000E+01 0. -1.
        -11    1    6    6    0    0 -0.44800150219E+02  0.15380329480E+02  0.92555868542E+02  0.10397209624E+03  0.00000000000E+00 0.  1.
         12    1    6    6    0    0 -0.40587064362E+02  0.29919051846E+02 -0.14950000683E+01  0.50444964884E+02  0.00000000000E+00 0. -1.
         -5    1    3    3    0  503  0.22849480216E+02 -0.11818475668E+03 -0.14573234562E+02  0.12134333366E+03  0.47000000000E+01 0.  1.
         11    1    4    4    0    0  0.22675342773E+02  0.18895670115E+02  0.99710689552E+00  0.29533231133E+02  0.00000000000E+00 0. -1.
        -12    1    4    4    0    0  0.11965464793E+03 -0.56047910240E+02  0.20690243049E+02  0.13374112745E+03  0.00000000000E+00 0.  1.
</event>
<event>
12    1  0.8747122E-002  0.1862186E+03  0.7818608E-02  0.1162228E+00
         21   -1    0    0  501  502  0.00000000000E+00  0.00000000000E+00  0.79154031466E+02  0.79154031466E+02  0.00000000000E+00 0.  1.
         21   -1    0    0  502  503 -0.00000000000E+00 -0.00000000000E+00 -0.44300541490E+03  0.44300541490E+03  0.00000000000E+00 0.  1.
         -6    2    1    2    0  503 -0.66129564040E+02 -0.12271041737E+02 -0.21647879966E+03  0.28468089520E+03  0.17221046335E+03 0.  0.
        -24    2    3    3    0    0 -0.30256806694E+02 -0.62848563893E+01 -0.23005471659E+03  0.24557738315E+03  0.80175462069E+02 0.  0.
          6    2    1    2  501    0  0.66129564040E+02  0.12271041737E+02 -0.14737258378E+03  0.23747855116E+03  0.17364816759E+03 0.  0.
         24    2    5    5    0    0  0.27939206407E+02 -0.50513359328E+02 -0.36667932580E+02  0.10451993268E+03  0.79042269211E+02 0.  0.
          5    1    5    5  501    0  0.38190357633E+02  0.62784401065E+02 -0.11070465120E+03  0.13295861849E+03  0.47000000000E+01 0. -1.
        -13    1    6    6    0    0 -0.22482250936E+02 -0.40468340262E+02 -0.20456032574E+02  0.50612127395E+02  0.00000000000E+00 0.  1.
         14    1    6    6    0    0  0.50421457343E+02 -0.10045019066E+02 -0.16211900006E+02  0.53907805283E+02  0.00000000000E+00 0. -1.
         -5    1    3    3    0  503 -0.35872757346E+02 -0.59861853481E+01  0.13575916929E+02  0.39103512055E+02  0.47000000000E+01 0.  1.
         11    1    4    4    0    0 -0.12187572163E+02 -0.41486131092E+02 -0.87018515423E+02  0.97169223598E+02  0.00000000000E+00 0. -1.
        -12    1    4    4    0    0 -0.18069234531E+02  0.35201274702E+02 -0.14303620116E+03  0.14840815955E+03  0.00000000000E+00 0.  1.
</event>
<event>
12    1  0.8747122E-002  0.2389812E+03  0.7818608E-02  0.1122142E+00
         21   -1    0    0  503  502  0.00000000000E+00  0.00000000000E+00  0.76973175562E+02  0.76973175562E+02  0.00000000000E+00 0.  1.
         21   -1    0    0  501  503 -0.00000000000E+00 -0.00000000000E+00 -0.12328933771E+04  0.12328933771E+04  0.00000000000E+00 0. -1.
          6    2    1    2  501    0  0.94464594516E+02 -0.11847685784E+03 -0.14537193357E+03  0.27144475440E+03  0.17201433126E+03 0.  0.
         24    2    3    3    0    0  0.97296076076E+02 -0.15172246487E+03 -0.14240230948E+03  0.23761878298E+03  0.60811475180E+02 0.  0.
         -6    2    1    2    0  502 -0.94464594516E+02  0.11847685784E+03 -0.10105482680E+04  0.10384217983E+04  0.18480179586E+03 0.  0.
        -24    2    5    5    0    0 -0.53839690941E+02  0.66297600785E+02 -0.26280148317E+03  0.28774183860E+03  0.80228809892E+02 0.  0.
          5    1    3    3  501    0 -0.28314815595E+01  0.33245607033E+02 -0.29696240876E+01  0.33825971413E+02  0.47000000000E+01 0. -1.
        -13    1    4    4    0    0  0.43591010349E+02 -0.36166902924E+02 -0.73388177479E+02  0.92704075661E+02  0.00000000000E+00 0.  1.
         14    1    4    4    0    0  0.53705065726E+02 -0.11555556195E+03 -0.69014132001E+02  0.14491470732E+03  0.00000000000E+00 0. -1.
         -5    1    5    5    0  502 -0.40624903575E+02  0.52179257057E+02 -0.74774678479E+03  0.75067995965E+03  0.47000000000E+01 0.  1.
         11    1    6    6    0    0 -0.32941719038E+02  0.34243841583E+02 -0.23670132256E+03  0.24142351510E+03  0.00000000000E+00 0. -1.
        -12    1    6    6    0    0 -0.20897971904E+02  0.32053759202E+02 -0.26100160607E+02  0.46318323505E+02  0.00000000000E+00 0.  1.
</event>
<event>
12    1  0.8747122E-002  0.2844455E+03  0.7818608E-02  0.1093555E+00
         21   -1    0    0  501  502  0.00000000000E+00  0.00000000000E+00  0.52353235068E+03  0.52353235068E+03  0.00000000000E+00 0. -1.
         21   -1    0    0  502  503 -0.00000000000E+00 -0.00000000000E+00 -0.22945700784E+03  0.22945700784E+03  0.00000000000E+00 0. -1.
         -6    2    1    2    0  503  0.20044197754E+03 -0.10362749495E+03 -0.69292633556E+02  0.29276393913E+03  0.17318663608E+03 0.  0.
        -24    2    3    3    0    0  0.18580731654E+03 -0.24394236331E+02 -0.46140364815E+02  0.20879846931E+03  0.79677034805E+02 0.  0.
          6    2    1    2  501    0 -0.20044197754E+03  0.10362749495E+03  0.36336797640E+03  0.46022541940E+03  0.16986908581E+03 0.  0.
         24    2    5    5    0    0 -0.14006877207E+03  0.59657039249E+02  0.34082908618E+03  0.38206906018E+03  0.81449846645E+02 0.  0.
          5    1    5    5  501    0 -0.60373205470E+02  0.43970455699E+02  0.22538890216E+02  0.78156359211E+02  0.47000000000E+01 0. -1.
        -13    1    6    6    0    0 -0.19117858759E+02 -0.16906873541E+02  0.86909719718E+02  0.90579436286E+02  0.00000000000E+00 0.  1.
         14    1    6    6    0    0 -0.12095091331E+03  0.76563912790E+02  0.25391936647E+03  0.29148962390E+03  0.00000000000E+00 0. -1.
         -5    1    3    3    0  503  0.14634661005E+02 -0.79233258617E+02 -0.23152268741E+02  0.83965469817E+02  0.47000000000E+01 0.  1.
         11    1    4    4    0    0  0.74680962737E+02 -0.46396513480E+02 -0.36196606713E+02  0.95079319497E+02  0.00000000000E+00 0. -1.
        -12    1    4    4    0    0  0.11112635380E+03  0.22002277150E+02 -0.99437581018E+01  0.11371914981E+03  0.00000000000E+00 0.  1.
</event>
<event>
12    1  0.8747122E-002  0.2213487E+03  0.7818608E-02  0.1133449E+00
         21   -1    0    0  501  502  0.00000000000E+00  0.00000000000E+00  0.15148257934E+03  0.15148257934E+03  0.00000000000E+00 0. -1.
         21   -1    0    0  502  503 -0.00000000000E+00 -0.00000000000E+00 -0.36353791029E+03  0.36353791029E+03  0.00000000000E+00 0. -1.
         -6    2    1    2    0  503  0.19950227495E+01 -0.13923471370E+03 -0.16541890842E+02  0.22196591282E+03  0.17206088076E+03 0.  0.
        -24    2    3    3    0    0 -0.93410446210E+01 -0.14086181763E+03  0.37552101736E+02  0.16647353565E+03  0.79837152678E+02 0.  0.
          6    2    1    2  501    0 -0.19950227495E+01  0.13923471370E+03 -0.19551344011E+03  0.29305457681E+03  0.16812255682E+03 0.  0.
         24    2    5    5    0    0  0.16542952388E+02  0.10227515047E+02 -0.44415091668E+02  0.93456694240E+02  0.79894818309E+02 0.  0.
          5    1    5    5  501    0 -0.18537975137E+02  0.12900719865E+03 -0.15109834844E+03  0.19959788257E+03  0.47000000000E+01 0. -1.
        -13    1    6    6    0    0  0.87064313314E+01  0.16637117633E+02 -0.66532934172E+02  0.69131953243E+02  0.00000000000E+00 0.  1.
         14    1    6    6    0    0  0.78365210566E+01 -0.64096025862E+01  0.22117842503E+02  0.24324740997E+02  0.00000000000E+00 0. -1.
         -5    1    3    3    0  503  0.11336067370E+02  0.16271039297E+01 -0.54093992578E+02  0.55492377167E+02  0.47000000000E+01 0.  1.
         11    1    4    4    0    0 -0.17153127963E+02 -0.60768825821E+02 -0.21450817899E+02  0.66687461934E+02  0.00000000000E+00 0. -1.
        -12    1    4    4    0    0  0.78120833419E+01 -0.80092991805E+02  0.59002919635E+02  0.99786073717E+02  0.00000000000E+00 0.  1.
</event>
<event>
12    1  0.8747122E-002  0.1756334E+03  0.7818608E-02  0.1172107E+00
         21   -1    0    0  503  502  0.00000000000E+00  0.00000000000E+00  0.12683118267E+03  0.12683118267E+03  0.00000000000E+00 0. -1.
         21   -1    0    0  501  503 -0.00000000000E+00 -0.00000000000E+00 -0.62851278093E+03  0.62851278093E+03  0.00000000000E+00 0. -1.
          6    2    1    2  501    0  0.26436649622E+02 -0.11953484747E+02 -0.54655456351E+03  0.57406884848E+03  0.17318016531E+03 0.  0.
         24    2    3    3    0    0  0.18088934583E+02  0.55527150012E+02 -0.22591554380E+03  0.24626587202E+03  0.78731015799E+02 0.  0.
         -6    2    1    2    0  502 -0.26436649622E+02  0.11953484747E+02  0.44872965241E+02  0.18127511513E+03  0.17322038596E+03 0.  0.
        -24    2    5    5    0    0 -0.19892034912E+02  0.72210028025E+02  0.53054987836E+01  0.10873990029E+03  0.78652631215E+02 0.  0.
          5    1    3    3  501    0  0.83477150383E+01 -0.67480634759E+02 -0.32063901971E+03  0.32780297646E+03  0.47000000000E+01 0. -1.
        -13    1    4    4    0    0  0.91788827149E+01  0.28881352884E+02 -0.15604535093E+02  0.34086448154E+02  0.00000000000E+00 0.  1.
         14    1    4    4    0    0  0.89100518686E+01  0.26645797128E+02 -0.21031100870E+03  0.21217942386E+03  0.00000000000E+00 0. -1.
         -5    1    5    5    0  502 -0.65446147093E+01 -0.60256543278E+02  0.39567466458E+02  0.72535214837E+02  0.47000000000E+01 0.  1.
         13    1    6    6    0    0 -0.18912251601E+02  0.52196933527E+02  0.40171154335E+02  0.68526744931E+02  0.00000000000E+00 0. -1.
        -14    1    6    6    0    0 -0.97978331168E+00  0.20013094498E+02 -0.34865655552E+02  0.40213155357E+02  0.00000000000E+00 0.  1.
</event>
<event>
12    1  0.8747122E-002  0.2587324E+03  0.7818608E-02  0.1109517E+00
         21   -1    0    0  501  502  0.00000000000E+00  0.00000000000E+00  0.14313425012E+03  0.14313425012E+03  0.00000000000E+00 0.  1.
         21   -1    0    0  502  503 -0.00000000000E+00 -0.00000000000E+00 -0.57814401444E+03  0.57814401444E+03  0.00000000000E+00 0. -1.
         -6    2    1    2    0  503 -0.15777881563E+03 -0.82204734242E+02 -0.43641529784E+02  0.25211780288E+03  0.17322537463E+03 0.  0.
        -24    2    3    3    0    0 -0.13623060234E+03 -0.10096259872E+03 -0.81321684728E+02  0.20459867987E+03  0.80592679837E+02 0.  0.
          6    2    1    2  501    0  0.15777881563E+03  0.82204734242E+02 -0.39136823454E+03  0.46916046167E+03  0.18785811348E+03 0.  0.
         24    2    5    5    0    0  0.21046129932E+02  0.41429324594E+02 -0.59798529606E+02  0.10816320324E+03  0.77227494262E+02 0.  0.
          5    1    5    5  501    0  0.13673268569E+03  0.40775409647E+02 -0.33156970493E+03  0.36099725843E+03  0.47000000000E+01 0. -1.
        -11    1    6    6    0    0  0.31586952623E+02  0.60042143463E+02 -0.38638624981E+02  0.78075206744E+02  0.00000000000E+00 0.  1.
         12    1    6    6    0    0 -0.10540822691E+02 -0.18612818869E+02 -0.21159904625E+02  0.30087996493E+02  0.00000000000E+00 0. -1.
         -5    1    3    3    0  503 -0.21548213288E+02  0.18757864474E+02  0.37680154944E+02  0.47519123015E+02  0.47000000000E+01 0.  1.
         13    1    4    4    0    0 -0.13478427673E+03 -0.89782646999E+02 -0.47236988409E+02  0.16869812693E+03  0.00000000000E+00 0. -1.
        -14    1    4    4    0    0 -0.14463256110E+01 -0.11179951717E+02 -0.34084696319E+02  0.35900552939E+02  0.00000000000E+00 0.  1.
</event>
<event>
12    1  0.8747122E-002  0.2360191E+03  0.7818608E-02  0.1122650E+00
         21   -1    0    0  501  502  0.00000000000E+00  0.00000000000E+00  0.14311103872E+03  0.14311103872E+03  0.00000000000E+00 0.  1.
         21   -1    0    0  502  503 -0.00000000000E+00 -0.00000000000E+00 -0.63616989325E+03  0.63616989325E+03  0.00000000000E+00 0. -1.
         -6    2    1    2    0  503 -0.11209912929E+03 -0.11549781538E+03 -0.48978531536E+03  0.54323914717E+03  0.17121085168E+03 0.  0.
        -24    2    3    3    0    0 -0.63265413187E+02 -0.10891824238E+03 -0.46387316024E+03  0.48736829258E+03  0.80522343459E+02 0.  0.
          6    2    1    2  501    0  0.11209912929E+03  0.11549781538E+03 -0.32735391729E+01  0.23604178479E+03  0.17262400750E+03 0.  0.
         24    2    5    5    0    0  0.86123989013E+02  0.13103093744E+03  0.42055097024E+02  0.18133565120E+03  0.80793187584E+02 0.  0.
          5    1    5    5  501    0  0.25975140281E+02 -0.15533122062E+02 -0.45328636197E+02  0.54706133596E+02  0.47000000000E+01 0. -1.
        -11    1    6    6    0    0  0.59391471725E+02  0.86915252862E+02  0.66227996089E+02  0.12436943177E+03  0.00000000000E+00 0.  1.
         12    1    6    6    0    0  0.26732517288E+02  0.44115684576E+02 -0.24172899065E+02  0.56966219423E+02  0.00000000000E+00 0. -1.
         -5    1    3    3    0  503 -0.48833716106E+02 -0.65795729994E+01 -0.25912155121E+02  0.55870854590E+02  0.47000000000E+01 0.  1.
         13    1    4    4    0    0 -0.45624970711E+02 -0.67966082219E+02 -0.15495505237E+03  0.17524866487E+03  0.00000000000E+00 0. -1.
        -14    1    4    4    0    0 -0.17640442476E+02 -0.40952160157E+02 -0.30891810787E+03  0.31211962771E+03  0.00000000000E+00 0.  1.
</event>
<event>
12    1  0.8747122E-002  0.1843384E+03  0.7818608E-02  0.1163772E+00
         21   -1    0    0  503  502  0.00000000000E+00  0.00000000000E+00  0.68232952669E+03  0.68232952669E+03  0.00000000000E+00 0. -1.
         21   -1    0    0  501  503 -0.00000000000E+00 -0.00000000000E+00 -0.53701325768E+02  0.53701325768E+02  0.00000000000E+00 0. -1.
          6    2    1    2  501    0 -0.25665119286E+02  0.59595610455E+02  0.21329444485E+03  0.28162709498E+03  0.17207255821E+03 0.  0.
         24    2    3    3    0    0 -0.37395150567E+02  0.72098819306E+02  0.67516257753E+02  0.13476902166E+03  0.83711451472E+02 0.  0.
         -6    2    1    2    0  502  0.25665119286E+02 -0.59595610455E+02  0.41533375607E+03  0.45440375748E+03  0.17254075097E+03 0.  0.
        -24    2    5    5    0    0  0.71349260196E+02 -0.64064576421E+02  0.21049409964E+03  0.24443140874E+03  0.79018736467E+02 0.  0.
          5    1    3    3  501    0  0.11730031282E+02 -0.12503208851E+02  0.14577818710E+03  0.14685807332E+03  0.47000000000E+01 0. -1.
        -11    1    4    4    0    0 -0.45945886591E+02  0.34109777430E+01  0.17128628927E+02  0.49153323313E+02  0.00000000000E+00 0.  1.
         12    1    4    4    0    0  0.85507360234E+01  0.68687841563E+02  0.50387628826E+02  0.85615698350E+02  0.00000000000E+00 0. -1.
         -5    1    5    5    0  502 -0.45684140910E+02  0.44689659656E+01  0.20483965643E+03  0.20997234874E+03  0.47000000000E+01 0.  1.
         13    1    6    6    0    0  0.17246127438E+02 -0.53214735109E+02  0.51135502387E+02  0.75789686295E+02  0.00000000000E+00 0. -1.
        -14    1    6    6    0    0  0.54103132758E+02 -0.10849841312E+02  0.15935859725E+03  0.16864172245E+03  0.00000000000E+00 0.  1.
</event>
<event>
12    1  0.8747122E-002  0.1799179E+03  0.7818608E-02  0.1169116E+00
         21   -1    0    0  501  502  0.00000000000E+00  0.00000000000E+00  0.68514278933E+02  0.68514278933E+02  0.00000000000E+00 0.  1.
         21   -1    0    0  502  503 -0.00000000000E+00 -0.00000000000E+00 -0.51284392855E+03  0.51284392855E+03  0.00000000000E+00 0.  1.
         -6    2    1    2    0  503  0.70503661548E+01 -0.53945285112E+02 -0.31319901301E+03  0.35872468204E+03  0.16622266483E+03 0.  0.
        -24    2    3    3    0    0 -0.58359360995E+02 -0.38004630998E+02 -0.16808050567E+03  0.19868091292E+03  0.79830331213E+02 0.  0.
          6    2    1    2  501    0 -0.70503661548E+01  0.53945285112E+02 -0.13113063660E+03  0.22263352544E+03  0.17149530998E+03 0.  0.
         24    2    5    5    0    0 -0.34491626459E+02 -0.84442821674E+01 -0.12666456283E+03  0.15416808388E+03  0.80392216127E+02 0.  0.
          5    1    5    5  501    0  0.27441260304E+02  0.62389567279E+02 -0.44660737698E+01  0.68465441555E+02  0.47000000000E+01 0. -1.
        -13    1    6    6    0    0 -0.66948934645E+01  0.32615552693E+02 -0.77463469968E+02  0.84315983392E+02  0.00000000000E+00 0.  1.
         14    1    6    6    0    0 -0.27796732995E+02 -0.41059834861E+02 -0.49201092862E+02  0.69852100490E+02  0.00000000000E+00 0. -1.
         -5    1    3    3    0  503  0.65409727150E+02 -0.15940654114E+02 -0.14511850734E+03  0.16004376912E+03  0.47000000000E+01 0.  1.
         13    1    4    4    0    0  0.63377084082E+01  0.18802216519E+02 -0.31567202432E+02  0.37285093044E+02  0.00000000000E+00 0. -1.
        -14    1    4    4    0    0 -0.64697069403E+02 -0.56806847518E+02 -0.13651330324E+03  0.16139581988E+03  0.00000000000E+00 0.  1.
</event>
<event>
12    1  0.8747122E-002  0.1930834E+03  0.7818608E-02  0.1155863E+00
         21   -1    0    0  503  502  0.00000000000E+00  0.00000000000E+00  0.18731275145E+04  0.18731275145E+04  0.00000000000E+00 0. -1.
         21   -1    0    0  501  503 -0.00000000000E+00 -0.00000000000E+00 -0.33317670441E+02  0.33317670441E+02  0.00000000000E+00 0. -1.
          6    2    1    2  501    0 -0.79837274378E+02 -0.29852869332E+02  0.31443493796E+03  0.36898578671E+03  0.17325125223E+03 0.  0.
         24    2    3    3    0    0 -0.21825321505E+02 -0.75505536575E+02  0.13838477024E+03  0.17802687947E+03  0.79785928994E+02 0.  0.
         -6    2    1    2    0  502  0.79837274378E+02  0.29852869332E+02  0.15253749061E+04  0.15374593982E+04  0.17247496300E+03 0.  0.
        -24    2    5    5    0    0  0.86008811411E+02  0.70333202329E+02  0.13624078169E+04  0.13693608932E+04  0.81547049626E+02 0.  0.
          5    1    3    3  501    0 -0.58011952873E+02  0.45652667243E+02  0.17605016772E+03  0.19095890725E+03  0.47000000000E+01 0. -1.
        -13    1    4    4    0    0  0.79899548263E+01 -0.16425604489E+02 -0.59777195466E+01  0.19219078852E+02  0.00000000000E+00 0.  1.
         14    1    4    4    0    0 -0.29815276331E+02 -0.59079932086E+02  0.14436248979E+03  0.15880780061E+03  0.00000000000E+00 0. -1.
         -5    1    5    5    0  502 -0.61715370329E+01 -0.40480332997E+02  0.16296708917E+03  0.16809850500E+03  0.47000000000E+01 0.  1.
         13    1    6    6    0    0  0.67588061759E+02  0.88854589780E+02  0.11193176056E+04  0.11248711866E+04  0.00000000000E+00 0. -1.
        -14    1    6    6    0    0  0.18420749651E+02 -0.18521387451E+02  0.24309021134E+03  0.24448970666E+03  0.00000000000E+00 0.  1.
</event>
<event>
12    1  0.8747122E-002  0.2179387E+03  0.7818608E-02  0.1135619E+00
         21   -1    0    0  501  502  0.00000000000E+00  0.00000000000E+00  0.80518369895E+03  0.80518369895E+03  0.00000000000E+00 0. -1.
         21   -1    0    0  502  503 -0.00000000000E+00 -0.00000000000E+00 -0.70634328329E+02  0.70634328329E+02  0.00000000000E+00 0. -1.
         -6    2    1    2    0  503 -0.48880354475E+02 -0.12396644780E+03  0.18811228597E+03  0.28789498048E+03  0.17245381532E+03 0.  0.
        -24    2    3    3    0    0 -0.67318467879E+02 -0.12497188606E+03  0.79686169535E+02  0.17780734422E+03  0.71524944045E+02 0.  0.
          6    2    1    2  501    0  0.48880354475E+02  0.12396644780E+03  0.54643708465E+03  0.58792304680E+03  0.17118134315E+03 0.  0.
         24    2    5    5    0    0  0.90525112204E+02  0.12621110677E+03  0.43914828885E+03  0.47271757799E+03  0.80539738798E+02 0.  0.
          5    1    5    5  501    0 -0.41644757729E+02 -0.22446589690E+01  0.10728879580E+03  0.11520546881E+03  0.47000000000E+01 0. -1.
        -13    1    6    6    0    0  0.64180706570E+02  0.33232674862E+02  0.12905449497E+03  0.14791428750E+03  0.00000000000E+00 0.  1.
         14    1    6    6    0    0  0.26344405633E+02  0.92978431911E+02  0.31009379389E+03  0.32480329049E+03  0.00000000000E+00 0. -1.
         -5    1    3    3    0  503  0.18438113405E+02  0.10054382543E+01  0.10842611644E+03  0.11008763626E+03  0.47000000000E+01 0.  1.
         13    1    4    4    0    0 -0.58457220598E+02 -0.56118369425E+02  0.13998367223E+02  0.82234252668E+02  0.00000000000E+00 0. -1.
        -14    1    4    4    0    0 -0.88612472815E+01 -0.68853516634E+02  0.65687802312E+02  0.95573091552E+02  0.00000000000E+00 0.  1.
</event>
<event>
12    1  0.8747122E-002  0.2500741E+03  0.7818608E-02  0.1113346E+00
         21   -1    0    0  503  502  0.00000000000E+00  0.00000000000E+00  0.12016812257E+03  0.12016812257E+03  0.00000000000E+00 0.  1.
         21   -1    0    0  501  503 -0.00000000000E+00 -0.00000000000E+00 -0.54469238748E+03  0.54469238748E+03  0.00000000000E+00 0. -1.
          6    2    1    2  501    0  0.95677720011E+02 -0.15409393501E+03 -0.14064429847E+03  0.28691094966E+03  0.17215663631E+03 0.  0.
         24    2    3    3    0    0  0.11435663914E+03 -0.12855354963E+03 -0.58934193382E+02  0.19916219138E+03  0.81171936591E+02 0.  0.
         -6    2    1    2    0  502 -0.95677720011E+02  0.15409393501E+03 -0.28387996644E+03  0.37794956040E+03  0.17134429650E+03 0.  0.
        -24    2    5    5    0    0 -0.13061266177E+03  0.11443632040E+03 -0.18451821399E+03  0.26530842935E+03  0.78652733897E+02 0.  0.
          5    1    3    3  501    0 -0.18678919126E+02 -0.25540385382E+02 -0.81710105084E+02  0.87748758271E+02  0.47000000000E+01 0. -1.
        -11    1    4    4    0    0  0.75148321098E+02 -0.71857475748E+02 -0.75220950065E+02  0.12833143930E+03  0.00000000000E+00 0.  1.
         12    1    4    4    0    0  0.39208318039E+02 -0.56696073883E+02  0.16286756683E+02  0.70830752082E+02  0.00000000000E+00 0. -1.
         -5    1    5    5    0  502  0.34934941759E+02  0.39657614611E+02 -0.99361752452E+02  0.11264113104E+03  0.47000000000E+01 0.  1.
         11    1    6    6    0    0 -0.55272433342E+02  0.24267524725E+02 -0.11199670333E+03  0.12722899119E+03  0.00000000000E+00 0. -1.
        -12    1    6    6    0    0 -0.75340228429E+02  0.90168795678E+02 -0.72521510664E+02  0.13807943816E+03  0.00000000000E+00 0.  1.
</event>
<event>
12    1  0.8747122E-002  0.2271035E+03  0.7818608E-02  0.1128972E+00
         21   -1    0    0  501  502  0.00000000000E+00  0.00000000000E+00  0.10122531728E+03  0.10122531728E+03  0.00000000000E+00 0. -1.
         21   -1    0    0  502  503 -0.00000000000E+00 -0.00000000000E+00 -0.73136397298E+03  0.73136397298E+03  0.00000000000E+00 0. -1.
         -6    2    1    2    0  503 -0.11420555001E+03 -0.91395153688E+02 -0.54686258713E+03  0.59214415862E+03  0.17372401568E+03 0.  0.
        -24    2    3    3    0    0 -0.87232112766E+02 -0.90441223704E+02 -0.22902742433E+03  0.27313043320E+03  0.79734659978E+02 0.  0.
          6    2    1    2  501    0  0.11420555001E+03  0.91395153688E+02 -0.83276068571E+02  0.24044513163E+03  0.17170607432E+03 0.  0.
         24    2    5    5    0    0  0.52779480586E+02  0.49364422552E+02 -0.11683288959E+03  0.15866558284E+03  0.79387173405E+02 0.  0.
          5    1    5    5  501    0  0.61426069424E+02  0.42030731136E+02  0.33556821022E+02  0.81779548799E+02  0.47000000000E+01 0. -1.
        -11    1    6    6    0    0 -0.33322864962E+01  0.42280779494E+02 -0.20851925643E+02  0.47260673408E+02  0.00000000000E+00 0.  1.
         12    1    6    6    0    0  0.56111767082E+02  0.70836430575E+01 -0.95980963949E+02  0.11140490943E+03  0.00000000000E+00 0. -1.
         -5    1    3    3    0  503 -0.26973437244E+02 -0.95392998384E+00 -0.31783516280E+03  0.31901372543E+03  0.47000000000E+01 0.  1.
         11    1    4    4    0    0 -0.25998956867E+02 -0.79089387950E+02 -0.10203507523E+03  0.13168991465E+03  0.00000000000E+00 0. -1.
        -12    1    4    4    0    0 -0.61233155898E+02 -0.11351835754E+02 -0.12699234910E+03  0.14144051854E+03  0.00000000000E+00 0.  1.
</event>
<event>
12    1  0.8747122E-002  0.2390600E+03  0.7818608E-02  0.1120594E+00
         21   -1    0    0  501  502  0.00000000000E+00  0.00000000000E+00  0.18427941996E+03  0.18427941996E+03  0.00000000000E+00 0.  1.
         21   -1    0    0  502  503 -0.00000000000E+00 -0.00000000000E+00 -0.31433086903E+03  0.31433086903E+03  0.00000000000E+00 0.  1.
         -6    2    1    2    0  503 -0.11155345249E+03 -0.12375487486E+03 -0.97994191652E+02  0.25741042768E+03  0.16999360244E+03 0.  0.
        -24    2    3    3    0    0 -0.58649949940E+02 -0.11092074214E+03 -0.39819125204E+01  0.14867269655E+03  0.79652290665E+02 0.  0.
          6    2    1    2  501    0  0.11155345249E+03  0.12375487486E+03 -0.32057257415E+02  0.24119986131E+03  0.17143588753E+03 0.  0.
         24    2    5    5    0    0  0.72268462853E+02  0.92946319797E+02  0.42300758778E+02  0.15151328457E+03  0.85470299644E+02 0.  0.
          5    1    5    5  501    0  0.39284989633E+02  0.30808555059E+02 -0.74358016193E+02  0.89686576741E+02  0.47000000000E+01 0. -1.
        -13    1    6    6    0    0 -0.17249964730E+01  0.66548587106E+02  0.24692568309E+02  0.71002908309E+02  0.00000000000E+00 0.  1.
         14    1    6    6    0    0  0.73993459326E+02  0.26397732692E+02  0.17608190469E+02  0.80510376262E+02  0.00000000000E+00 0. -1.
         -5    1    3    3    0  503 -0.52903502545E+02 -0.12834132721E+02 -0.94012279132E+02  0.10873773113E+03  0.47000000000E+01 0.  1.
         11    1    4    4    0    0 -0.23890343492E+02  0.67650014697E+01 -0.74141404403E+01  0.25912993566E+02  0.00000000000E+00 0. -1.
        -12    1    4    4    0    0 -0.34759606448E+02 -0.11768574361E+03  0.34322279200E+01  0.12275970298E+03  0.00000000000E+00 0.  1.
</event>
<event>
12    1  0.8747122E-002  0.2136601E+03  0.7818608E-02  0.1138804E+00
         21   -1    0    0  503  502  0.00000000000E+00  0.00000000000E+00  0.46357329835E+03  0.46357329835E+03  0.00000000000E+00 0. -1.
         21   -1    0    0  501  503 -0.00000000000E+00 -0.00000000000E+00 -0.10923761990E+03  0.10923761990E+03  0.00000000000E+00 0. -1.
          6    2    1    2  501    0  0.12543694929E+03 -0.16010125522E+02  0.86448444988E+02  0.23048635839E+03  0.17222042676E+03 0.  0.
         24    2    3    3    0    0  0.13247020364E+03  0.35989984231E+02  0.50923017188E+02  0.16694405672E+03  0.80209292329E+02 0.  0.
         -6    2    1    2    0  502 -0.12543694929E+03  0.16010125522E+02  0.26788723347E+03  0.34232455986E+03  0.17155693535E+03 0.  0.
        -24    2    5    5    0    0 -0.94183441244E+02  0.76185550559E+02  0.21243294046E+03  0.25460265749E+03  0.70851960373E+02 0.  0.
          5    1    3    3  501    0 -0.70332543517E+01 -0.52000109752E+02  0.35525427800E+02  0.63542301669E+02  0.47000000000E+01 0. -1.
        -13    1    4    4    0    0  0.48134736224E+02  0.23163804994E+00  0.57639079177E+02  0.75095072648E+02  0.00000000000E+00 0.  1.
         14    1    4    4    0    0  0.84335467415E+02  0.35758346181E+02 -0.67160619888E+01  0.91848984068E+02  0.00000000000E+00 0. -1.
         -5    1    5    5    0  502 -0.31253508044E+02 -0.60175425037E+02  0.55454293002E+02  0.87721902372E+02  0.47000000000E+01 0.  1.
         13    1    6    6    0    0  0.31048784926E+01 -0.71473005308E+01  0.34414123922E+02  0.35285352495E+02  0.00000000000E+00 0. -1.
        -14    1    6    6    0    0 -0.97288319737E+02  0.83332851090E+02  0.17801881654E+03  0.21931730500E+03  0.00000000000E+00 0.  1.
</event>
<event>
12    1  0.8747122E-002  0.2690525E+03  0.7818608E-02  0.1102056E+00
         21   -1    0    0  501  502  0.00000000000E+00  0.00000000000E+00  0.35864233678E+03  0.35864233678E+03  0.00000000000E+00 0.  1.
         21   -1    0    0  502  503 -0.00000000000E+00 -0.00000000000E+00 -0.25663104999E+03  0.25663104999E+03  0.00000000000E+00 0. -1.
         -6    2    1    2    0  503 -0.12016832149E+03 -0.16650010938E+03 -0.92822334473E+02  0.28308459490E+03  0.17134231871E+03 0.  0.
        -24    2    3    3    0    0 -0.78115171170E+01 -0.72063470117E+02 -0.82655425948E+02  0.13588477712E+03  0.79866073462E+02 0.  0.
          6    2    1    2  501    0  0.12016832149E+03  0.16650010938E+03  0.19483362126E+03  0.33218879187E+03  0.17385781996E+03 0.  0.
         24    2    5    5    0    0  0.13827259800E+03  0.18373298933E+03  0.17868797852E+03  0.30206390583E+03  0.80225225531E+02 0.  0.
          5    1    5    5  501    0 -0.18104276510E+02 -0.17232879955E+02  0.16145642737E+02  0.30124886039E+02  0.47000000000E+01 0. -1.
        -11    1    6    6    0    0  0.70916633780E+02  0.11591014323E+03  0.14970977783E+03  0.20218147252E+03  0.00000000000E+00 0.  1.
         12    1    6    6    0    0  0.67355964224E+02  0.67822846101E+02  0.28978200686E+02  0.99882433314E+02  0.00000000000E+00 0. -1.
         -5    1    3    3    0  503 -0.11235680438E+03 -0.94436639261E+02 -0.10166908525E+02  0.14719981778E+03  0.47000000000E+01 0.  1.
         13    1    4    4    0    0 -0.75260360135E+01 -0.18408291830E+02 -0.79704099645E+02  0.82147732327E+02  0.00000000000E+00 0. -1.
        -14    1    4    4    0    0 -0.28548110355E+00 -0.53655178288E+02 -0.29513263027E+01  0.53737044797E+02  0.00000000000E+00 0.  1.
</event>
<event>
12    1  0.8747122E-002  0.1725671E+03  0.7818608E-02  0.1175314E+00
         21   -1    0    0  503  502  0.00000000000E+00  0.00000000000E+00  0.28494483268E+02  0.28494483268E+02  0.00000000000E+00 0.  1.
         21   -1    0    0  501  503 -0.00000000000E+00 -0.00000000000E+00 -0.11168008490E+04  0.11168008490E+04  0.00000000000E+00 0.  1.
          6    2    1    2  501    0 -0.47681344625E+00 -0.46993100584E+01 -0.39694608929E+03  0.43283439071E+03  0.17250246697E+03 0.  0.
         24    2    3    3    0    0  0.64127154517E+02  0.52490095962E+01 -0.29644042307E+03  0.31285055562E+03  0.76542156179E+02 0.  0.
         -6    2    1    2    0  502  0.47681344625E+00  0.46993100584E+01 -0.69136027645E+03  0.71246094157E+03  0.17204432726E+03 0.  0.
        -24    2    5    5    0    0 -0.26296183145E+02 -0.43319936307E+01 -0.16040904105E+03  0.18073764683E+03  0.78897282048E+02 0.  0.
          5    1    3    3  501    0 -0.64603967963E+02 -0.99483196546E+01 -0.10050566622E+03  0.11998383509E+03  0.47000000000E+01 0. -1.
        -13    1    4    4    0    0  0.50549870996E+02  0.34915847060E+01 -0.72275386528E+02  0.88267843065E+02  0.00000000000E+00 0.  1.
         14    1    4    4    0    0  0.13577283521E+02  0.17574248902E+01 -0.22416503654E+03  0.22458271255E+03  0.00000000000E+00 0. -1.
         -5    1    5    5    0  502  0.26772996592E+02  0.90313036891E+01 -0.53095123540E+03  0.53172329474E+03  0.47000000000E+01 0.  1.
         11    1    6    6    0    0  0.10547048539E+02  0.29216496543E+02 -0.41723328014E+02  0.52016151373E+02  0.00000000000E+00 0. -1.
        -12    1    6    6    0    0 -0.36843231685E+02 -0.33548490174E+02 -0.11868571304E+03  0.12872149546E+03  0.00000000000E+00 0.  1.
</event>
<event>
12    1  0.8747122E-002  0.2137494E+03  0.7818608E-02  0.1139224E+00
         21   -1    0    0  503  502  0.00000000000E+00  0.00000000000E+00  0.33687010525E+02  0.33687010525E+02  0.00000000000E+00 0.  1.
         21   -1    0    0  501  503 -0.00000000000E+00 -0.00000000000E+00 -0.16363706040E+04  0.16363706040E+04  0.00000000000E+00 0.  1.
          6    2    1    2  501    0 -0.11492359246E+03 -0.39459066407E+02 -0.11631598784E+04  0.11826367643E+04  0.17585324440E+03 0.  0.
         24    2    3    3    0    0 -0.29275540818E+02  0.39424271045E+02 -0.40763029610E+03  0.41817276293E+03  0.79338962203E+02 0.  0.
         -6    2    1    2    0  502  0.11492359246E+03  0.39459066407E+02 -0.43952371508E+03  0.48742085022E+03  0.17214394872E+03 0.  0.
        -24    2    5    5    0    0 -0.11892019884E+01 -0.27265342358E+02 -0.19180745976E+03  0.20578320907E+03  0.69367243140E+02 0.  0.
          5    1    3    3  501    0 -0.85648051642E+02 -0.78883337452E+02 -0.75552958231E+03  0.76446400139E+03  0.47000000000E+01 0. -1.
        -13    1    4    4    0    0 -0.40113722698E+02  0.48290895292E+02 -0.39276577911E+03  0.39775127726E+03  0.00000000000E+00 0.  1.
         14    1    4    4    0    0  0.10838181880E+02 -0.88666242466E+01 -0.14864516985E+02  0.20421485675E+02  0.00000000000E+00 0. -1.
         -5    1    5    5    0  502  0.11611279445E+03  0.66724408764E+02 -0.24771625533E+03  0.28163764115E+03  0.47000000000E+01 0.  1.
         11    1    6    6    0    0 -0.18247820073E+02  0.11298015335E+02 -0.21675386400E+02  0.30503286110E+02  0.00000000000E+00 0. -1.
        -12    1    6    6    0    0  0.17058618085E+02 -0.38563357693E+02 -0.17013207336E+03  0.17527992296E+03  0.00000000000E+00 0.  1.
</event>
<event>
12    1  0.8747122E-002  0.1815300E+03  0.7818608E-02  0.1166514E+00
         21   -1    0    0  501  502  0.00000000000E+00  0.00000000000E+00  0.24099100446E+03  0.24099100446E+03  0.00000000000E+00 0.  1.
         21   -1    0    0  502  503 -0.00000000000E+00 -0.00000000000E+00 -0.51992437346E+03  0.51992437346E+03  0.00000000000E+00 0.  1.
         -6    2    1    2    0  503  0.42327008186E+02  0.39203123326E+02 -0.46640731985E+03  0.50048867713E+03  0.17211817865E+03 0.  0.
        -24    2    3    3    0    0  0.65960995082E+02 -0.29526199100E+02 -0.32626722067E+03  0.34255317606E+03  0.75297608484E+02 0.  0.
          6    2    1    2  501    0 -0.42327008186E+02 -0.39203123326E+02  0.18747395084E+03  0.26042670079E+03  0.17131002230E+03 0.  0.
         24    2    5    5    0    0 -0.82453230736E+02  0.47604445330E+01  0.15501574583E+03  0.19246690306E+03  0.78691995947E+02 0.  0.
          5    1    5    5  501    0  0.40126222551E+02 -0.43963567859E+02  0.32458205011E+02  0.67959797731E+02  0.47000000000E+01 0. -1.
        -11    1    6    6    0    0 -0.73195882192E+02 -0.29215864958E+02  0.10977966930E+03  0.13513985247E+03  0.00000000000E+00 0.  1.
         12    1    6    6    0    0 -0.92573485446E+01  0.33976309491E+02  0.45236076534E+02  0.57327050586E+02  0.00000000000E+00 0. -1.
         -5    1    3    3    0  503 -0.23633986897E+02  0.68729322426E+02 -0.14014009918E+03  0.15793550107E+03  0.47000000000E+01 0. -1.
         13    1    4    4    0    0  0.50910582283E+02 -0.50542087449E+02 -0.17566576457E+03  0.18974944225E+03  0.00000000000E+00 0. -1.
        -14    1    4    4    0    0  0.15050412799E+02  0.21015888349E+02 -0.15060145610E+03  0.15280373382E+03  0.00000000000E+00 0.  1.
</event>
<event>
12    1  0.8747122E-002  0.2666128E+03  0.7818608E-02  0.1103390E+00
         21   -1    0    0  503  502  0.00000000000E+00  0.00000000000E+00  0.12246102120E+03  0.12246102120E+03  0.00000000000E+00 0. -1.
         21   -1    0    0  501  503 -0.00000000000E+00 -0.00000000000E+00 -0.88002568560E+03  0.88002568560E+03  0.00000000000E+00 0. -1.
          6    2    1    2  501    0 -0.17560580705E+03 -0.10235054932E+03 -0.67186838054E+03  0.72243986452E+03  0.17087774185E+03 0.  0.
         24    2    3    3    0    0 -0.16376020949E+03 -0.13400533070E+03 -0.52438780595E+03  0.57106300616E+03  0.79721710393E+02 0.  0.
         -6    2    1    2    0  502  0.17560580705E+03  0.10235054932E+03 -0.85696283869E+02  0.28004684228E+03  0.17253795636E+03 0.  0.
        -24    2    5    5    0    0  0.16845635975E+03  0.73590649504E+02 -0.13763033284E+02  0.20210629459E+03  0.82851701206E+02 0.  0.
          5    1    3    3  501    0 -0.11845597566E+02  0.31654781375E+02 -0.14748057459E+03  0.15137685836E+03  0.47000000000E+01 0. -1.
        -11    1    4    4    0    0 -0.84639184798E+02 -0.70942589158E+02 -0.17171289957E+03  0.20416160863E+03  0.00000000000E+00 0.  1.
         12    1    4    4    0    0 -0.79121024688E+02 -0.63062741541E+02 -0.35267490638E+03  0.36690139753E+03  0.00000000000E+00 0. -1.
         -5    1    5    5    0  502  0.71494473009E+01  0.28759899820E+02 -0.71933250585E+02  0.77940547690E+02  0.47000000000E+01 0.  1.
         13    1    6    6    0    0  0.32361717885E+02  0.23925378942E+02  0.30638771843E+02  0.50581013059E+02  0.00000000000E+00 0. -1.
        -14    1    6    6    0    0  0.13609464187E+03  0.49665270563E+02 -0.44401805127E+02  0.15152528153E+03  0.00000000000E+00 0.  1.
</event>
<event>
12    1  0.8747122E-002  0.2946125E+03  0.7818608E-02  0.1088259E+00
         21   -1    0    0  501  502  0.00000000000E+00  0.00000000000E+00  0.30640495563E+03  0.30640495563E+03  0.00000000000E+00 0. -1.
         21   -1    0    0  502  503 -0.00000000000E+00 -0.00000000000E+00 -0.34280241616E+03  0.34280241616E+03  0.00000000000E+00 0.  1.
         -6    2    1    2    0  503 -0.12999213246E+03 -0.19691308264E+03 -0.15587875539E+03  0.33128862389E+03  0.17257244658E+03 0.  0.
        -24    2    3    3    0    0 -0.13299616473E+03 -0.93611393300E+02 -0.13343379765E+03  0.22542961691E+03  0.81011487062E+02 0.  0.
          6    2    1    2  501    0  0.12999213246E+03  0.19691308264E+03  0.11948129486E+03  0.31791874789E+03  0.17641948254E+03 0.  0.
         24    2    5    5    0    0  0.65312376011E+01  0.12141263322E+03  0.33983143105E+02  0.14976722582E+03  0.80570983255E+02 0.  0.
          5    1    5    5  501    0  0.12346089486E+03  0.75500449420E+02  0.85498151758E+02  0.16815152208E+03  0.47000000000E+01 0. -1.
        -11    1    6    6    0    0 -0.24861063753E+02  0.22040434713E+02 -0.12709386898E+02  0.35572205000E+02  0.00000000000E+00 0.  1.
         12    1    6    6    0    0  0.31392301354E+02  0.99372198509E+02  0.46692530003E+02  0.11419502081E+03  0.00000000000E+00 0. -1.
         -5    1    3    3    0  503  0.30040322701E+01 -0.10330168934E+03 -0.22444957740E+02  0.10585900698E+03  0.47000000000E+01 0.  1.
         13    1    4    4    0    0 -0.38839179932E+02 -0.31304375619E+02  0.97274249669E+00  0.49893807819E+02  0.00000000000E+00 0. -1.
        -14    1    4    4    0    0 -0.94156984801E+02 -0.62307017681E+02 -0.13440654015E+03  0.17553580909E+03  0.00000000000E+00 0.  1.
</event>
<event>
12    1  0.8747122E-002  0.1964632E+03  0.7818608E-02  0.1152927E+00
         21   -1    0    0  503  502  0.00000000000E+00  0.00000000000E+00  0.32227570936E+02  0.32227570936E+02  0.00000000000E+00 0. -1.
         21   -1    0    0  501  503 -0.00000000000E+00 -0.00000000000E+00 -0.12057738635E+04  0.12057738635E+04  0.00000000000E+00 0. -1.
          6    2    1    2  501    0  0.81235672395E+02 -0.51966297120E+02 -0.52165644126E+03  0.55715036130E+03  0.17026847003E+03 0.  0.
         24    2    3    3    0    0 -0.17033162229E+01 -0.38672906379E+02 -0.13966722294E+03  0.16600659875E+03  0.80949136447E+02 0.  0.
         -6    2    1    2    0  502 -0.81235672395E+02  0.51966297120E+02 -0.65188985129E+03  0.68085107312E+03  0.17116680474E+03 0.  0.
        -24    2    5    5    0    0 -0.54411363693E+02  0.84224894330E+02 -0.29744168810E+03  0.32389764336E+03  0.79898036443E+02 0.  0.
          5    1    3    3  501    0  0.82938988618E+02 -0.13293390742E+02 -0.38198921832E+03  0.39114376255E+03  0.47000000000E+01 0. -1.
        -11    1    4    4    0    0 -0.38017272034E+02 -0.12525377382E+02 -0.39203848025E+02  0.56028026482E+02  0.00000000000E+00 0.  1.
         12    1    4    4    0    0  0.36313955811E+02 -0.26147528997E+02 -0.10046337491E+03  0.10997857227E+03  0.00000000000E+00 0. -1.
         -5    1    5    5    0  502 -0.26824308702E+02 -0.32258597209E+02 -0.35444816319E+03  0.35695342976E+03  0.47000000000E+01 0.  1.
         11    1    6    6    0    0 -0.67233687508E+02  0.40614262131E+02 -0.22559440505E+03  0.23887804967E+03  0.00000000000E+00 0. -1.
        -12    1    6    6    0    0  0.12822323814E+02  0.43610632199E+02 -0.71847283054E+02  0.85019593689E+02  0.00000000000E+00 0.  1.
</event>
<event>
12    1  0.8747122E-002  0.1929874E+03  0.7818608E-02  0.1158071E+00
         21   -1    0    0  503  502  0.00000000000E+00  0.00000000000E+00  0.16403625617E+02  0.16403625617E+02  0.00000000000E+00 0. -1.
         21   -1    0    0  501  503 -0.00000000000E+00 -0.00000000000E+00 -0.31437259185E+04  0.31437259185E+04  0.00000000000E+00 0. -1.
          6    2    1    2  501    0  0.45690686332E+02  0.63929112902E+02 -0.24213803869E+04  0.24282838439E+04  0.16524187735E+03 0.  0.
         24    2    3    3    0    0 -0.29663601538E+02  0.35240461017E+02 -0.16522465033E+04  0.16549208448E+04  0.81991923325E+02 0.  0.
         -6    2    1    2    0  502 -0.45690686332E+02 -0.63929112902E+02 -0.70594190595E+03  0.73184570022E+03  0.17626566329E+03 0.  0.
        -24    2    5    5    0    0 -0.70663155537E+02 -0.51059279226E+02 -0.68824191586E+03  0.69831009994E+03  0.79747911455E+02 0.  0.
          5    1    3    3  501    0  0.75354287870E+02  0.28688651886E+02 -0.76913388367E+03  0.77336299915E+03  0.47000000000E+01 0. -1.
        -13    1    4    4    0    0  0.65472492040E+01  0.37891881970E+02 -0.33923648549E+03  0.34140892530E+03  0.00000000000E+00 0.  1.
         14    1    4    4    0    0 -0.36210850742E+02 -0.26514209539E+01 -0.13130100178E+04  0.13135119195E+04  0.00000000000E+00 0. -1.
         -5    1    5    5    0  502  0.24972469205E+02 -0.12869833677E+02 -0.17699990093E+02  0.33535600283E+02  0.47000000000E+01 0.  1.
         13    1    6    6    0    0  0.15781686636E+02 -0.53644126874E+01 -0.17837593306E+03  0.17915304086E+03  0.00000000000E+00 0. -1.
        -14    1    6    6    0    0 -0.86444842173E+02 -0.45694866538E+02 -0.50986598280E+03  0.51915705907E+03  0.00000000000E+00 0.  1.
</event>
<event>
12    1  0.8747122E-002  0.1819702E+03  0.7818608E-02  0.1166020E+00
         21   -1    0    0  501  502  0.00000000000E+00  0.00000000000E+00  0.83828457897E+03  0.83828457897E+03  0.00000000000E+00 0.  1.
         21   -1    0    0  502  503 -0.00000000000E+00 -0.00000000000E+00 -0.49554498591E+02  0.49554498591E+02  0.00000000000E+00 0.  1.
         -6    2    1    2    0  503  0.30745227572E+02  0.51229650121E+02  0.19302105524E+03  0.26495674546E+03  0.17139195760E+03 0.  0.
        -24    2    3    3    0    0  0.27295250344E+02  0.95677464877E+02  0.10049064360E+03  0.16213905410E+03  0.79318947527E+02 0.  0.
          6    2    1    2  501    0 -0.30745227572E+02 -0.51229650121E+02  0.59570902514E+03  0.62288233210E+03  0.17188196803E+03 0.  0.
         24    2    5    5    0    0  0.23710760437E+02  0.18854843825E+02  0.26050126323E+03  0.27609187005E+03  0.86302417505E+02 0.  0.
          5    1    5    5  501    0 -0.54455988008E+02 -0.70084493946E+02  0.33520776191E+03  0.34679046205E+03  0.47000000000E+01 0. -1.
        -13    1    6    6    0    0  0.50137440402E+02 -0.32847739160E+01  0.99802678005E+02  0.11173686593E+03  0.00000000000E+00 0.  1.
         14    1    6    6    0    0 -0.26426679965E+02  0.22139617741E+02  0.16069858523E+03  0.16435500413E+03  0.00000000000E+00 0. -1.
         -5    1    3    3    0  503  0.34499772279E+01 -0.44447814755E+02  0.92530411640E+02  0.10281769136E+03  0.47000000000E+01 0.  1.
         13    1    4    4    0    0  0.32076594706E+02  0.10575125348E+02  0.50047594194E+01  0.34143649789E+02  0.00000000000E+00 0. -1.
        -14    1    4    4    0    0 -0.47813443624E+01  0.85102339528E+02  0.95485884177E+02  0.12799540431E+03  0.00000000000E+00 0.  1.
</event>
<event>
12    1  0.8747122E-002  0.2556768E+03  0.7818608E-02  0.1109994E+00
         21   -1    0    0  501  502  0.00000000000E+00  0.00000000000E+00  0.29908786999E+03  0.29908786999E+03  0.00000000000E+00 0. -1.
         21   -1    0    0  502  503 -0.00000000000E+00 -0.00000000000E+00 -0.71210170634E+03  0.71210170634E+03  0.00000000000E+00 0.  1.
         -6    2    1    2    0  503 -0.18058905476E+03 -0.58183648045E+02 -0.62776885829E+03  0.67728785373E+03  0.16919619908E+03 0.  0.
        -24    2    3    3    0    0 -0.12066275924E+03 -0.60939444161E+02 -0.25480721376E+03  0.29950321457E+03  0.80637100813E+02 0.  0.
          6    2    1    2  501    0  0.18058905476E+03  0.58183648045E+02  0.21475502194E+03  0.33390172260E+03  0.17138523073E+03 0.  0.
         24    2    5    5    0    0  0.16069197840E+03  0.46621002287E+02  0.87737505090E+02  0.20473079704E+03  0.78875849788E+02 0.  0.
          5    1    5    5  501    0  0.19897076353E+02  0.11562645759E+02  0.12701751685E+03  0.12917092556E+03  0.47000000000E+01 0. -1.
        -11    1    6    6    0    0  0.24627744364E+02 -0.11776833577E+02 -0.79538436005E+01  0.28433839515E+02  0.00000000000E+00 0.  1.
         12    1    6    6    0    0  0.13606423404E+03  0.58397835864E+02  0.95691348690E+02  0.17629695752E+03  0.00000000000E+00 0. -1.
         -5    1    3    3    0  503 -0.59926295520E+02  0.27557961153E+01 -0.37296164452E+03  0.37778463917E+03  0.47000000000E+01 0.  1.
         13    1    4    4    0    0  0.27175697143E+01 -0.29808042336E+02 -0.55013671960E+02  0.62629135996E+02  0.00000000000E+00 0. -1.
        -14    1    4    4    0    0 -0.12338032895E+03 -0.31131401824E+02 -0.19979354180E+03  0.23687407857E+03  0.00000000000E+00 0.  1.
</event>
<event>
12    1  0.8747122E-002  0.2818592E+03  0.7818608E-02  0.1094745E+00
         21   -1    0    0  501  502  0.00000000000E+00  0.00000000000E+00  0.13700996329E+04  0.13700996329E+04  0.00000000000E+00 0. -1.
         21   -1    0    0  502  503 -0.00000000000E+00 -0.00000000000E+00 -0.17904562142E+03  0.17904562142E+03  0.00000000000E+00 0. -1.
         -6    2    1    2    0  503 -0.83727223646E+02 -0.20672017088E+03 -0.41825578918E+02  0.28445687039E+03  0.17153091567E+03 0.  0.
        -24    2    3    3    0    0 -0.62712960751E+02 -0.70761987458E+02  0.31607975766E+02  0.12844147423E+03  0.80981317944E+02 0.  0.
          6    2    1    2  501    0  0.83727223646E+02  0.20672017088E+03  0.12328795904E+04  0.12646883840E+04  0.17234020711E+03 0.  0.
         24    2    5    5    0    0  0.11826654050E+03  0.11958304450E+03  0.88952036653E+03  0.90873404722E+03  0.79145479815E+02 0.  0.
          5    1    5    5  501    0 -0.34539316850E+02  0.87137126387E+02  0.34335922391E+03  0.35595433674E+03  0.47000000000E+01 0. -1.
        -11    1    6    6    0    0  0.21263448850E+02  0.44767062106E+02  0.12509053985E+03  0.13455061229E+03  0.00000000000E+00 0.  1.
         12    1    6    6    0    0  0.97003091646E+02  0.74815982390E+02  0.76442982668E+03  0.77418343493E+03  0.00000000000E+00 0. -1.
         -5    1    3    3    0  503 -0.21014262895E+02 -0.13595818343E+03 -0.73433554684E+02  0.15601539616E+03  0.47000000000E+01 0.  1.
         11    1    4    4    0    0 -0.38659840243E+02 -0.84758856795E+02  0.10986941054E+02  0.93804903531E+02  0.00000000000E+00 0. -1.
        -12    1    4    4    0    0 -0.24053120508E+02  0.13996869337E+02  0.20621034711E+02  0.34636570702E+02  0.00000000000E+00 0.  1.
</event>
<event>
12    1  0.8747122E-002  0.2247334E+03  0.7818608E-02  0.1131705E+00
         21   -1    0    0  503  502  0.00000000000E+00  0.00000000000E+00  0.35481290693E+03  0.35481290693E+03  0.00000000000E+00 0. -1.
         21   -1    0    0  501  503 -0.00000000000E+00 -0.00000000000E+00 -0.14295815548E+03  0.14295815548E+03  0.00000000000E+00 0. -1.
          6    2    1    2  501    0 -0.53471313041E+02 -0.12183367075E+03  0.15108116489E+03  0.26496524287E+03  0.17227430713E+03 0.  0.
         24    2    3    3    0    0 -0.71644370578E+02 -0.56415748369E+02  0.28119885291E+02  0.12442581470E+03  0.79846120229E+02 0.  0.
         -6    2    1    2    0  502  0.53471313041E+02  0.12183367075E+03  0.60773586558E+02  0.23280581954E+03  0.18111459396E+03 0.  0.
        -24    2    5    5    0    0  0.90786544108E+02  0.29039028479E+02  0.23398571607E+02  0.12593087465E+03  0.78902663268E+02 0.  0.
          5    1    3    3  501    0  0.18173057537E+02 -0.65417922378E+02  0.12296127960E+03  0.14053942817E+03  0.47000000000E+01 0. -1.
        -11    1    4    4    0    0 -0.10264008908E+02  0.18846985630E+02  0.15539125984E+02  0.26495720080E+02  0.00000000000E+00 0.  1.
         12    1    4    4    0    0 -0.61380361670E+02 -0.75262733999E+02  0.12580759307E+02  0.97930094621E+02  0.00000000000E+00 0. -1.
         -5    1    5    5    0  502 -0.37315231066E+02  0.92794642268E+02  0.37375014951E+02  0.10687494489E+03  0.47000000000E+01 0.  1.
         11    1    6    6    0    0  0.26187930836E+02  0.22212872601E+02 -0.27025141379E+02  0.43698715053E+02  0.00000000000E+00 0. -1.
        -12    1    6    6    0    0  0.64598613271E+02  0.68261558775E+01  0.50423712986E+02  0.82232159597E+02  0.00000000000E+00 0.  1.
</event>
<event>
12    1  0.8747122E-002  0.1830630E+03  0.7818608E-02  0.1165557E+00
         21   -1    0    0  501  502  0.00000000000E+00  0.00000000000E+00  0.35486899970E+02  0.35486899970E+02  0.00000000000E+00 0. -1.
         21   -1    0    0  502  503 -0.00000000000E+00 -0.00000000000E+00 -0.13784896980E+04  0.13784896980E+04  0.00000000000E+00 0. -1.
         -6    2    1    2    0  503  0.26022119908E+02 -0.42808090093E+02 -0.10713588575E+04  0.10864060069E+04  0.17308531692E+03 0.  0.
        -24    2    3    3    0    0 -0.21251353695E+01 -0.83685575495E+02 -0.91589052183E+03  0.92314018012E+03  0.79527054635E+02 0.  0.
          6    2    1    2  501    0 -0.26022119908E+02  0.42808090093E+02 -0.27164394052E+03  0.32757059109E+03  0.17607492275E+03 0.  0.
         24    2    5    5    0    0 -0.11808967158E+02  0.25678349038E+02 -0.42403837937E+02  0.97204455613E+02  0.82775548349E+02 0.  0.
          5    1    5    5  501    0 -0.14213152749E+02  0.17129741055E+02 -0.22924010259E+03  0.23036613547E+03  0.47000000000E+01 0. -1.
        -11    1    6    6    0    0 -0.10802393099E+02 -0.29855969367E+02 -0.12495220954E+02  0.34120392000E+02  0.00000000000E+00 0.  1.
         12    1    6    6    0    0 -0.10065740599E+01  0.55534318405E+02 -0.29908616983E+02  0.63084063613E+02  0.00000000000E+00 0. -1.
         -5    1    3    3    0  503  0.28147255277E+02  0.40877485402E+02 -0.15546833570E+03  0.16326582679E+03  0.47000000000E+01 0.  1.
         11    1    4    4    0    0 -0.27604960045E+02 -0.84384538710E+02 -0.76170102777E+03  0.76685803113E+03  0.00000000000E+00 0. -1.
        -12    1    4    4    0    0  0.25479824675E+02  0.69896321534E+00 -0.15418949406E+03  0.15628214899E+03  0.00000000000E+00 0.  1.
</event>
<event>
12    1  0.8747122E-002  0.2120344E+03  0.7818608E-02  0.1140078E+00
         21   -1    0    0  501  502  0.00000000000E+00  0.00000000000E+00  0.91812251553E+02  0.91812251553E+02  0.00000000000E+00 0. -1.
         21   -1    0    0  502  503 -0.00000000000E+00 -0.00000000000E+00 -0.50215607473E+03  0.50215607473E+03  0.00000000000E+00 0.  1.
         -6    2    1    2    0  503  0.12301637605E+03  0.15543460516E+02 -0.15564505516E+03  0.26256216955E+03  0.17128596482E+03 0.  0.
        -24    2    3    3    0    0 -0.37775753337E+01  0.22980798049E+02 -0.85318314096E+02  0.11730391469E+03  0.77062354803E+02 0.  0.
          6    2    1    2  501    0 -0.12301637605E+03 -0.15543460516E+02 -0.25469876802E+03  0.33140615674E+03  0.17199985567E+03 0.  0.
         24    2    5    5    0    0 -0.10423061177E+03  0.34459654648E+02 -0.23975560874E+03  0.27574104670E+03  0.80615660315E+02 0.  0.
          5    1    5    5  501    0 -0.18785764278E+02 -0.50003115163E+02 -0.14943159285E+02  0.55665110033E+02  0.47000000000E+01 0. -1.
        -11    1    6    6    0    0  0.38223480082E+01  0.23620254436E+01 -0.80529593986E+02  0.80654851163E+02  0.00000000000E+00 0.  1.
         12    1    6    6    0    0 -0.10805295978E+03  0.32097629204E+02 -0.15922601475E+03  0.19508619554E+03  0.00000000000E+00 0. -1.
         -5    1    3    3    0  503  0.12679395138E+03 -0.74373375334E+01 -0.70326741064E+02  0.14525825486E+03  0.47000000000E+01 0.  1.
         11    1    4    4    0    0  0.92135124485E+01  0.37995586706E+02 -0.11340794491E+02  0.40708316601E+02  0.00000000000E+00 0. -1.
        -12    1    4    4    0    0 -0.12991087782E+02 -0.15014788657E+02 -0.73977519605E+02  0.76595598092E+02  0.00000000000E+00 0.  1.
</event>
<event>
12    1  0.8747122E-002  0.2416914E+03  0.7818608E-02  0.1119123E+00
         21   -1    0    0  503  502  0.00000000000E+00  0.00000000000E+00  0.15209807537E+03  0.15209807537E+03  0.00000000000E+00 0. -1.
         21   -1    0    0  501  503 -0.00000000000E+00 -0.00000000000E+00 -0.57208854616E+03  0.57208854616E+03  0.00000000000E+00 0. -1.
          6    2    1    2  501    0  0.10668277492E+03 -0.12624227906E+03 -0.42073729907E+03  0.48521605387E+03  0.17634176083E+03 0.  0.
         24    2    3    3    0    0  0.57020136874E+02 -0.13018848217E+03 -0.39878666867E+03  0.43057293617E+03  0.78497830234E+02 0.  0.
         -6    2    1    2    0  502 -0.10668277492E+03  0.12624227906E+03  0.74682828270E+00  0.23897056766E+03  0.17259214051E+03 0.  0.
        -24    2    5    5    0    0 -0.76664024375E+02  0.15508238161E+03  0.23324464151E+02  0.19138152963E+03  0.78453435460E+02 0.  0.
          5    1    3    3  501    0  0.49662638046E+02  0.39462031119E+01 -0.21950630396E+02  0.54643117695E+02  0.47000000000E+01 0. -1.
        -11    1    4    4    0    0 -0.12066859199E+02 -0.93721676046E+01 -0.11752323105E+02  0.19275988039E+02  0.00000000000E+00 0.  1.
         12    1    4    4    0    0  0.69086996073E+02 -0.12081631457E+03 -0.38703434557E+03  0.41129694813E+03  0.00000000000E+00 0. -1.
         -5    1    5    5    0  502 -0.30018750545E+02 -0.28840102548E+02 -0.22577635869E+02  0.47589038031E+02  0.47000000000E+01 0.  1.
         13    1    6    6    0    0 -0.54174246528E+02  0.43876212740E+02  0.33735999611E+02  0.77447328559E+02  0.00000000000E+00 0. -1.
        -14    1    6    6    0    0 -0.22489777848E+02  0.11120616887E+03 -0.10411535460E+02  0.11393420107E+03  0.00000000000E+00 0.  1.
</event>
<event>
12    1  0.8747122E-002  0.2123338E+03  0.7818608E-02  0.1139759E+00
         21   -1    0    0  501  502  0.00000000000E+00  0.00000000000E+00  0.58309421152E+03  0.58309421152E+03  0.00000000000E+00 0.  1.
         21   -1    0    0  502  503 -0.00000000000E+00 -0.00000000000E+00 -0.11515299209E+03  0.11515299209E+03  0.00000000000E+00 0. -1.
         -6    2    1    2    0  503  0.11515047141E+03 -0.46011575241E+02  0.33670811615E+02  0.21484630702E+03  0.17218744426E+03 0.  0.
        -24    2    3    3    0    0  0.15079761084E+02 -0.35782970883E+02 -0.30299471269E+02  0.95543924372E+02  0.81870405677E+02 0.  0.
          6    2    1    2  501    0 -0.11515047141E+03  0.46011575241E+02  0.43427040782E+03  0.48340089659E+03  0.17236282545E+03 0.  0.
         24    2    5    5    0    0 -0.12122924045E+03  0.70437500279E+02  0.42788105961E+03  0.45700978033E+03  0.78216161753E+02 0.  0.
          5    1    5    5  501    0  0.60787690357E+01 -0.24425925038E+02  0.63893482035E+01  0.26391116259E+02  0.47000000000E+01 0. -1.
        -11    1    6    6    0    0 -0.26392063017E+02  0.47825197897E+02  0.23022198314E+03  0.23661350778E+03  0.00000000000E+00 0.  1.
         12    1    6    6    0    0 -0.94837177433E+02  0.22612302382E+02  0.19765907648E+03  0.22039627255E+03  0.00000000000E+00 0. -1.
         -5    1    3    3    0  503  0.10007071033E+03 -0.10228604358E+02  0.63970282884E+02  0.11930238265E+03  0.47000000000E+01 0.  1.
         11    1    4    4    0    0  0.34349830814E+02  0.20928906831E+01  0.11156041494E+02  0.36176626849E+02  0.00000000000E+00 0. -1.
        -12    1    4    4    0    0 -0.19270069730E+02 -0.37875861566E+02 -0.41455512763E+02  0.59367297523E+02  0.00000000000E+00 0.  1.
</event>
<event>
12    1  0.8747122E-002  0.2082205E+03  0.7818608E-02  0.1143305E+00
         21   -1    0    0  501  502  0.00000000000E+00  0.00000000000E+00  0.55356798377E+03  0.55356798377E+03  0.00000000000E+00 0. -1.
         21   -1    0    0  502  503 -0.00000000000E+00 -0.00000000000E+00 -0.22635970624E+03  0.22635970624E+03  0.00000000000E+00 0. -1.
         -6    2    1    2    0  503 -0.11278650489E+03  0.25252170345E+02 -0.15261686298E+03  0.25687132573E+03  0.17126734460E+03 0.  0.
        -24    2    3    3    0    0 -0.62946438292E+02 -0.37657603519E+02 -0.13837215383E+03  0.17522162503E+03  0.78583813377E+02 0.  0.
          6    2    1    2  501    0  0.11278650489E+03 -0.25252170345E+02  0.47982514051E+03  0.52305636429E+03  0.17319736420E+03 0.  0.
         24    2    5    5    0    0  0.47632856085E+02 -0.38810543189E+02  0.42260766061E+03  0.43516576506E+03  0.83647241643E+02 0.  0.
          5    1    5    5  501    0  0.65153648801E+02  0.13558372845E+02  0.57217479902E+02  0.87890599227E+02  0.47000000000E+01 0. -1.
        -11    1    6    6    0    0  0.39962336693E+00 -0.15352008499E+02  0.81874392043E+01  0.17403391179E+02  0.00000000000E+00 0.  1.
         12    1    6    6    0    0  0.47233232718E+02 -0.23458534690E+02  0.41442022140E+03  0.41776237388E+03  0.00000000000E+00 0. -1.
         -5    1    3    3    0  503 -0.49840066593E+02  0.62909773864E+02 -0.14244709142E+02  0.81649700698E+02  0.47000000000E+01 0.  1.
         11    1    4    4    0    0 -0.13785479079E+02 -0.31834569630E+02 -0.11566915789E+03  0.12075940272E+03  0.00000000000E+00 0. -1.
        -12    1    4    4    0    0 -0.49160959213E+02 -0.58230338894E+01 -0.22702995940E+02  0.54462222312E+02  0.00000000000E+00 0.  1.
</event>
<event>
12    1  0.8747122E-002  0.2843841E+03  0.7818608E-02  0.1093355E+00
         21   -1    0    0  503  502  0.00000000000E+00  0.00000000000E+00  0.46824969681E+03  0.46824969681E+03  0.00000000000E+00 0. -1.
         21   -1    0    0  501  503 -0.00000000000E+00 -0.00000000000E+00 -0.21270488545E+03  0.21270488545E+03  0.00000000000E+00 0.  1.
          6    2    1    2  501    0 -0.17405794256E+02 -0.22572958714E+03 -0.20212649223E+02  0.28482771043E+03  0.17164342473E+03 0.  0.
         24    2    3    3    0    0  0.46176100148E+02 -0.12341111295E+03 -0.55727217840E+02  0.15914914407E+03  0.69716513300E+02 0.  0.
         -6    2    1    2    0  502  0.17405794256E+02  0.22572958714E+03  0.27575746058E+03  0.39612687184E+03  0.17209739494E+03 0.  0.
        -24    2    5    5    0    0  0.30875787759E+02  0.23726041193E+03  0.21362331170E+03  0.33134151005E+03  0.83105112023E+02 0.  0.
          5    1    3    3  501    0 -0.63581894404E+02 -0.10231847419E+03  0.35514568616E+02  0.12567856636E+03  0.47000000000E+01 0. -1.
        -11    1    4    4    0    0 -0.36076022355E+01 -0.69868781393E+02 -0.49643856209E+02  0.85785627389E+02  0.00000000000E+00 0.  1.
         12    1    4    4    0    0  0.49783702383E+02 -0.53542331553E+02 -0.60833616308E+01  0.73363516681E+02  0.00000000000E+00 0. -1.
         -5    1    5    5    0  502 -0.13469993503E+02 -0.11530824787E+02  0.62134148877E+02  0.64785361787E+02  0.47000000000E+01 0.  1.
         11    1    6    6    0    0  0.19129835925E+02  0.17655898356E+03  0.20104040463E+03  0.26824665812E+03  0.00000000000E+00 0. -1.
        -12    1    6    6    0    0  0.11745951834E+02  0.60701428368E+02  0.12582907074E+02  0.63094851937E+02  0.00000000000E+00 0.  1.
</event>
<event>
12    1  0.8747122E-002  0.1888003E+03  0.7818608E-02  0.1160211E+00
         21   -1    0    0  501  502  0.00000000000E+00  0.00000000000E+00  0.46357240725E+02  0.46357240725E+02  0.00000000000E+00 0.  1.
         21   -1    0    0  502  503 -0.00000000000E+00 -0.00000000000E+00 -0.10492632220E+04  0.10492632220E+04  0.00000000000E+00 0. -1.
         -6    2    1    2    0  503  0.68436685300E+02 -0.22424071234E+02 -0.79326001937E+03  0.81541830922E+03  0.17452547612E+03 0.  0.
        -24    2    3    3    0    0 -0.11066657454E+02  0.38215400852E+02 -0.40625948589E+03  0.41568160838E+03  0.78495489685E+02 0.  0.
          6    2    1    2  501    0 -0.68436685300E+02  0.22424071234E+02 -0.20964596188E+03  0.28020215348E+03  0.17139252789E+03 0.  0.
         24    2    5    5    0    0 -0.78629771134E+02  0.71872187009E+02 -0.16199961564E+03  0.21062285007E+03  0.82279142747E+02 0.  0.
          5    1    5    5  501    0  0.10193085834E+02 -0.49448115775E+02 -0.47646346241E+02  0.69579303407E+02  0.47000000000E+01 0. -1.
        -11    1    6    6    0    0 -0.46179754951E+02  0.81799861294E+02 -0.14474326570E+03  0.17255260079E+03  0.00000000000E+00 0.  1.
         12    1    6    6    0    0 -0.32450016183E+02 -0.99276742841E+01 -0.17256349940E+02  0.38070249280E+02  0.00000000000E+00 0. -1.
         -5    1    3    3    0  503  0.79503342754E+02 -0.60639472086E+02 -0.38700053348E+03  0.39973670084E+03  0.47000000000E+01 0.  1.
         13    1    4    4    0    0  0.19549878618E+02 -0.14251868028E+02 -0.72250838331E+02  0.76193812976E+02  0.00000000000E+00 0. -1.
        -14    1    4    4    0    0 -0.30616536072E+02  0.52467268879E+02 -0.33400864756E+03  0.33948779540E+03  0.00000000000E+00 0.  1.
</event>
<event>
12    1  0.8747122E-002  0.2240599E+03  0.7818608E-02  0.1131055E+00
         21   -1    0    0  503  502  0.00000000000E+00  0.00000000000E+00  0.89287966519E+02  0.89287966519E+02  0.00000000000E+00 0. -1.
         21   -1    0    0  501  503 -0.00000000000E+00 -0.00000000000E+00 -0.66350821411E+03  0.66350821411E+03  0.00000000000E+00 0. -1.
          6    2    1    2  501    0 -0.85718626675E+02 -0.11494675102E+03 -0.13797148165E+03  0.26237207570E+03  0.17100449652E+03 0.  0.
         24    2    3    3    0    0  0.55764574987E+01 -0.51023670148E+02 -0.14755199675E+02  0.96163487456E+02  0.79969923150E+02 0.  0.
         -6    2    1    2    0  502  0.85718626675E+02  0.11494675102E+03 -0.43624876594E+03  0.49042410493E+03  0.17216962096E+03 0.  0.
        -24    2    5    5    0    0  0.54564105923E+01  0.10293740063E+03 -0.18318899568E+03  0.22462797036E+03  0.79206288035E+02 0.  0.
          5    1    3    3  501    0 -0.91295084173E+02 -0.63923080874E+02 -0.12321628198E+03  0.16620858825E+03  0.47000000000E+01 0. -1.
        -13    1    4    4    0    0 -0.16795263920E+02  0.11223777604E+01 -0.32593241535E+02  0.36683238893E+02  0.00000000000E+00 0.  1.
         14    1    4    4    0    0  0.22371721418E+02 -0.52146047908E+02  0.17838041859E+02  0.59480248563E+02  0.00000000000E+00 0. -1.
         -5    1    5    5    0  502  0.80262216082E+02  0.12009350390E+02 -0.25305977026E+03  0.26579613457E+03  0.47000000000E+01 0.  1.
         11    1    6    6    0    0  0.25584575824E+02  0.74349707100E+02 -0.67032853792E+02  0.10332401925E+03  0.00000000000E+00 0. -1.
        -12    1    6    6    0    0 -0.20128165232E+02  0.28587693532E+02 -0.11615614189E+03  0.12130395111E+03  0.00000000000E+00 0.  1.
</event>
<event>
12    1  0.8747122E-002  0.2291839E+03  0.7818608E-02  0.1127388E+00
         21   -1    0    0  503  502  0.00000000000E+00  0.00000000000E+00  0.12892241736E+03  0.12892241736E+03  0.00000000000E+00 0.  1.
         21   -1    0    0  501  503 -0.00000000000E+00 -0.00000000000E+00 -0.48848528351E+03  0.48848528351E+03  0.00000000000E+00 0.  1.
          6    2    1    2  501    0 -0.12788950403E+03  0.81512697924E+02 -0.30719428797E+03  0.38326701668E+03  0.17182907306E+03 0.  0.
         24    2    3    3    0    0 -0.11426810448E+03 -0.19990994469E+01 -0.22782111001E+03  0.26715519899E+03  0.80051521440E+02 0.  0.
         -6    2    1    2    0  502  0.12788950403E+03 -0.81512697924E+02 -0.52368578180E+02  0.23414068420E+03  0.17052667490E+03 0.  0.
        -24    2    5    5    0    0  0.26884243079E+02  0.16974491260E+02 -0.55662099310E+01  0.85431771063E+02  0.79099361151E+02 0.  0.
          5    1    3    3  501    0 -0.13621399553E+02  0.83511797371E+02 -0.79373177958E+02  0.11611181768E+03  0.47000000000E+01 0. -1.
        -11    1    4    4    0    0 -0.12467865215E+03  0.80660261342E+01 -0.20729817167E+03  0.24203792897E+03  0.00000000000E+00 0.  1.
         12    1    4    4    0    0  0.10410547671E+02 -0.10065125581E+02 -0.20522938336E+02  0.25117270029E+02  0.00000000000E+00 0. -1.
         -5    1    5    5    0  502  0.10100526095E+03 -0.98487189184E+02 -0.46802368249E+02  0.14870891314E+03  0.47000000000E+01 0.  1.
         11    1    6    6    0    0 -0.12871667864E+02 -0.23971878192E+02  0.41986999711E+01  0.27531070795E+02  0.00000000000E+00 0. -1.
        -12    1    6    6    0    0  0.39755910943E+02  0.40946369452E+02 -0.97649099020E+01  0.57900700268E+02  0.00000000000E+00 0.  1.
</event>
<event>
12    1  0.8747122E-002  0.2562153E+03  0.7818608E-02  0.1109601E+00
         21   -1    0    0  501  502  0.00000000000E+00  0.00000000000E+00  0.93813273451E+03  0.93813273451E+03  0.00000000000E+00 0. -1.
         21   -1    0    0  502  503 -0.00000000000E+00 -0.00000000000E+00 -0.18156107513E+03  0.18156107513E+03  0.00000000000E+00 0.  1.
         -6    2    1    2    0  503  0.15763071251E+03  0.10362974371E+03 -0.61475950561E+02  0.26246095969E+03  0.17181355463E+03 0.  0.
        -24    2    3    3    0    0  0.98725687401E+01  0.35932604882E+02 -0.50078418812E+02  0.99465973918E+02  0.77440378548E+02 0.  0.
          6    2    1    2  501    0 -0.15763071251E+03 -0.10362974371E+03  0.81804760994E+03  0.85723284995E+03  0.17337733876E+03 0.  0.
         24    2    5    5    0    0 -0.13515646250E+03 -0.16317432325E+02  0.41132638261E+03  0.44061218509E+03  0.80101040308E+02 0.  0.
          5    1    5    5  501    0 -0.22474250009E+02 -0.87312311384E+02  0.40672122732E+03  0.41662066486E+03  0.47000000000E+01 0. -1.
        -11    1    6    6    0    0 -0.18348595160E+02 -0.15707871484E+01  0.73487240134E+01  0.19827810299E+02  0.00000000000E+00 0.  1.
         12    1    6    6    0    0 -0.11680786734E+03 -0.14746645177E+02  0.40397765860E+03  0.42078437479E+03  0.00000000000E+00 0. -1.
         -5    1    3    3    0  503  0.14775814377E+03  0.67697138827E+02 -0.11397531749E+02  0.16299498577E+03  0.47000000000E+01 0.  1.
         13    1    4    4    0    0  0.17146112493E+01 -0.22230402271E+02 -0.21955064176E-01  0.22296438256E+02  0.00000000000E+00 0. -1.
        -14    1    4    4    0    0  0.81579574907E+01  0.58163007153E+02 -0.50056463748E+02  0.77169535663E+02  0.00000000000E+00 0.  1.
</event>
<event>
12    1  0.8747122E-002  0.2081335E+03  0.7818608E-02  0.1145675E+00
         21   -1    0    0  501  502  0.00000000000E+00  0.00000000000E+00  0.36472548423E+03  0.36472548423E+03  0.00000000000E+00 0.  1.
         21   -1    0    0  502  503 -0.00000000000E+00 -0.00000000000E+00 -0.11376369060E+03  0.11376369060E+03  0.00000000000E+00 0. -1.
         -6    2    1    2    0  503  0.79597159371E+02  0.14027286730E+02  0.96803737983E+02  0.22954417971E+03  0.19179961991E+03 0.  0.
        -24    2    3    3    0    0  0.40005817076E+02 -0.27024964424E+02 -0.23076115895E+02  0.96705815237E+02  0.80552426865E+02 0.  0.
          6    2    1    2  501    0 -0.79597159371E+02 -0.14027286730E+02  0.15415805565E+03  0.24894499512E+03  0.17797874009E+03 0.  0.
         24    2    5    5    0    0 -0.10816729923E+03  0.34511693598E+02  0.10166756187E+03  0.17181116701E+03  0.79319369362E+02 0.  0.
          5    1    5    5  501    0  0.28570139854E+02 -0.48538980327E+02  0.52490493776E+02  0.77133828113E+02  0.47000000000E+01 0. -1.
        -11    1    6    6    0    0 -0.65720336946E+02  0.30567933197E+02  0.10658892925E+03  0.12889825858E+03  0.00000000000E+00 0.  1.
         12    1    6    6    0    0 -0.42446962279E+02  0.39437604008E+01 -0.49213673740E+01  0.42912908427E+02  0.00000000000E+00 0. -1.
         -5    1    3    3    0  503  0.39591342295E+02  0.41052251154E+02  0.11987985388E+03  0.13283836447E+03  0.47000000000E+01 0.  1.
         13    1    4    4    0    0  0.13324864886E+02  0.15204974658E+02 -0.39291166377E+02  0.44187543876E+02  0.00000000000E+00 0. -1.
        -14    1    4    4    0    0  0.26680952190E+02 -0.42229939081E+02  0.16215050482E+02  0.52518271361E+02  0.00000000000E+00 0.  1.
</event>
<event>
12    1  0.8747122E-002  0.1826710E+03  0.7818608E-02  0.1166269E+00
         21   -1    0    0  501  502  0.00000000000E+00  0.00000000000E+00  0.21234113668E+03  0.21234113668E+03  0.00000000000E+00 0. -1.
         21   -1    0    0  502  503 -0.00000000000E+00 -0.00000000000E+00 -0.19240633500E+03  0.19240633500E+03  0.00000000000E+00 0. -1.
         -6    2    1    2    0  503 -0.81550831532E+01 -0.58287017345E+02 -0.81128964285E+02  0.19598310092E+03  0.16841491985E+03 0.  0.
        -24    2    3    3    0    0 -0.27332140269E+02 -0.73258076678E+02 -0.17174012579E+01  0.11279549079E+03  0.81277804994E+02 0.  0.
          6    2    1    2  501    0  0.81550831532E+01  0.58287017345E+02  0.10106376596E+03  0.20876437077E+03  0.17293003192E+03 0.  0.
         24    2    5    5    0    0  0.67384340109E+02  0.28914141393E+02  0.34395260298E+02  0.11475559262E+03  0.81296588133E+02 0.  0.
          5    1    5    5  501    0 -0.59229256956E+02  0.29372875952E+02  0.66668505667E+02  0.94008778149E+02  0.47000000000E+01 0. -1.
        -11    1    6    6    0    0  0.73802585317E+01  0.17820143947E+02 -0.23662783868E+02  0.30527906687E+02  0.00000000000E+00 0.  1.
         12    1    6    6    0    0  0.60004081577E+02  0.11093997446E+02  0.58058044166E+02  0.84227685933E+02  0.00000000000E+00 0. -1.
         -5    1    3    3    0  503  0.19177057116E+02  0.14971059333E+02 -0.79411563027E+02  0.83187610133E+02  0.47000000000E+01 0.  1.
         13    1    4    4    0    0 -0.69175696379E+00 -0.83492504419E+02 -0.69385879829E+01  0.83783177459E+02  0.00000000000E+00 0. -1.
        -14    1    4    4    0    0 -0.26640383305E+02  0.10234427742E+02  0.52211867250E+01  0.29012313328E+02  0.00000000000E+00 0.  1.
</event>
<event>
12    1  0.8747122E-002  0.1766914E+03  0.7818608E-02  0.1171791E+00
         21   -1    0    0  503  502  0.00000000000E+00  0.00000000000E+00  0.14590875229E+03  0.14590875229E+03  0.00000000000E+00 0.  1.
         21   -1    0    0  501  503 -0.00000000000E+00 -0.00000000000E+00 -0.10775178330E+04  0.10775178330E+04  0.00000000000E+00 0.  1.
          6    2    1    2  501    0  0.43765226770E+01 -0.43059615872E+02 -0.10153366937E+04  0.10305961721E+04  0.17130844693E+03 0.  0.
         24    2    3    3    0    0 -0.37844627585E+02  0.19274991147E+02 -0.44304649841E+03  0.45335585270E+03  0.86241453517E+02 0.  0.
         -6    2    1    2    0  502 -0.43765226770E+01  0.43059615872E+02  0.83727612923E+02  0.19283041322E+03  0.16822595111E+03 0.  0.
        -24    2    5    5    0    0 -0.19494255543E+02 -0.25413926175E+02  0.39413425668E+01  0.86504918891E+02  0.80260034689E+02 0.  0.
          5    1    3    3  501    0  0.42221150262E+02 -0.62334607020E+02 -0.57229019524E+03  0.57724031939E+03  0.47000000000E+01 0. -1.
        -11    1    4    4    0    0 -0.13542056897E+02  0.37061766031E+02 -0.39278747618E+03  0.39476444021E+03  0.00000000000E+00 0.  1.
         12    1    4    4    0    0 -0.24302570688E+02 -0.17786774884E+02 -0.50259022227E+02  0.58591412493E+02  0.00000000000E+00 0. -1.
         -5    1    5    5    0  502  0.15117732866E+02  0.68473542047E+02  0.79786270357E+02  0.10632549433E+03  0.47000000000E+01 0.  1.
         13    1    6    6    0    0 -0.37141945727E+01 -0.25878669376E+02  0.39632158979E+02  0.47478508774E+02  0.00000000000E+00 0. -1.
        -14    1    6    6    0    0 -0.15780060970E+02  0.46474320151E+00 -0.35690816412E+02  0.39026410117E+02  0.00000000000E+00 0.  1.
</event>
<event>
12    1  0.8747122E-002  0.3713547E+03  0.7818608E-02  0.1054220E+00
         21   -1    0    0  503  502  0.00000000000E+00  0.00000000000E+00  0.20925573135E+03  0.20925573135E+03  0.00000000000E+00 0. -1.
         21   -1    0    0  501  503 -0.00000000000E+00 -0.00000000000E+00 -0.65908695255E+03  0.65908695255E+03  0.00000000000E+00 0.  1.
          6    2    1    2  501    0 -0.32884863126E+03  0.20656311814E+02 -0.24099444303E+03  0.44269929595E+03  0.17127825187E+03 0.  0.
         24    2    3    3    0    0 -0.13911678944E+03 -0.13285549564E+02 -0.17825306388E+03  0.23994626289E+03  0.79183756940E+02 0.  0.
         -6    2    1    2    0  502  0.32884863126E+03 -0.20656311814E+02 -0.20883677817E+03  0.42564338796E+03  0.17026857696E+03 0.  0.
        -24    2    5    5    0    0  0.73803782198E+02 -0.33716311401E+02 -0.86431772742E+02  0.14240583046E+03  0.78899818060E+02 0.  0.
          5    1    3    3  501    0 -0.18973184182E+03  0.33941861378E+02 -0.62741379147E+02  0.20275303305E+03  0.47000000000E+01 0. -1.
        -11    1    4    4    0    0 -0.12821058476E+03  0.10986618265E+02 -0.12020902420E+03  0.17609335400E+03  0.00000000000E+00 0.  1.
         12    1    4    4    0    0 -0.10906204683E+02 -0.24272167829E+02 -0.58044039677E+02  0.63852908890E+02  0.00000000000E+00 0. -1.
         -5    1    5    5    0  502  0.25504484906E+03  0.13059999587E+02 -0.12240500543E+03  0.28323755750E+03  0.47000000000E+01 0.  1.
         13    1    6    6    0    0  0.28319506141E+02  0.21182291209E+02 -0.77028672799E+01  0.36194171537E+02  0.00000000000E+00 0. -1.
        -14    1    6    6    0    0  0.45484276058E+02 -0.54898602610E+02 -0.78728905462E+02  0.10621165893E+03  0.00000000000E+00 0.  1.
</event>
<event>
12    1  0.8747122E-002  0.1881884E+03  0.7818608E-02  0.1162658E+00
         21   -1    0    0  503  502  0.00000000000E+00  0.00000000000E+00  0.16561102470E+03  0.16561102470E+03  0.00000000000E+00 0. -1.
         21   -1    0    0  501  503 -0.00000000000E+00 -0.00000000000E+00 -0.27495898117E+03  0.27495898117E+03  0.00000000000E+00 0. -1.
          6    2    1    2  501    0 -0.57806544296E+01 -0.46823987401E+02 -0.16714514891E+03  0.24370613226E+03  0.17096571684E+03 0.  0.
         24    2    3    3    0    0  0.18526707043E+02  0.32131773357E+02 -0.55057833195E+02  0.10438450320E+03  0.80554762614E+02 0.  0.
         -6    2    1    2    0  502  0.57806544296E+01  0.46823987401E+02  0.57797192441E+02  0.19686387361E+03  0.18217839476E+03 0.  0.
        -24    2    5    5    0    0 -0.49105058800E+02 -0.13299577948E+02 -0.69404008223E+01  0.92746965243E+02  0.77237586866E+02 0.  0.
          5    1    3    3  501    0 -0.24307361473E+02 -0.78955760759E+02 -0.11208731572E+03  0.13932162906E+03  0.47000000000E+01 0. -1.
        -13    1    4    4    0    0  0.10663392374E+02 -0.92193543342E+01  0.16292157365E+02  0.21543881333E+02  0.00000000000E+00 0.  1.
         14    1    4    4    0    0  0.78633146688E+01  0.41351127692E+02 -0.71349990560E+02  0.82840621870E+02  0.00000000000E+00 0. -1.
         -5    1    5    5    0  502  0.54885713230E+02  0.60123565349E+02  0.64737593263E+02  0.10411690837E+03  0.47000000000E+01 0.  1.
         13    1    6    6    0    0  0.10013930833E+02  0.21037568797E+02  0.35870992510E+01  0.23573828553E+02  0.00000000000E+00 0. -1.
        -14    1    6    6    0    0 -0.59118989633E+02 -0.34337146744E+02 -0.10527500073E+02  0.69173136690E+02  0.00000000000E+00 0.  1.
</event>
<event>
12    1  0.8747122E-002  0.2038159E+03  0.7818608E-02  0.1146560E+00
         21   -1    0    0  503  502  0.00000000000E+00  0.00000000000E+00  0.26247998580E+03  0.26247998580E+03  0.00000000000E+00 0.  1.
         21   -1    0    0  501  503 -0.00000000000E+00 -0.00000000000E+00 -0.28304181447E+03  0.28304181447E+03  0.00000000000E+00 0.  1.
          6    2    1    2  501    0  0.19315587645E+01 -0.10901998509E+03 -0.19138785798E+03  0.27958940617E+03  0.17219708416E+03 0.  0.
         24    2    3    3    0    0 -0.37874163560E+02 -0.59749414222E+01 -0.49095313496E+02  0.99389420682E+02  0.77445173806E+02 0.  0.
         -6    2    1    2    0  502 -0.19315587645E+01  0.10901998509E+03  0.17082602930E+03  0.26593239410E+03  0.17219006323E+03 0.  0.
        -24    2    5    5    0    0 -0.43139575482E+02  0.12206755556E+03  0.16145969842E+03  0.22145590716E+03  0.78816073908E+02 0.  0.
          5    1    3    3  501    0  0.39805722324E+02 -0.10304504367E+03 -0.14229254448E+03  0.18019998549E+03  0.47000000000E+01 0. -1.
        -11    1    4    4    0    0 -0.49855018249E+02 -0.29630105782E+02 -0.42957589866E+02  0.72172159039E+02  0.00000000000E+00 0.  1.
         12    1    4    4    0    0  0.11980854689E+02  0.23655164360E+02 -0.61377236299E+01  0.27217261643E+02  0.00000000000E+00 0. -1.
         -5    1    5    5    0  502  0.41208016717E+02 -0.13047570467E+02  0.93663308779E+01  0.44476486945E+02  0.47000000000E+01 0.  1.
         13    1    6    6    0    0 -0.14303637199E+02  0.23208946750E+02 -0.29882173771E+01  0.27425876276E+02  0.00000000000E+00 0. -1.
        -14    1    6    6    0    0 -0.28835938283E+02  0.98858608807E+02  0.16444791580E+03  0.19403003088E+03  0.00000000000E+00 0.  1.
</event>
<event>
12    1  0.8747122E-002  0.1908551E+03  0.7818608E-02  0.1157692E+00
         21   -1    0    0  501  502  0.00000000000E+00  0.00000000000E+00  0.48447622453E+03  0.48447622453E+03  0.00000000000E+00 0. -1.
         21   -1    0    0  502  503 -0.00000000000E+00 -0.00000000000E+00 -0.81330661470E+02  0.81330661470E+02  0.00000000000E+00 0. -1.
         -6    2    1    2    0  503 -0.49515274145E+02 -0.61753974754E+02  0.12380997078E+03  0.22749630263E+03  0.17366733450E+03 0.  0.
        -24    2    3    3    0    0  0.22303043210E+02 -0.24688143979E+02  0.91792257594E+01  0.87160832333E+02  0.80036381214E+02 0.  0.
          6    2    1    2  501    0  0.49515274145E+02  0.61753974754E+02  0.27933559228E+03  0.33831058337E+03  0.17366738881E+03 0.  0.
         24    2    5    5    0    0  0.86397618513E+02  0.21795038041E+02  0.24707850713E+03  0.27491000379E+03  0.81167415438E+02 0.  0.
          5    1    5    5  501    0 -0.36882344368E+02  0.39958936712E+02  0.32257085146E+02  0.63400579582E+02  0.47000000000E+01 0. -1.
        -11    1    6    6    0    0 -0.12404395536E+02  0.10113650680E+02  0.69904218584E+02  0.71713002548E+02  0.00000000000E+00 0.  1.
         12    1    6    6    0    0  0.98802014049E+02  0.11681387361E+02  0.17717428855E+03  0.20319700124E+03  0.00000000000E+00 0. -1.
         -5    1    3    3    0  503 -0.71818317355E+02 -0.37065830775E+02  0.11463074502E+03  0.14033547029E+03  0.47000000000E+01 0.  1.
         13    1    4    4    0    0 -0.65501341733E+01 -0.48620515562E+02  0.75618681940E+01  0.49639103959E+02  0.00000000000E+00 0. -1.
        -14    1    4    4    0    0  0.28853177383E+02  0.23932371583E+02  0.16173575654E+01  0.37521728374E+02  0.00000000000E+00 0.  1.
</event>
<event>
12    1  0.8747122E-002  0.1991936E+03  0.7818608E-02  0.1150574E+00
         21   -1    0    0  501  502  0.00000000000E+00  0.00000000000E+00  0.21814505715E+03  0.21814505715E+03  0.00000000000E+00 0.  1.
         21   -1    0    0  502  503 -0.00000000000E+00 -0.00000000000E+00 -0.18129197349E+03  0.18129197349E+03  0.00000000000E+00 0.  1.
         -6    2    1    2    0  503  0.41727646963E+02 -0.90098966646E+02  0.22067001397E+02  0.19969536360E+03  0.17184954286E+03 0.  0.
        -24    2    3    3    0    0  0.15810067954E+01 -0.89485747736E+02 -0.31741324686E+02  0.13239339699E+03  0.92251293991E+02 0.  0.
          6    2    1    2  501    0 -0.41727646963E+02  0.90098966646E+02  0.14786082268E+02  0.19974166704E+03  0.17268203442E+03 0.  0.
         24    2    5    5    0    0 -0.83472138680E+02  0.91867429651E+02  0.36634627503E+02  0.15235834741E+03  0.80397434828E+02 0.  0.
          5    1    5    5  501    0  0.41744491718E+02 -0.17684630052E+01 -0.21848545235E+02  0.47383319629E+02  0.47000000000E+01 0. -1.
        -13    1    6    6    0    0 -0.47024442233E+02  0.77338322238E+02 -0.10398286947E+02  0.91107840635E+02  0.00000000000E+00 0.  1.
         14    1    6    6    0    0 -0.36447696448E+02  0.14529107413E+02  0.47032914450E+02  0.61250506775E+02  0.00000000000E+00 0. -1.
         -5    1    3    3    0  503  0.40146640167E+02 -0.61321890951E+00  0.53808326083E+02  0.67301966613E+02  0.47000000000E+01 0.  1.
         11    1    4    4    0    0 -0.21416277971E+02  0.53613093086E+00  0.17113325256E+02  0.27419159357E+02  0.00000000000E+00 0. -1.
        -12    1    4    4    0    0  0.22997284766E+02 -0.90021878667E+02 -0.48854649942E+02  0.10497423763E+03  0.00000000000E+00 0.  1.
</event>
<event>
12    1  0.8747122E-002  0.2240352E+03  0.7818608E-02  0.1131065E+00
         21   -1    0    0  501  502  0.00000000000E+00  0.00000000000E+00  0.84447149998E+02  0.84447149998E+02  0.00000000000E+00 0. -1.
         21   -1    0    0  502  503 -0.00000000000E+00 -0.00000000000E+00 -0.61314793022E+03  0.61314793022E+03  0.00000000000E+00 0. -1.
         -6    2    1    2    0  503 -0.91647559857E+02  0.10859379624E+03 -0.32945553369E+03  0.39841273614E+03  0.17320471076E+03 0.  0.
        -24    2    3    3    0    0 -0.12825601042E+03  0.93730078792E+02 -0.22841100731E+03  0.28981625802E+03  0.81159985651E+02 0.  0.
          6    2    1    2  501    0  0.91647559857E+02 -0.10859379624E+03 -0.19924524653E+03  0.29918234408E+03  0.17210322174E+03 0.  0.
         24    2    5    5    0    0  0.91382010033E+02 -0.19915847083E+02 -0.15900160685E+03  0.20168624304E+03  0.81538438347E+02 0.  0.
          5    1    5    5  501    0  0.26554982402E+00 -0.88677949156E+02 -0.40243639685E+02  0.97496101042E+02  0.47000000000E+01 0. -1.
        -13    1    6    6    0    0  0.10003453117E+02  0.12238375862E+02 -0.86843844674E+02  0.88270608221E+02  0.00000000000E+00 0.  1.
         14    1    6    6    0    0  0.81378556917E+02 -0.32154222945E+02 -0.72157762173E+02  0.11341563482E+03  0.00000000000E+00 0. -1.
         -5    1    3    3    0  503  0.36608450565E+02  0.14863717447E+02 -0.10104452638E+03  0.10859647812E+03  0.47000000000E+01 0.  1.
         11    1    4    4    0    0 -0.28232807991E+02  0.53933329421E+02 -0.40065910489E+02  0.72877792590E+02  0.00000000000E+00 0. -1.
        -12    1    4    4    0    0 -0.10002320243E+03  0.39796749370E+02 -0.18834509682E+03  0.21693846543E+03  0.00000000000E+00 0.  1.
</event>
<event>
12    1  0.8747122E-002  0.1897279E+03  0.7818608E-02  0.1160764E+00
         21   -1    0    0  503  502  0.00000000000E+00  0.00000000000E+00  0.23190852771E+03  0.23190852771E+03  0.00000000000E+00 0.  1.
         21   -1    0    0  501  503 -0.00000000000E+00 -0.00000000000E+00 -0.14883968137E+03  0.14883968137E+03  0.00000000000E+00 0.  1.
          6    2    1    2  501    0  0.15294138854E+02 -0.47673351640E+02  0.54466701028E+02  0.18887651156E+03  0.17378451013E+03 0.  0.
         24    2    3    3    0    0  0.74428702629E+02 -0.40927160995E+02  0.58687033049E+02  0.12902411877E+03  0.77384695473E+02 0.  0.
         -6    2    1    2    0  502 -0.15294138854E+02  0.47673351640E+02  0.28602145309E+02  0.19187169752E+03  0.18300274985E+03 0.  0.
        -24    2    5    5    0    0  0.11278343358E+02 -0.43752836966E+02  0.22609525120E+02  0.96358105448E+02  0.82049875611E+02 0.  0.
          5    1    3    3  501    0 -0.59134563775E+02 -0.67461906454E+01 -0.42203320211E+01  0.59852392796E+02  0.47000000000E+01 0. -1.
        -13    1    4    4    0    0  0.73272199344E+01 -0.46051005359E+02  0.32370473424E+02  0.56764696742E+02  0.00000000000E+00 0.  1.
         14    1    4    4    0    0  0.67101482695E+02  0.51238443645E+01  0.26316559625E+02  0.72259422025E+02  0.00000000000E+00 0. -1.
         -5    1    5    5    0  502 -0.26572482212E+02  0.91426188606E+02  0.59926201885E+01  0.95513592073E+02  0.47000000000E+01 0.  1.
         13    1    6    6    0    0  0.11447296269E+02 -0.58748402476E+02 -0.97970739550E+01  0.60649798379E+02  0.00000000000E+00 0. -1.
        -14    1    6    6    0    0 -0.16895291150E+00  0.14995565510E+02  0.32406599076E+02  0.35708307068E+02  0.00000000000E+00 0.  1.
</event>
<event>
12    1  0.8747122E-002  0.1760351E+03  0.7818608E-02  0.1172105E+00
         21   -1    0    0  501  502  0.00000000000E+00  0.00000000000E+00  0.15455699433E+03  0.15455699433E+03  0.00000000000E+00 0. -1.
         21   -1    0    0  502  503 -0.00000000000E+00 -0.00000000000E+00 -0.26826216587E+03  0.26826216587E+03  0.00000000000E+00 0. -1.
         -6    2    1    2    0  503 -0.13058407576E+02 -0.26940860220E+02 -0.16435400245E+03  0.23964261948E+03  0.17181389639E+03 0.  0.
        -24    2    3    3    0    0 -0.59798204511E+02 -0.47698649298E+02 -0.15080930287E+03  0.18652912486E+03  0.78731710122E+02 0.  0.
          6    2    1    2  501    0  0.13058407576E+02  0.26940860220E+02  0.50648830911E+02  0.18317654072E+03  0.17347048463E+03 0.  0.
         24    2    5    5    0    0  0.22210920343E+02 -0.35122378009E+02  0.77052290052E+02  0.11495010388E+03  0.74495399585E+02 0.  0.
          5    1    5    5  501    0 -0.91525127671E+01  0.62063238229E+02 -0.26403459141E+02  0.68226436841E+02  0.47000000000E+01 0. -1.
        -13    1    6    6    0    0  0.93961479088E+01 -0.36206884724E+02  0.58698073057E+00  0.37410835908E+02  0.00000000000E+00 0.  1.
         14    1    6    6    0    0  0.12814772434E+02  0.10845067154E+01  0.76465309321E+02  0.77539267968E+02  0.00000000000E+00 0. -1.
         -5    1    3    3    0  503  0.46739796935E+02  0.20757789077E+02 -0.13544699575E+02  0.53113494627E+02  0.47000000000E+01 0.  1.
         13    1    4    4    0    0 -0.68650755614E+02 -0.86449162528E+01 -0.10418486605E+03  0.12506856974E+03  0.00000000000E+00 0. -1.
        -14    1    4    4    0    0  0.88525511039E+01 -0.39053733045E+02 -0.46624436827E+02  0.61460555116E+02  0.00000000000E+00 0.  1.
</event>
<event>
12    1  0.8747122E-002  0.2685385E+03  0.7818608E-02  0.1102341E+00
         21   -1    0    0  501  502  0.00000000000E+00  0.00000000000E+00  0.24766672193E+03  0.24766672193E+03  0.00000000000E+00 0.  1.
         21   -1    0    0  502  503 -0.00000000000E+00 -0.00000000000E+00 -0.29657688926E+03  0.29657688926E+03  0.00000000000E+00 0. -1.
         -6    2    1    2    0  503  0.20007300994E+03  0.38608435208E+02 -0.66547822453E+02  0.27666138282E+03  0.17490879764E+03 0.  0.
        -24    2    3    3    0    0  0.39023583610E+02  0.42475656518E+02  0.85389463009E+01  0.98863784509E+02  0.79838041115E+02 0.  0.
          6    2    1    2  501    0 -0.20007300994E+03 -0.38608435208E+02  0.17637655130E+02  0.26758222837E+03  0.17253794215E+03 0.  0.
         24    2    5    5    0    0 -0.81360603015E+02 -0.73955831321E+02  0.42856049726E+02  0.14109060257E+03  0.77336307299E+02 0.  0.
          5    1    5    5  501    0 -0.11871240693E+03  0.35347396112E+02 -0.25218394595E+02  0.12649162580E+03  0.47000000000E+01 0. -1.
        -11    1    6    6    0    0 -0.34279386376E+02  0.84128914284E+01 -0.35495288067E+01  0.35474670220E+02  0.00000000000E+00 0.  1.
         12    1    6    6    0    0 -0.47081216639E+02 -0.82368722749E+02  0.46405578532E+02  0.10561593235E+03  0.00000000000E+00 0. -1.
         -5    1    3    3    0  503  0.16104942633E+03 -0.38672213097E+01 -0.75086768754E+02  0.17779759831E+03  0.47000000000E+01 0.  1.
         11    1    4    4    0    0  0.49885896345E+02  0.35869128773E+02  0.34132271063E+02  0.70286620213E+02  0.00000000000E+00 0. -1.
        -12    1    4    4    0    0 -0.10862312735E+02  0.66065277447E+01 -0.25593324762E+02  0.28577164296E+02  0.00000000000E+00 0.  1.
</event>
<event>
12    1  0.8747122E-002  0.1831858E+03  0.7818608E-02  0.1164772E+00
         21   -1    0    0  501  502  0.00000000000E+00  0.00000000000E+00  0.23638478875E+03  0.23638478875E+03  0.00000000000E+00 0. -1.
         21   -1    0    0  502  503 -0.00000000000E+00 -0.00000000000E+00 -0.15506179134E+03  0.15506179134E+03  0.00000000000E+00 0. -1.
         -6    2    1    2    0  503  0.24001395631E+02 -0.60838717370E+02 -0.16344564759E+02  0.18391356439E+03  0.17111293887E+03 0.  0.
        -24    2    3    3    0    0 -0.11045792686E+02 -0.69439881456E+02 -0.63608242943E+02  0.12426265738E+03  0.80319940085E+02 0.  0.
          6    2    1    2  501    0 -0.24001395631E+02  0.60838717370E+02  0.97667562173E+02  0.20753301570E+03  0.17103678956E+03 0.  0.
         24    2    5    5    0    0 -0.45665235926E+02  0.82581748486E+02  0.21614186277E+02  0.12538505551E+03  0.79681742836E+02 0.  0.
          5    1    5    5  501    0  0.21663840295E+02 -0.21743031116E+02  0.76053375897E+02  0.82147960192E+02  0.47000000000E+01 0. -1.
        -11    1    6    6    0    0 -0.30349994567E+02 -0.44859776018E+01  0.20637849401E+02  0.36975221340E+02  0.00000000000E+00 0.  1.
         12    1    6    6    0    0 -0.15315241359E+02  0.87067726088E+02  0.97633687577E+00  0.88409834168E+02  0.00000000000E+00 0. -1.
         -5    1    3    3    0  503  0.35047188318E+02  0.86011640853E+01  0.47263678183E+02  0.59650907017E+02  0.47000000000E+01 0.  1.
         13    1    4    4    0    0  0.20014997333E+02 -0.52287483004E+02 -0.56047119118E+01  0.56267164428E+02  0.00000000000E+00 0. -1.
        -14    1    4    4    0    0 -0.31060790019E+02 -0.17152398452E+02 -0.58003531031E+02  0.67995492948E+02  0.00000000000E+00 0.  1.
</event>
<event>
12    1  0.8747122E-002  0.2864222E+03  0.7818608E-02  0.1092392E+00
         21   -1    0    0  503  502  0.00000000000E+00  0.00000000000E+00  0.53762359157E+03  0.53762359157E+03  0.00000000000E+00 0. -1.
         21   -1    0    0  501  503 -0.00000000000E+00 -0.00000000000E+00 -0.15234443087E+03  0.15234443087E+03  0.00000000000E+00 0. -1.
          6    2    1    2  501    0  0.16854763107E+03  0.15323954868E+03  0.20971707050E+03  0.35402202800E+03  0.17163823418E+03 0.  0.
         24    2    3    3    0    0  0.14197242642E+03  0.39853175606E+02  0.10816511939E+03  0.19943354241E+03  0.79558779012E+02 0.  0.
         -6    2    1    2    0  502 -0.16854763107E+03 -0.15323954868E+03  0.17556209019E+03  0.33594599444E+03  0.17362891592E+03 0.  0.
        -24    2    5    5    0    0 -0.70185423371E+02 -0.25815040096E+02  0.12616962337E+03  0.16750064701E+03  0.80902922914E+02 0.  0.
          5    1    3    3  501    0  0.26575204652E+02  0.11338637308E+03  0.10155195111E+03  0.15458848559E+03  0.47000000000E+01 0. -1.
        -13    1    4    4    0    0  0.70410780039E-01 -0.44938615654E+01  0.32139624561E+02  0.32452353017E+02  0.00000000000E+00 0.  1.
         14    1    4    4    0    0  0.14190201564E+03  0.44347037171E+02  0.76025494828E+02  0.16698118940E+03  0.00000000000E+00 0. -1.
         -5    1    5    5    0  502 -0.98362207699E+02 -0.12742450859E+03  0.49392466818E+02  0.16844534743E+03  0.47000000000E+01 0.  1.
         13    1    6    6    0    0 -0.59052966330E+02 -0.36242927867E+02  0.40028194905E+02  0.80019116716E+02  0.00000000000E+00 0. -1.
        -14    1    6    6    0    0 -0.11132457041E+02  0.10427887770E+02  0.86141428469E+02  0.87481530290E+02  0.00000000000E+00 0.  1.
</event>
<event>
12    1  0.8747122E-002  0.3282990E+03  0.7818608E-02  0.1072205E+00
         21   -1    0    0  501  502  0.00000000000E+00  0.00000000000E+00  0.17897554845E+03  0.17897554845E+03  0.00000000000E+00 0.  1.
         21   -1    0    0  502  503 -0.00000000000E+00 -0.00000000000E+00 -0.95361342438E+03  0.95361342438E+03  0.00000000000E+00 0.  1.
         -6    2    1    2    0  503  0.14163612080E+02 -0.27925537119E+03 -0.73461321220E+03  0.80463455814E+03  0.17203496845E+03 0.  0.
        -24    2    3    3    0    0  0.16196570062E+02 -0.12949576463E+03 -0.52547780035E+03  0.54735691985E+03  0.80257068891E+02 0.  0.
          6    2    1    2  501    0 -0.14163612080E+02  0.27925537119E+03 -0.40024663733E+02  0.32795441469E+03  0.16663719321E+03 0.  0.
         24    2    5    5    0    0 -0.11601647107E+02  0.27296245938E+03 -0.72991806316E+02  0.29396784538E+03  0.80288155279E+02 0.  0.
          5    1    5    5  501    0 -0.25619649725E+01  0.62929118093E+01  0.32967142583E+02  0.33986569313E+02  0.47000000000E+01 0. -1.
        -11    1    6    6    0    0  0.94231646480E+01  0.24134673158E+02 -0.31571283624E+02  0.40841454799E+02  0.00000000000E+00 0.  1.
         12    1    6    6    0    0 -0.21024811755E+02  0.24882778622E+03 -0.41420522692E+02  0.25312639058E+03  0.00000000000E+00 0. -1.
         -5    1    3    3    0  503 -0.20329579823E+01 -0.14975960656E+03 -0.20913541184E+03  0.25727763828E+03  0.47000000000E+01 0.  1.
         13    1    4    4    0    0 -0.25539603156E+02 -0.13825536599E+02 -0.75946684727E+02  0.81309997618E+02  0.00000000000E+00 0. -1.
        -14    1    4    4    0    0  0.41736173218E+02 -0.11567022803E+03 -0.44953111563E+03  0.46604692223E+03  0.00000000000E+00 0.  1.
</event>
<event>
12    1  0.8747122E-002  0.3194600E+03  0.7818608E-02  0.1076252E+00
         21   -1    0    0  503  502  0.00000000000E+00  0.00000000000E+00  0.15796450497E+03  0.15796450497E+03  0.00000000000E+00 0. -1.
         21   -1    0    0  501  503 -0.00000000000E+00 -0.00000000000E+00 -0.65137948644E+03  0.65137948644E+03  0.00000000000E+00 0.  1.
          6    2    1    2  501    0 -0.38477340831E+02 -0.26631331049E+03 -0.19414657669E+03  0.37382825253E+03  0.17219577245E+03 0.  0.
         24    2    3    3    0    0 -0.31740694357E+02 -0.13017896717E+03 -0.17846584204E+03  0.23654781956E+03  0.78426902229E+02 0.  0.
         -6    2    1    2    0  502  0.38477340831E+02  0.26631331049E+03 -0.29926840478E+03  0.43551573887E+03  0.16646049263E+03 0.  0.
        -24    2    5    5    0    0  0.46755045054E+01  0.74550398982E+02 -0.16880372806E+03  0.20108301880E+03  0.79749981268E+02 0.  0.
          5    1    3    3  501    0 -0.67366464738E+01 -0.13613434332E+03 -0.15680734652E+02  0.13728043297E+03  0.47000000000E+01 0. -1.
        -13    1    4    4    0    0  0.19144331305E+02 -0.11978848925E+02 -0.10375686511E+02  0.24852627894E+02  0.00000000000E+00 0.  1.
         14    1    4    4    0    0 -0.50885025662E+02 -0.11820011824E+03 -0.16809015553E+03  0.21169519167E+03  0.00000000000E+00 0. -1.
         -5    1    5    5    0  502  0.33801836325E+02  0.19176291151E+03 -0.13046467672E+03  0.23443272007E+03  0.47000000000E+01 0.  1.
         13    1    6    6    0    0  0.66243883277E+01  0.72047401408E+02 -0.65091287643E+02  0.97322075078E+02  0.00000000000E+00 0. -1.
        -14    1    6    6    0    0 -0.19488838222E+01  0.25029975735E+01 -0.10371244042E+03  0.10376094372E+03  0.00000000000E+00 0.  1.
</event>
<event>
12    1  0.8747122E-002  0.1958090E+03  0.7818608E-02  0.1155045E+00
         21   -1    0    0  501  502  0.00000000000E+00  0.00000000000E+00  0.27195292889E+03  0.27195292889E+03  0.00000000000E+00 0.  1.
         21   -1    0    0  502  503 -0.00000000000E+00 -0.00000000000E+00 -0.21002673501E+03  0.21002673501E+03  0.00000000000E+00 0.  1.
         -6    2    1    2    0  503  0.70847224759E+02  0.29680618886E+02 -0.11221918032E+03  0.22568633488E+03  0.18011360006E+03 0.  0.
        -24    2    3    3    0    0  0.19785035934E+02  0.86989369796E+02 -0.74164858902E+02  0.13988504446E+03  0.78158820772E+02 0.  0.
          6    2    1    2  501    0 -0.70847224759E+02 -0.29680618886E+02  0.17414537419E+03  0.25629332902E+03  0.17163738158E+03 0.  0.
         24    2    5    5    0    0 -0.88349353696E+02 -0.27712906539E+02  0.51810562139E+02  0.13260787050E+03  0.79541809650E+02 0.  0.
          5    1    5    5  501    0  0.17502128937E+02 -0.19677123466E+01  0.12233481206E+03  0.12368545852E+03  0.47000000000E+01 0. -1.
        -13    1    6    6    0    0 -0.53293250661E+02 -0.33791527408E+02 -0.73939051460E+01  0.63535090492E+02  0.00000000000E+00 0.  1.
         14    1    6    6    0    0 -0.35056103035E+02  0.60786208692E+01  0.59204467285E+02  0.69072780009E+02  0.00000000000E+00 0. -1.
         -5    1    3    3    0  503  0.51062188825E+02 -0.57308750911E+02 -0.38054321417E+02  0.85801290416E+02  0.47000000000E+01 0.  1.
         11    1    4    4    0    0  0.46140465371E+02  0.49051328590E+02 -0.23505749597E+02  0.71326682561E+02  0.00000000000E+00 0. -1.
        -12    1    4    4    0    0 -0.26355429436E+02  0.37938041207E+02 -0.50659109305E+02  0.68558361904E+02  0.00000000000E+00 0.  1.
</event>
<event>
12    1  0.8747122E-002  0.3134858E+03  0.7818608E-02  0.1078893E+00
         21   -1    0    0  501  502  0.00000000000E+00  0.00000000000E+00  0.12614602135E+03  0.12614602135E+03  0.00000000000E+00 0. -1.
         21   -1    0    0  502  503 -0.00000000000E+00 -0.00000000000E+00 -0.14080950810E+04  0.14080950810E+04  0.00000000000E+00 0.  1.
         -6    2    1    2    0  503 -0.26031388224E+03 -0.12927849541E+02 -0.11544786070E+04  0.11958300175E+04  0.17105008030E+03 0.  0.
        -24    2    3    3    0    0 -0.15411868484E+03  0.58391256124E+02 -0.72156016560E+03  0.74438311945E+03  0.79341339401E+02 0.  0.
          6    2    1    2  501    0  0.26031388224E+03  0.12927849541E+02 -0.12747045262E+03  0.33841108490E+03  0.17419213389E+03 0.  0.
         24    2    5    5    0    0  0.17848518199E+03  0.29193513162E+02 -0.15839012496E+02  0.19896870819E+03  0.81415300287E+02 0.  0.
          5    1    5    5  501    0  0.81828700251E+02 -0.16265663621E+02 -0.11163144012E+03  0.13944237671E+03  0.47000000000E+01 0. -1.
        -11    1    6    6    0    0  0.11355050812E+03  0.31243492811E+02 -0.47139992040E+02  0.12685445435E+03  0.00000000000E+00 0.  1.
         12    1    6    6    0    0  0.64934673872E+02 -0.20499796488E+01  0.31300979545E+02  0.72114253847E+02  0.00000000000E+00 0. -1.
         -5    1    3    3    0  503 -0.10619519740E+03 -0.71319105665E+02 -0.43291844143E+03  0.45144689800E+03  0.47000000000E+01 0.  1.
         11    1    4    4    0    0 -0.12232128200E+02  0.23496833809E+02 -0.44941436249E+02  0.52167603467E+02  0.00000000000E+00 0. -1.
        -12    1    4    4    0    0 -0.14188655664E+03  0.34894422315E+02 -0.67661872935E+03  0.69221551599E+03  0.00000000000E+00 0.  1.
</event>
<event>
12    1  0.8747122E-002  0.3095868E+03  0.7818608E-02  0.1080700E+00
         21   -1    0    0  503  502  0.00000000000E+00  0.00000000000E+00  0.72774827083E+02  0.72774827083E+02  0.00000000000E+00 0.  1.
         21   -1    0    0  501  503 -0.00000000000E+00 -0.00000000000E+00 -0.19512377537E+04  0.19512377537E+04  0.00000000000E+00 0. -1.
          6    2    1    2  501    0  0.23198414112E+03  0.10920445633E+03 -0.15173830313E+04  0.15483838536E+04  0.17116962145E+03 0.  0.
         24    2    3    3    0    0  0.14569321225E+03  0.27161072935E+02 -0.59377226848E+03  0.61711795580E+03  0.79402950637E+02 0.  0.
         -6    2    1    2    0  502 -0.23198414112E+03 -0.10920445633E+03 -0.36107989527E+03  0.47562872717E+03  0.17349853118E+03 0.  0.
        -24    2    5    5    0    0 -0.24178692831E+03 -0.68589795765E+02 -0.33285534392E+03  0.42498921109E+03  0.81594551193E+02 0.  0.
          5    1    3    3  501    0  0.86290928879E+02  0.82043383396E+02 -0.92361076284E+03  0.93126589780E+03  0.47000000000E+01 0. -1.
        -13    1    4    4    0    0  0.13762702881E+03  0.47850442343E+02 -0.50397555312E+03  0.52461626170E+03  0.00000000000E+00 0.  1.
         14    1    4    4    0    0  0.80661834313E+01 -0.20689369408E+02 -0.89796715361E+02  0.92501694099E+02  0.00000000000E+00 0. -1.
         -5    1    5    5    0  502  0.98027871809E+01 -0.40614660565E+02 -0.28224551345E+02  0.50639516072E+02  0.47000000000E+01 0.  1.
         11    1    6    6    0    0 -0.27938400478E+02 -0.39541120612E+02 -0.59381788961E+02  0.76617565223E+02  0.00000000000E+00 0. -1.
        -12    1    6    6    0    0 -0.21384852783E+03 -0.29048675154E+02 -0.27347355496E+03  0.34837164587E+03  0.00000000000E+00 0.  1.
</event>
<event>
12    1  0.8747122E-002  0.1834125E+03  0.7818608E-02  0.1164854E+00
         21   -1    0    0  501  502  0.00000000000E+00  0.00000000000E+00  0.10632985792E+03  0.10632985792E+03  0.00000000000E+00 0. -1.
         21   -1    0    0  502  503 -0.00000000000E+00 -0.00000000000E+00 -0.35405926585E+03  0.35405926585E+03  0.00000000000E+00 0. -1.
         -6    2    1    2    0  503 -0.26926725022E+02 -0.55307544692E+02 -0.20159301986E+03  0.27254338558E+03  0.17278940462E+03 0.  0.
        -24    2    3    3    0    0 -0.15279779485E+02  0.30056901769E+02 -0.61128747120E+02  0.10769484305E+03  0.82003454129E+02 0.  0.
          6    2    1    2  501    0  0.26926725022E+02  0.55307544692E+02 -0.46136388072E+02  0.18784573819E+03  0.17138693658E+03 0.  0.
         24    2    5    5    0    0 -0.11279979634E+02 -0.68563953078E+01 -0.76470831584E+02  0.10868529238E+03  0.76095049772E+02 0.  0.
          5    1    5    5  501    0  0.38206704656E+02  0.62163940000E+02  0.30334443513E+02  0.79160445806E+02  0.47000000000E+01 0. -1.
        -13    1    6    6    0    0 -0.13525110792E+02  0.28885497210E+02 -0.62644224286E+02  0.70296510635E+02  0.00000000000E+00 0.  1.
         14    1    6    6    0    0  0.22451311572E+01 -0.35741892518E+02 -0.13826607298E+02  0.38388781748E+02  0.00000000000E+00 0. -1.
         -5    1    3    3    0  503 -0.11646945537E+02 -0.85364446461E+02 -0.14046427274E+03  0.16484854254E+03  0.47000000000E+01 0.  1.
         11    1    4    4    0    0 -0.15620845812E+01 -0.11889615379E+02 -0.62402103759E+02  0.63543887320E+02  0.00000000000E+00 0. -1.
        -12    1    4    4    0    0 -0.13717694904E+02  0.41946517149E+02  0.12733566396E+01  0.44150955726E+02  0.00000000000E+00 0.  1.
</event>
<event>
12    1  0.8747122E-002  0.1728540E+03  0.7818608E-02  0.1175301E+00
         21   -1    0    0  501  502  0.00000000000E+00  0.00000000000E+00  0.68657507893E+02  0.68657507893E+02  0.00000000000E+00 0. -1.
         21   -1    0    0  502  503 -0.00000000000E+00 -0.00000000000E+00 -0.43140411650E+03  0.43140411650E+03  0.00000000000E+00 0. -1.
         -6    2    1    2    0  503  0.38895281028E+01 -0.48390352333E+01 -0.18457412924E+03  0.25181991435E+03  0.17119321070E+03 0.  0.
        -24    2    3    3    0    0 -0.65438706391E+02  0.65625169659E+01 -0.13103973626E+03  0.16336415862E+03  0.72049600413E+02 0.  0.
          6    2    1    2  501    0 -0.38895281028E+01  0.48390352333E+01 -0.17817247937E+03  0.24824171004E+03  0.17274249480E+03 0.  0.
         24    2    5    5    0    0  0.63002191234E+01  0.53220035568E+02 -0.41621915802E+02  0.10293961593E+03  0.77408757297E+02 0.  0.
          5    1    5    5  501    0 -0.10189747226E+02 -0.48381000335E+02 -0.13655056357E+03  0.14530209411E+03  0.47000000000E+01 0. -1.
        -11    1    6    6    0    0  0.10607880145E+02  0.57810214816E+02 -0.59711832684E+02  0.83785744735E+02  0.00000000000E+00 0.  1.
         12    1    6    6    0    0 -0.43076610214E+01 -0.45901792481E+01  0.18089916882E+02  0.19153871197E+02  0.00000000000E+00 0. -1.
         -5    1    3    3    0  503  0.69328234493E+02 -0.11401552199E+02 -0.53534392977E+02  0.88455755731E+02  0.47000000000E+01 0.  1.
         11    1    4    4    0    0 -0.12774303383E+02 -0.16797432939E+02 -0.90474617629E+02  0.92903137813E+02  0.00000000000E+00 0. -1.
        -12    1    4    4    0    0 -0.52664403008E+02  0.23359949905E+02 -0.40565118631E+02  0.70461020808E+02  0.00000000000E+00 0.  1.
</event>
<event>
12    1  0.8747122E-002  0.1798442E+03  0.7818608E-02  0.1168109E+00
         21   -1    0    0  503  502  0.00000000000E+00  0.00000000000E+00  0.36699923077E+03  0.36699923077E+03  0.00000000000E+00 0.  1.
         21   -1    0    0  501  503 -0.00000000000E+00 -0.00000000000E+00 -0.13525907677E+03  0.13525907677E+03  0.00000000000E+00 0. -1.
          6    2    1    2  501    0 -0.14045612565E+02  0.48210059264E+02 -0.32989828757E+02  0.18221782940E+03  0.17202767075E+03 0.  0.
         24    2    3    3    0    0 -0.51668758828E+02 -0.84480803065E+00  0.24589157974E+02  0.97605118460E+02  0.79068060052E+02 0.  0.
         -6    2    1    2    0  502  0.14045612565E+02 -0.48210059264E+02  0.26472998276E+03  0.32004047814E+03  0.17269179145E+03 0.  0.
        -24    2    5    5    0    0 -0.43492622702E+02 -0.42919068400E+02  0.23463893111E+03  0.25472428956E+03  0.78072921278E+02 0.  0.
          5    1    3    3  501    0  0.37623146263E+02  0.49054867294E+02 -0.57578986732E+02  0.84612710943E+02  0.47000000000E+01 0. -1.
        -13    1    4    4    0    0  0.90761828563E-01  0.25088460028E+02  0.30406487186E+02  0.39420724591E+02  0.00000000000E+00 0.  1.
         14    1    4    4    0    0 -0.51759520656E+02 -0.25933268058E+02 -0.58173292119E+01  0.58184393869E+02  0.00000000000E+00 0. -1.
         -5    1    5    5    0  502  0.57538235266E+02 -0.52909908636E+01  0.30091051645E+02  0.65316188583E+02  0.47000000000E+01 0.  1.
         13    1    6    6    0    0 -0.61879275949E+02 -0.46642946616E+02  0.16018638484E+03  0.17794461821E+03  0.00000000000E+00 0. -1.
        -14    1    6    6    0    0  0.18386653248E+02  0.37238782154E+01  0.74452546273E+02  0.76779671354E+02  0.00000000000E+00 0.  1.
</event>
<event>
12    1  0.8747122E-002  0.2051380E+03  0.7818608E-02  0.1146393E+00
         21   -1    0    0  503  502  0.00000000000E+00  0.00000000000E+00  0.66829173338E+02  0.66829173338E+02  0.00000000000E+00 0.  1.
         21   -1    0    0  501  503 -0.00000000000E+00 -0.00000000000E+00 -0.80995890738E+03  0.80995890738E+03  0.00000000000E+00 0. -1.
          6    2    1    2  501    0  0.27653220174E+02  0.10730561568E+03 -0.58911578271E+03  0.62381006535E+03  0.17263370599E+03 0.  0.
         24    2    3    3    0    0  0.17595993711E+01 -0.11958213841E+02 -0.23094263683E+03  0.24538644946E+03  0.82060422880E+02 0.  0.
         -6    2    1    2    0  502 -0.27653220174E+02 -0.10730561568E+03 -0.15401395133E+03  0.25297801537E+03  0.16732717446E+03 0.  0.
        -24    2    5    5    0    0 -0.25257808199E+02 -0.14212354068E+03 -0.11952988170E+03  0.20369042101E+03  0.79783063999E+02 0.  0.
          5    1    3    3  501    0  0.25893620803E+02  0.11926382953E+03 -0.35817314588E+03  0.37842361589E+03  0.47000000000E+01 0. -1.
        -13    1    4    4    0    0  0.44011206033E+01  0.13310311343E+02 -0.10110322906E+01  0.14055477114E+02  0.00000000000E+00 0.  1.
         14    1    4    4    0    0 -0.26415212322E+01 -0.25268525184E+02 -0.22993160454E+03  0.23133097234E+03  0.00000000000E+00 0. -1.
         -5    1    5    5    0  502 -0.23954119749E+01  0.34817924996E+02 -0.34484069628E+02  0.49287594359E+02  0.47000000000E+01 0.  1.
         13    1    6    6    0    0  0.39833494604E+01 -0.10138776382E+02 -0.50956170919E+02  0.52107515909E+02  0.00000000000E+00 0. -1.
        -14    1    6    6    0    0 -0.29241157659E+02 -0.13198476430E+03 -0.68573710779E+02  0.15158290510E+03  0.00000000000E+00 0.  1.
</event>
<event>
12    1  0.8747122E-002  0.2396415E+03  0.7818608E-02  0.1120948E+00
         21   -1    0    0  503  502  0.00000000000E+00  0.00000000000E+00  0.26060988946E+04  0.26060988946E+04  0.00000000000E+00 0. -1.
         21   -1    0    0  501  503 -0.00000000000E+00 -0.00000000000E+00 -0.79013688234E+02  0.79013688234E+02  0.00000000000E+00 0.  1.
          6    2    1    2  501    0 -0.12371827080E+03  0.99089678497E+02  0.12247966836E+03  0.26912698962E+03  0.17973061083E+03 0.  0.
         24    2    3    3    0    0 -0.10985032956E+03 -0.45888938535E+01  0.65948960091E+02  0.15013380857E+03  0.78120050488E+02 0.  0.
         -6    2    1    2    0  502  0.12371827080E+03 -0.99089678497E+02  0.24046055380E+04  0.24159855932E+04  0.17243438831E+03 0.  0.
        -24    2    5    5    0    0  0.13053608887E+03 -0.55554465364E+02  0.22277386925E+04  0.22336513713E+04  0.79074632478E+02 0.  0.
          5    1    3    3  501    0 -0.13867941233E+02  0.10367857235E+03  0.56530708267E+02  0.11899318105E+03  0.47000000000E+01 0. -1.
        -13    1    4    4    0    0 -0.50258572513E+02  0.26595482345E+02  0.13496480403E+01  0.56877634814E+02  0.00000000000E+00 0.  1.
         14    1    4    4    0    0 -0.59591757050E+02 -0.31184376198E+02  0.64599312050E+02  0.93256173761E+02  0.00000000000E+00 0. -1.
         -5    1    5    5    0  502 -0.68178180782E+01 -0.43535213133E+02  0.17686684550E+03  0.18233422186E+03  0.47000000000E+01 0.  1.
         13    1    6    6    0    0  0.11236104896E+03 -0.15894558717E+02  0.18329692101E+04  0.18364786325E+04  0.00000000000E+00 0. -1.
        -14    1    6    6    0    0  0.18175039911E+02 -0.39659906647E+02  0.39476948234E+03  0.39717273882E+03  0.00000000000E+00 0.  1.
</event>
<event>
12    1  0.8747122E-002  0.2303953E+03  0.7818608E-02  0.1126509E+00
         21   -1    0    0  501  502  0.00000000000E+00  0.00000000000E+00  0.32704020048E+03  0.32704020048E+03  0.00000000000E+00 0. -1.
         21   -1    0    0  502  503 -0.00000000000E+00 -0.00000000000E+00 -0.25802475278E+03  0.25802475278E+03  0.00000000000E+00 0. -1.
         -6    2    1    2    0  503 -0.10852209072E+03  0.10795086813E+03 -0.14416926767E+03  0.27178445792E+03  0.17219634062E+03 0.  0.
        -24    2    3    3    0    0 -0.11723663680E+03  0.87404217633E+02 -0.16939055302E+03  0.23777987890E+03  0.80387717270E+02 0.  0.
          6    2    1    2  501    0  0.10852209072E+03 -0.10795086813E+03  0.21318471537E+03  0.31328049534E+03  0.17107457960E+03 0.  0.
         24    2    5    5    0    0  0.90811821142E+02 -0.10607135382E+03  0.23506981390E+03  0.28467570972E+03  0.79274985552E+02 0.  0.
          5    1    5    5  501    0  0.17710269581E+02 -0.18795143077E+01 -0.21885098531E+02  0.28604785620E+02  0.47000000000E+01 0. -1.
        -13    1    6    6    0    0 -0.90778573227E+01  0.35048276304E+01  0.49335593530E+01  0.10910147487E+02  0.00000000000E+00 0.  1.
         14    1    6    6    0    0  0.99889678465E+02 -0.10957618145E+03  0.23013625455E+03  0.27376556223E+03  0.00000000000E+00 0. -1.
         -5    1    3    3    0  503  0.87145460766E+01  0.20546650495E+02  0.25221285349E+02  0.34004579023E+02  0.47000000000E+01 0.  1.
         13    1    4    4    0    0 -0.11265515128E+02  0.46372243811E+02 -0.24502460840E+02  0.53643894474E+02  0.00000000000E+00 0. -1.
        -14    1    4    4    0    0 -0.10597112167E+03  0.41031973823E+02 -0.14488809218E+03  0.18413598442E+03  0.00000000000E+00 0.  1.
</event>
<event>
12    1  0.8747122E-002  0.2603983E+03  0.7818608E-02  0.1106999E+00
         21   -1    0    0  501  502  0.00000000000E+00  0.00000000000E+00  0.46852902127E+02  0.46852902127E+02  0.00000000000E+00 0. -1.
         21   -1    0    0  502  503 -0.00000000000E+00 -0.00000000000E+00 -0.17382541585E+04  0.17382541585E+04  0.00000000000E+00 0.  1.
         -6    2    1    2    0  503 -0.16284349057E+03 -0.10907268203E+03 -0.12122472208E+04  0.12397669188E+04  0.17048119022E+03 0.  0.
        -24    2    3    3    0    0 -0.18288582471E+03 -0.11994143529E+03 -0.10204786751E+04  0.10465906002E+04  0.78370819002E+02 0.  0.
          6    2    1    2  501    0  0.16284349057E+03  0.10907268203E+03 -0.47915403555E+03  0.54534014181E+03  0.17144220045E+03 0.  0.
         24    2    5    5    0    0  0.11877004341E+02  0.40896388620E+02 -0.12260643343E+03  0.15216439290E+03  0.79423467032E+02 0.  0.
          5    1    5    5  501    0  0.15096648623E+03  0.68176293414E+02 -0.35654760212E+03  0.39317574890E+03  0.47000000000E+01 0. -1.
        -11    1    6    6    0    0  0.18420283521E+02  0.61125635849E+02 -0.66590926253E+02  0.92249670255E+02  0.00000000000E+00 0.  1.
         12    1    6    6    0    0 -0.65432791806E+01 -0.20229247229E+02 -0.56015507177E+02  0.59914722649E+02  0.00000000000E+00 0. -1.
         -5    1    3    3    0  503  0.20042334135E+02  0.10868753257E+02 -0.19176854570E+03  0.19317631862E+03  0.47000000000E+01 0.  1.
         13    1    4    4    0    0 -0.12741413366E+03 -0.51386237484E+02 -0.73755909122E+03  0.75024550642E+03  0.00000000000E+00 0. -1.
        -14    1    4    4    0    0 -0.55471691048E+02 -0.68555197807E+02 -0.28291958392E+03  0.29634509380E+03  0.00000000000E+00 0.  1.
</event>
<event>
12    1  0.8747122E-002  0.2025363E+03  0.7818608E-02  0.1148034E+00
         21   -1    0    0  501  502  0.00000000000E+00  0.00000000000E+00  0.11549785631E+04  0.11549785631E+04  0.00000000000E+00 0.  1.
         21   -1    0    0  502  503 -0.00000000000E+00 -0.00000000000E+00 -0.92531435080E+02  0.92531435080E+02  0.00000000000E+00 0.  1.
         -6    2    1    2    0  503 -0.32253064270E+02 -0.98608073918E+02  0.39101477020E+02  0.20431429615E+03  0.17161466636E+03 0.  0.
        -24    2    3    3    0    0 -0.35510802633E+02 -0.13511999205E+03  0.19745401310E+02  0.16259522747E+03  0.80801595083E+02 0.  0.
          6    2    1    2  501    0  0.32253064270E+02  0.98608073918E+02  0.10233456510E+04  0.10431957021E+04  0.17394579303E+03 0.  0.
         24    2    5    5    0    0 -0.31023807162E+02  0.10104108620E+03  0.78783342939E+03  0.79927362731E+03  0.83576558543E+02 0.  0.
          5    1    5    5  501    0  0.63276871432E+02 -0.24330122832E+01  0.23551222166E+03  0.24392207477E+03  0.47000000000E+01 0. -1.
        -13    1    6    6    0    0 -0.40557252055E+02  0.12657138065E+02  0.34494301290E+03  0.34754967413E+03  0.00000000000E+00 0.  1.
         14    1    6    6    0    0  0.95334448935E+01  0.88383948136E+02  0.44289041649E+03  0.45172395318E+03  0.00000000000E+00 0. -1.
         -5    1    3    3    0  503  0.32577383632E+01  0.36511918131E+02  0.19356075710E+02  0.41719068683E+02  0.47000000000E+01 0.  1.
         13    1    4    4    0    0  0.18473681065E+02 -0.54238092813E+02  0.30238935383E+02  0.64787659451E+02  0.00000000000E+00 0. -1.
        -14    1    4    4    0    0 -0.53984483699E+02 -0.80881899237E+02 -0.10493534073E+02  0.97807568018E+02  0.00000000000E+00 0.  1.
</event>
<event>
12    1  0.8747122E-002  0.3142068E+03  0.7818608E-02  0.1078458E+00
         21   -1    0    0  501  502  0.00000000000E+00  0.00000000000E+00  0.13238100984E+03  0.13238100984E+03  0.00000000000E+00 0. -1.
         21   -1    0    0  502  503 -0.00000000000E+00 -0.00000000000E+00 -0.77374096841E+03  0.77374096841E+03  0.00000000000E+00 0.  1.
         -6    2    1    2    0  503  0.23468127339E+03  0.11564158231E+03 -0.40972523133E+03  0.51576245232E+03  0.17230167265E+03 0.  0.
        -24    2    3    3    0    0  0.24871401308E+03  0.12433484660E+03 -0.37409610124E+03  0.47621481600E+03  0.97544059950E+02 0.  0.
          6    2    1    2  501    0 -0.23468127339E+03 -0.11564158231E+03 -0.23163472724E+03  0.39035952592E+03  0.17400470389E+03 0.  0.
         24    2    5    5    0    0 -0.14770815929E+03 -0.39532753290E+02 -0.21065432669E+03  0.27280467218E+03  0.81649279901E+02 0.  0.
          5    1    5    5  501    0 -0.86973114099E+02 -0.76108829015E+02 -0.20980400550E+02  0.11755485374E+03  0.47000000000E+01 0. -1.
        -11    1    6    6    0    0 -0.92650728879E+02  0.88817425414E+01 -0.15483776967E+03  0.18065928658E+03  0.00000000000E+00 0.  1.
         12    1    6    6    0    0 -0.55057430411E+02 -0.48414495832E+02 -0.55816557026E+02  0.92145385605E+02  0.00000000000E+00 0. -1.
         -5    1    3    3    0  503 -0.14032739694E+02 -0.86932642992E+01 -0.35629130091E+02  0.39547636320E+02  0.47000000000E+01 0.  1.
         11    1    4    4    0    0  0.73535015108E+02  0.60955468481E+02 -0.65732056367E+02  0.11594684480E+03  0.00000000000E+00 0. -1.
        -12    1    4    4    0    0  0.17517899798E+03  0.63379378123E+02 -0.30836404488E+03  0.36026797120E+03  0.00000000000E+00 0.  1.
</event>
<event>
12    1  0.8747122E-002  0.1969798E+03  0.7818608E-02  0.1153030E+00
         21   -1    0    0  501  502  0.00000000000E+00  0.00000000000E+00  0.67384831776E+02  0.67384831776E+02  0.00000000000E+00 0.  1.
         21   -1    0    0  502  503 -0.00000000000E+00 -0.00000000000E+00 -0.69183951665E+03  0.69183951665E+03  0.00000000000E+00 0.  1.
         -6    2    1    2    0  503  0.72835531217E+01  0.92566922638E+02 -0.47616053354E+03  0.51529591860E+03  0.17372203288E+03 0.  0.
        -24    2    3    3    0    0 -0.51315406746E+02  0.19808898725E+02 -0.30889020010E+03  0.32364774462E+03  0.79429487211E+02 0.  0.
          6    2    1    2  501    0 -0.72835531217E+01 -0.92566922638E+02 -0.14829415134E+03  0.24392842984E+03  0.16996540309E+03 0.  0.
         24    2    5    5    0    0 -0.36371109451E+02 -0.92794378397E+02 -0.42668218217E+02  0.13426957056E+03  0.79209131215E+02 0.  0.
          5    1    5    5  501    0  0.29087556329E+02  0.22745575899E+00 -0.10562593312E+03  0.10965885928E+03  0.47000000000E+01 0. -1.
        -13    1    6    6    0    0  0.68322877145E+01 -0.82647023177E+02 -0.27473218072E+02  0.87361251746E+02  0.00000000000E+00 0.  1.
         14    1    6    6    0    0 -0.43203397165E+02 -0.10147355220E+02 -0.15195000145E+02  0.46908318814E+02  0.00000000000E+00 0. -1.
         -5    1    3    3    0  503  0.58598959868E+02  0.72758023913E+02 -0.16727033343E+03  0.19164817398E+03  0.47000000000E+01 0.  1.
         13    1    4    4    0    0 -0.49772197350E+02  0.46007983996E+02 -0.25267871013E+03  0.26161142325E+03  0.00000000000E+00 0. -1.
        -14    1    4    4    0    0 -0.15432093964E+01 -0.26199085271E+02 -0.56211489970E+02  0.62036321369E+02  0.00000000000E+00 0.  1.
</event>
<event>
12    1  0.8747122E-002  0.2441725E+03  0.7818608E-02  0.1117103E+00
         21   -1    0    0  501  502  0.00000000000E+00  0.00000000000E+00  0.12883250874E+04  0.12883250874E+04  0.00000000000E+00 0. -1.
         21   -1    0    0  502  503 -0.00000000000E+00 -0.00000000000E+00 -0.46412994822E+02  0.46412994822E+02  0.00000000000E+00 0.  1.
         -6    2    1    2    0  503 -0.16416827575E+03  0.54013592790E+02  0.57709310096E+03  0.62662321047E+03  0.17248625963E+03 0.  0.
        -24    2    3    3    0    0 -0.49325280278E+02  0.20836341657E+02  0.12235545361E+03  0.15641255394E+03  0.81405734402E+02 0.  0.
          6    2    1    2  501    0  0.16416827575E+03 -0.54013592790E+02  0.66481899166E+03  0.70811487179E+03  0.17197002358E+03 0.  0.
         24    2    5    5    0    0  0.19165844681E+03 -0.38441745118E+02  0.60118546761E+03  0.63691439898E+03  0.77622529998E+02 0.  0.
          5    1    5    5  501    0 -0.27490171064E+02 -0.15571847672E+02  0.63633524052E+02  0.71200472809E+02  0.47000000000E+01 0. -1.
        -13    1    6    6    0    0  0.95348457880E+02  0.18060406133E+02  0.24052113569E+03  0.25936060496E+03  0.00000000000E+00 0.  1.
         14    1    6    6    0    0  0.96309988933E+02 -0.56502151251E+02  0.36066433192E+03  0.37755379402E+03  0.00000000000E+00 0. -1.
         -5    1    3    3    0  503 -0.11484299547E+03  0.33177251133E+02  0.45473764735E+03  0.47021065653E+03  0.47000000000E+01 0.  1.
         13    1    4    4    0    0 -0.13808939442E+02 -0.13583980485E+02  0.10048338374E+03  0.10233338528E+03  0.00000000000E+00 0. -1.
        -14    1    4    4    0    0 -0.35516340837E+02  0.34420322141E+02  0.21872069869E+02  0.54079168661E+02  0.00000000000E+00 0.  1.
</event>
<event>
12    1  0.8747122E-002  0.2974910E+03  0.7818608E-02  0.1086920E+00
         21   -1    0    0  503  502  0.00000000000E+00  0.00000000000E+00  0.56026516438E+03  0.56026516438E+03  0.00000000000E+00 0.  1.
         21   -1    0    0  501  503 -0.00000000000E+00 -0.00000000000E+00 -0.16248879992E+03  0.16248879992E+03  0.00000000000E+00 0. -1.
          6    2    1    2  501    0 -0.16056329187E+02 -0.24055138502E+03  0.12895965873E+03  0.32423988420E+03  0.17429324250E+03 0.  0.
         24    2    3    3    0    0 -0.67480582894E+02 -0.20131759911E+03  0.69677551725E+02  0.23637520394E+03  0.77044604233E+02 0.  0.
         -6    2    1    2    0  502  0.16056329187E+02  0.24055138502E+03  0.26881670572E+03  0.39851408010E+03  0.16860686885E+03 0.  0.
        -24    2    5    5    0    0  0.28015937396E+02  0.49152673302E+02  0.41506983617E+02  0.10107787040E+03  0.72753200312E+02 0.  0.
          5    1    3    3  501    0  0.51424253708E+02 -0.39233785908E+02  0.59282107003E+02  0.87864680257E+02  0.47000000000E+01 0. -1.
        -13    1    4    4    0    0 -0.12776980160E+02 -0.14229095447E+03  0.61311438225E+02  0.15546401321E+03  0.00000000000E+00 0.  1.
         14    1    4    4    0    0 -0.54703602734E+02 -0.59026644647E+02  0.83661135000E+01  0.80911190731E+02  0.00000000000E+00 0. -1.
         -5    1    5    5    0  502 -0.11959608209E+02  0.19139871172E+03  0.22730972211E+03  0.29743620970E+03  0.47000000000E+01 0.  1.
         11    1    6    6    0    0  0.32790224335E+02  0.65985250831E+02  0.27437441365E+02  0.78626110980E+02  0.00000000000E+00 0. -1.
        -12    1    6    6    0    0 -0.47742869389E+01 -0.16832577529E+02  0.14069542253E+02  0.22451759425E+02  0.00000000000E+00 0.  1.
</event>
<event>
12    1  0.8747122E-002  0.1772168E+03  0.7818608E-02  0.1170725E+00
         21   -1    0    0  503  502  0.00000000000E+00  0.00000000000E+00  0.13884276187E+03  0.13884276187E+03  0.00000000000E+00 0.  1.
         21   -1    0    0  501  503 -0.00000000000E+00 -0.00000000000E+00 -0.11839392560E+04  0.11839392560E+04  0.00000000000E+00 0.  1.
          6    2    1    2  501    0 -0.30554319423E+02 -0.24383643929E+02 -0.11179610097E+04  0.11319198811E+04  0.17285158205E+03 0.  0.
         24    2    3    3    0    0 -0.30798543735E+02 -0.82732842189E+02 -0.75787116672E+03  0.76710283979E+03  0.79276654865E+02 0.  0.
         -6    2    1    2    0  502  0.30554319423E+02  0.24383643929E+02  0.72864515618E+02  0.19086213676E+03  0.17202031591E+03 0.  0.
        -24    2    5    5    0    0 -0.66761374357E+01  0.72776667874E+02  0.20007577495E+02  0.10996752883E+03  0.79696549749E+02 0.  0.
          5    1    3    3  501    0  0.24422431240E+00  0.58349198260E+02 -0.36008984301E+03  0.36481704130E+03  0.47000000000E+01 0. -1.
        -13    1    4    4    0    0 -0.36379120567E+02 -0.44378617035E+02 -0.64912050773E+03  0.65165200500E+03  0.00000000000E+00 0.  1.
         14    1    4    4    0    0  0.55805768317E+01 -0.38354225153E+02 -0.10875065899E+03  0.11545083480E+03  0.00000000000E+00 0. -1.
         -5    1    5    5    0  502  0.37230456858E+02 -0.48393023945E+02  0.52856938123E+02  0.80894607930E+02  0.47000000000E+01 0.  1.
         13    1    6    6    0    0 -0.26055202385E+02 -0.40552063743E+01  0.15531535242E+02  0.30603053067E+02  0.00000000000E+00 0. -1.
        -14    1    6    6    0    0  0.19379064950E+02  0.76831874248E+02  0.44760422529E+01  0.79364475763E+02  0.00000000000E+00 0.  1.
</event>
<event>
12    1  0.8747122E-002  0.1826647E+03  0.7818608E-02  0.1165335E+00
         21   -1    0    0  501  502  0.00000000000E+00  0.00000000000E+00  0.88623485527E+02  0.88623485527E+02  0.00000000000E+00 0. -1.
         21   -1    0    0  502  503 -0.00000000000E+00 -0.00000000000E+00 -0.39312638111E+03  0.39312638111E+03  0.00000000000E+00 0. -1.
         -6    2    1    2    0  503 -0.63098807517E+01 -0.56423941791E+02 -0.20303749637E+03  0.27311283652E+03  0.17361716718E+03 0.  0.
        -24    2    3    3    0    0 -0.64224533943E+02 -0.10297276949E+00 -0.12707866376E+03  0.16212638304E+03  0.77531773690E+02 0.  0.
          6    2    1    2  501    0  0.63098807517E+01  0.56423941791E+02 -0.10146539922E+03  0.20863703012E+03  0.17323598730E+03 0.  0.
         24    2    5    5    0    0 -0.14080206968E+02  0.30452685936E+02  0.41512972739E+01  0.97879464298E+02  0.91856071945E+02 0.  0.
          5    1    5    5  501    0  0.20390087719E+02  0.25971255856E+02 -0.10561669650E+03  0.11075756582E+03  0.47000000000E+01 0. -1.
        -13    1    6    6    0    0 -0.48296415296E+02 -0.44620549861E+01 -0.23754442880E+01  0.48560234768E+02  0.00000000000E+00 0.  1.
         14    1    6    6    0    0  0.34216208328E+02  0.34914740922E+02  0.65267415619E+01  0.49319229530E+02  0.00000000000E+00 0. -1.
         -5    1    3    3    0  503  0.57914653191E+02 -0.56320969022E+02 -0.75958832610E+02  0.11098645349E+03  0.47000000000E+01 0.  1.
         13    1    4    4    0    0 -0.10868656814E+02  0.11124424225E+02 -0.10008454518E+03  0.10128571814E+03  0.00000000000E+00 0. -1.
        -14    1    4    4    0    0 -0.53355877129E+02 -0.11227396994E+02 -0.26994118575E+02  0.60840664897E+02  0.00000000000E+00 0.  1.
</event>
<event>
12    1  0.8747122E-002  0.2326196E+03  0.7818608E-02  0.1124991E+00
         21   -1    0    0  503  502  0.00000000000E+00  0.00000000000E+00  0.28188804570E+03  0.28188804570E+03  0.00000000000E+00 0. -1.
         21   -1    0    0  501  503 -0.00000000000E+00 -0.00000000000E+00 -0.21610057264E+03  0.21610057264E+03  0.00000000000E+00 0.  1.
          6    2    1    2  501    0 -0.15323044434E+03  0.20512399518E+02 -0.51859919511E+02  0.23731108489E+03  0.17241453579E+03 0.  0.
         24    2    3    3    0    0 -0.61481530540E+02  0.77191941671E+02 -0.47271882986E+02  0.12926677101E+03  0.68823634823E+02 0.  0.
         -6    2    1    2    0  502  0.15323044434E+03 -0.20512399518E+02  0.11764739257E+03  0.26067753345E+03  0.17381467102E+03 0.  0.
        -24    2    5    5    0    0  0.18038906630E+03 -0.22068346482E+01  0.11194096802E+03  0.22710168300E+03  0.80618290360E+02 0.  0.
          5    1    3    3  501    0 -0.91748913798E+02 -0.56679542153E+02 -0.45880365248E+01  0.10804431388E+03  0.47000000000E+01 0. -1.
        -13    1    4    4    0    0 -0.63706922973E+01  0.46216496389E+02 -0.46748573656E+02  0.66045282933E+02  0.00000000000E+00 0.  1.
         14    1    4    4    0    0 -0.55110838242E+02  0.30975445282E+02 -0.52330933028E+00  0.63221488078E+02  0.00000000000E+00 0. -1.
         -5    1    5    5    0  502 -0.27158621963E+02 -0.18305564870E+02  0.57064245462E+01  0.33575850447E+02  0.47000000000E+01 0.  1.
         11    1    6    6    0    0  0.41474951080E+02 -0.34583187124E+02  0.40965959218E+02  0.67781842800E+02  0.00000000000E+00 0. -1.
        -12    1    6    6    0    0  0.13891411522E+03  0.32376352476E+02  0.70975008805E+02  0.15931984020E+03  0.00000000000E+00 0.  1.
</event>
<event>
12    1  0.8747122E-002  0.2040990E+03  0.7818608E-02  0.1146958E+00
         21   -1    0    0  503  502  0.00000000000E+00  0.00000000000E+00  0.25113010201E+03  0.25113010201E+03  0.00000000000E+00 0.  1.
         21   -1    0    0  501  503 -0.00000000000E+00 -0.00000000000E+00 -0.41931317405E+03  0.41931317405E+03  0.00000000000E+00 0.  1.
          6    2    1    2  501    0 -0.94807828481E+02  0.50085840290E+02 -0.34621749641E+03  0.40189917364E+03  0.17366426002E+03 0.  0.
         24    2    3    3    0    0 -0.87640073075E+02 -0.28413118850E+02 -0.23535529881E+03  0.26578899709E+03  0.82241027247E+02 0.  0.
         -6    2    1    2    0  502  0.94807828481E+02 -0.50085840290E+02  0.17803442437E+03  0.26854410242E+03  0.17006634866E+03 0.  0.
        -24    2    5    5    0    0  0.40256338027E+02  0.29949659069E+02  0.46495082143E+02  0.10512367890E+03  0.79822555542E+02 0.  0.
          5    1    3    3  501    0 -0.71677554060E+01  0.78498959140E+02 -0.11086219760E+03  0.13611017655E+03  0.47000000000E+01 0. -1.
        -13    1    4    4    0    0 -0.70564271981E+01  0.24895839820E+02 -0.36976829589E+02  0.45131828366E+02  0.00000000000E+00 0.  1.
         14    1    4    4    0    0 -0.80583645877E+02 -0.53308958670E+02 -0.19837846922E+03  0.22065716872E+03  0.00000000000E+00 0. -1.
         -5    1    5    5    0  502  0.54551490454E+02 -0.80035499359E+02  0.13153934223E+03  0.16342042352E+03  0.47000000000E+01 0.  1.
         13    1    6    6    0    0  0.55841048275E+02  0.28960160162E+02  0.77868502974E+01  0.63384135134E+02  0.00000000000E+00 0. -1.
        -14    1    6    6    0    0 -0.15584710249E+02  0.98949890660E+00  0.38708231845E+02  0.41739543771E+02  0.00000000000E+00 0.  1.
</event>
<event>
12    1  0.8747122E-002  0.3003301E+03  0.7818608E-02  0.1085144E+00
         21   -1    0    0  501  502  0.00000000000E+00  0.00000000000E+00  0.47629830399E+03  0.47629830399E+03  0.00000000000E+00 0. -1.
         21   -1    0    0  502  503 -0.00000000000E+00 -0.00000000000E+00 -0.18909372878E+03  0.18909372878E+03  0.00000000000E+00 0.  1.
         -6    2    1    2    0  503 -0.53323905648E+02 -0.23978562813E+03  0.14972023681E+03  0.33508895960E+03  0.17183676895E+03 0.  0.
        -24    2    3    3    0    0  0.26692272042E+02 -0.62448953137E+02  0.68348001558E+02  0.12415196507E+03  0.78293754407E+02 0.  0.
          6    2    1    2  501    0  0.53323905648E+02  0.23978562813E+03  0.13748433839E+03  0.33030307316E+03  0.17279349081E+03 0.  0.
         24    2    5    5    0    0  0.77317526900E+02  0.10267652621E+03  0.11207120029E+03  0.18873147545E+03  0.80864991755E+02 0.  0.
          5    1    5    5  501    0 -0.23993621252E+02  0.13710910192E+03  0.25413138109E+02  0.14157159771E+03  0.47000000000E+01 0. -1.
        -13    1    6    6    0    0  0.64999861570E+02  0.65681609160E+02  0.28812420864E+02  0.96794686745E+02  0.00000000000E+00 0.  1.
         14    1    6    6    0    0  0.12317665330E+02  0.36994917053E+02  0.83258779421E+02  0.91936788707E+02  0.00000000000E+00 0. -1.
         -5    1    3    3    0  503 -0.80016177690E+02 -0.17733667500E+03  0.81372235256E+02  0.21093699453E+03  0.47000000000E+01 0.  1.
         11    1    4    4    0    0  0.26698986512E+02 -0.66899345190E+02  0.82380935571E+02  0.10943023720E+03  0.00000000000E+00 0. -1.
        -12    1    4    4    0    0 -0.67144705747E-02  0.44503920538E+01 -0.14032934013E+02  0.14721727872E+02  0.00000000000E+00 0.  1.
</event>
<event>
12    1  0.8747122E-002  0.2026634E+03  0.7818608E-02  0.1147725E+00
         21   -1    0    0  501  502  0.00000000000E+00  0.00000000000E+00  0.15589917562E+03  0.15589917562E+03  0.00000000000E+00 0.  1.
         21   -1    0    0  502  503 -0.00000000000E+00 -0.00000000000E+00 -0.31648321551E+03  0.31648321551E+03  0.00000000000E+00 0.  1.
         -6    2    1    2    0  503  0.10302518791E+03  0.24853328748E+02 -0.17801134389E+03  0.26897111772E+03  0.17153876040E+03 0.  0.
        -24    2    3    3    0    0  0.36556373860E+02  0.76409943662E+02 -0.10942992224E+03  0.16033553802E+03  0.80979805564E+02 0.  0.
          6    2    1    2  501    0 -0.10302518791E+03 -0.24853328748E+02  0.17427304008E+02  0.20341127341E+03  0.17274419797E+03 0.  0.
         24    2    5    5    0    0 -0.43456430979E+02 -0.66315309664E+02 -0.30206445139E+02  0.11647108293E+03  0.79792870240E+02 0.  0.
          5    1    5    5  501    0 -0.59568756928E+02  0.41461980916E+02  0.47633749147E+02  0.86940190483E+02  0.47000000000E+01 0. -1.
        -11    1    6    6    0    0 -0.64433944370E+02 -0.64531340637E+02 -0.21525278196E+02  0.93698264194E+02  0.00000000000E+00 0.  1.
         12    1    6    6    0    0  0.20977513391E+02 -0.17839690268E+01 -0.86811669433E+01  0.22772818734E+02  0.00000000000E+00 0. -1.
         -5    1    3    3    0  503  0.66468814047E+02 -0.51556614914E+02 -0.68581421651E+02  0.10863557970E+03  0.47000000000E+01 0.  1.
         11    1    4    4    0    0  0.10995960768E+02 -0.12250110033E+02 -0.44670408066E+02  0.47606950184E+02  0.00000000000E+00 0. -1.
        -12    1    4    4    0    0  0.25560413092E+02  0.88660053695E+02 -0.64759514176E+02  0.11272858783E+03  0.00000000000E+00 0.  1.
</event>
<event>
12    1  0.8747122E-002  0.1755597E+03  0.7818608E-02  0.1172245E+00
         21   -1    0    0  503  502  0.00000000000E+00  0.00000000000E+00  0.15918458127E+03  0.15918458127E+03  0.00000000000E+00 0.  1.
         21   -1    0    0  501  503 -0.00000000000E+00 -0.00000000000E+00 -0.26453073730E+03  0.26453073730E+03  0.00000000000E+00 0.  1.
          6    2    1    2  501    0  0.11325362012E+01  0.33436773438E+02 -0.16264696760E+03  0.23932246967E+03  0.17234241487E+03 0.  0.
         24    2    3    3    0    0 -0.45853129160E+02  0.69181588750E+02 -0.12090447137E+03  0.16686647914E+03  0.79611110965E+02 0.  0.
         -6    2    1    2    0  502 -0.11325362012E+01 -0.33436773438E+02  0.57300811575E+02  0.18439284890E+03  0.17204080697E+03 0.  0.
        -24    2    5    5    0    0  0.65871773839E+02 -0.14214300385E+02  0.26338303480E+02  0.10797395109E+03  0.80146933568E+02 0.  0.
          5    1    3    3  501    0  0.46985665361E+02 -0.35744815312E+02 -0.41742496237E+02  0.72455990527E+02  0.47000000000E+01 0. -1.
        -13    1    4    4    0    0  0.21209303801E+02  0.16257029926E+02 -0.46239697339E+02  0.53406321721E+02  0.00000000000E+00 0.  1.
         14    1    4    4    0    0 -0.67062432961E+02  0.52924558825E+02 -0.74664774029E+02  0.11346015742E+03  0.00000000000E+00 0. -1.
         -5    1    5    5    0  502 -0.67004310040E+02 -0.19222473053E+02  0.30962508095E+02  0.76418897806E+02  0.47000000000E+01 0.  1.
         11    1    6    6    0    0  0.20724903509E+02 -0.43302952179E+02 -0.33585449960E+00  0.48008125261E+02  0.00000000000E+00 0. -1.
        -12    1    6    6    0    0  0.45146870330E+02  0.29088651794E+02  0.26674157980E+02  0.59965825832E+02  0.00000000000E+00 0.  1.
</event>
<event>
12    1  0.8747122E-002  0.1762937E+03  0.7818608E-02  0.1177265E+00
         21   -1    0    0  501  502  0.00000000000E+00  0.00000000000E+00  0.90883109674E+03  0.90883109674E+03  0.00000000000E+00 0.  1.
         21   -1    0    0  502  503 -0.00000000000E+00 -0.00000000000E+00 -0.10799041834E+03  0.10799041834E+03  0.00000000000E+00 0.  1.
         -6    2    1    2    0  503  0.37817741157E+02 -0.73457386510E+01 -0.38488830809E+02  0.15917736850E+03  0.14957240094E+03 0.  0.
        -24    2    3    3    0    0 -0.72510752544E+01  0.32222132763E+02 -0.49635080527E+02  0.97996133275E+02  0.77773755122E+02 0.  0.
          6    2    1    2  501    0 -0.37817741157E+02  0.73457386510E+01  0.83932950921E+03  0.85764414658E+03  0.17203289134E+03 0.  0.
         24    2    5    5    0    0  0.16192676775E+02 -0.95613913722E+01  0.20462051887E+03  0.22039963408E+03  0.79704573101E+02 0.  0.
          5    1    5    5  501    0 -0.54010417932E+02  0.16907130023E+02  0.63470899034E+03  0.63724451250E+03  0.47000000000E+01 0. -1.
        -13    1    6    6    0    0 -0.20877811825E+02 -0.20098056782E+02  0.15439993273E+03  0.15709600294E+03  0.00000000000E+00 0.  1.
         14    1    6    6    0    0  0.37070488600E+02  0.10536665409E+02  0.50220586142E+02  0.63303631139E+02  0.00000000000E+00 0. -1.
         -5    1    3    3    0  503  0.45068816411E+02 -0.39567871414E+02  0.11146249718E+02  0.61181235226E+02  0.47000000000E+01 0.  1.
         13    1    4    4    0    0 -0.98707380798E+01 -0.20416866644E+02  0.37413981527E+01  0.22984298421E+02  0.00000000000E+00 0. -1.
        -14    1    4    4    0    0  0.26196628255E+01  0.52638999406E+02 -0.53376478679E+02  0.75011834853E+02  0.00000000000E+00 0.  1.
</event>
<event>
12    1  0.8747122E-002  0.2160718E+03  0.7818608E-02  0.1137164E+00
         21   -1    0    0  501  502  0.00000000000E+00  0.00000000000E+00  0.22065913038E+03  0.22065913038E+03  0.00000000000E+00 0. -1.
         21   -1    0    0  502  503 -0.00000000000E+00 -0.00000000000E+00 -0.23705825842E+03  0.23705825842E+03  0.00000000000E+00 0.  1.
         -6    2    1    2    0  503 -0.12989313080E+03 -0.62592024408E+01  0.69151882874E+02  0.22686784891E+03  0.17255617903E+03 0.  0.
        -24    2    3    3    0    0 -0.10432069443E+03  0.31147576421E+02 -0.12103141418E+02  0.13371375303E+03  0.76680525001E+02 0.  0.
          6    2    1    2  501    0  0.12989313080E+03  0.62592024408E+01 -0.85551010915E+02  0.23084953988E+03  0.17047325759E+03 0.  0.
         24    2    5    5    0    0  0.44704083379E+02  0.61974036160E+02 -0.33881075494E+02  0.11659898749E+03  0.81290592184E+02 0.  0.
          5    1    5    5  501    0  0.85189047418E+02 -0.55714833720E+02 -0.51669935420E+02  0.11425055240E+03  0.47000000000E+01 0. -1.
        -11    1    6    6    0    0 -0.11617117014E+02  0.50834880517E+02 -0.27160323075E+02  0.58794775571E+02  0.00000000000E+00 0.  1.
         12    1    6    6    0    0  0.56321200394E+02  0.11139155644E+02 -0.67207524195E+01  0.57804211917E+02  0.00000000000E+00 0. -1.
         -5    1    3    3    0  503 -0.25572436364E+02 -0.37406778862E+02  0.81255024292E+02  0.93154095879E+02  0.47000000000E+01 0.  1.
         11    1    4    4    0    0 -0.23730406165E+02  0.21851584535E+02 -0.36776785816E+02  0.48919892666E+02  0.00000000000E+00 0. -1.
        -12    1    4    4    0    0 -0.80590288268E+02  0.92959918859E+01  0.24673644398E+02  0.84793860369E+02  0.00000000000E+00 0.  1.
</event>
<event>
12    1  0.8747122E-002  0.2500331E+03  0.7818608E-02  0.1114133E+00
         21   -1    0    0  501  502  0.00000000000E+00  0.00000000000E+00  0.18851362821E+03  0.18851362821E+03  0.00000000000E+00 0.  1.
         21   -1    0    0  502  503 -0.00000000000E+00 -0.00000000000E+00 -0.38813272897E+03  0.38813272897E+03  0.00000000000E+00 0.  1.
         -6    2    1    2    0  503 -0.17045581065E+03  0.22234176583E+02 -0.21733824389E+03  0.33128909419E+03  0.18156819567E+03 0.  0.
        -24    2    3    3    0    0 -0.19397444324E+03  0.43192331292E+02 -0.20665656861E+03  0.29769506920E+03  0.80148329768E+02 0.  0.
          6    2    1    2  501    0  0.17045581065E+03 -0.22234176583E+02  0.17719143126E+02  0.24535726299E+03  0.17417427043E+03 0.  0.
         24    2    5    5    0    0  0.19273876106E+03 -0.65399001068E+01  0.36173949120E+02  0.21210805161E+03  0.80562216062E+02 0.  0.
          5    1    5    5  501    0 -0.22282950412E+02 -0.15694276476E+02 -0.18454805994E+02  0.33249211381E+02  0.47000000000E+01 0. -1.
        -13    1    6    6    0    0  0.31159473458E+02 -0.24172227919E+02  0.29827276167E+02  0.49445685275E+02  0.00000000000E+00 0.  1.
         14    1    6    6    0    0  0.16157928760E+03  0.17632327812E+02  0.63466729523E+01  0.16266236634E+03  0.00000000000E+00 0. -1.
         -5    1    3    3    0  503  0.23518632594E+02 -0.20958154710E+02 -0.10681675281E+02  0.33594024986E+02  0.47000000000E+01 0.  1.
         11    1    4    4    0    0 -0.10252693895E+03  0.94269324622E+01 -0.53194231886E+02  0.11588902697E+03  0.00000000000E+00 0. -1.
        -12    1    4    4    0    0 -0.91447504288E+02  0.33765398830E+02 -0.15346233672E+03  0.18180604223E+03  0.00000000000E+00 0.  1.
</event>
<event>
12    1  0.8747122E-002  0.1827714E+03  0.7818608E-02  0.1167386E+00
         21   -1    0    0  503  502  0.00000000000E+00  0.00000000000E+00  0.16936188239E+03  0.16936188239E+03  0.00000000000E+00 0.  1.
         21   -1    0    0  501  503 -0.00000000000E+00 -0.00000000000E+00 -0.22879662268E+03  0.22879662268E+03  0.00000000000E+00 0.  1.
          6    2    1    2  501    0 -0.22352864624E+02 -0.11342970458E+02 -0.11494222744E+03  0.21590991306E+03  0.18104436299E+03 0.  0.
         24    2    3    3    0    0 -0.83538379499E+02 -0.24664727834E+02 -0.97212439807E+02  0.15065984164E+03  0.75240413227E+02 0.  0.
         -6    2    1    2    0  502  0.22352864624E+02  0.11342970458E+02  0.55507487153E+02  0.18224859202E+03  0.17177064542E+03 0.  0.
        -24    2    5    5    0    0  0.31697295938E+02  0.63771470536E+02  0.67070648778E+02  0.12755066954E+03  0.81848532959E+02 0.  0.
          5    1    3    3  501    0  0.61185514875E+02  0.13321757376E+02 -0.17729787636E+02  0.65250071415E+02  0.47000000000E+01 0. -1.
        -13    1    4    4    0    0 -0.64821955427E+02  0.81739272654E+01 -0.91501102899E+02  0.11243287252E+03  0.00000000000E+00 0.  1.
         14    1    4    4    0    0 -0.18716424072E+02 -0.32838655099E+02 -0.57113369074E+01  0.38226969119E+02  0.00000000000E+00 0. -1.
         -5    1    5    5    0  502 -0.93444313140E+01 -0.52428500078E+02 -0.11563161625E+02  0.54697922481E+02  0.47000000000E+01 0.  1.
         13    1    6    6    0    0  0.44993663806E+01  0.52416570018E+02  0.79690151278E+02  0.95489587500E+02  0.00000000000E+00 0. -1.
        -14    1    6    6    0    0  0.27197929558E+02  0.11354900518E+02 -0.12619502500E+02  0.32061082037E+02  0.00000000000E+00 0.  1.
</event>
<event>
12    1  0.8747122E-002  0.2248659E+03  0.7818608E-02  0.1130516E+00
         21   -1    0    0  503  502  0.00000000000E+00  0.00000000000E+00  0.32659141982E+03  0.32659141982E+03  0.00000000000E+00 0.  1.
         21   -1    0    0  501  503 -0.00000000000E+00 -0.00000000000E+00 -0.42952830463E+03  0.42952830463E+03  0.00000000000E+00 0.  1.
          6    2    1    2  501    0  0.14247033386E+03 -0.23662969066E+02 -0.35419679495E+03  0.41893101386E+03  0.17085108338E+03 0.  0.
         24    2    3    3    0    0  0.13011916563E+02  0.25010517733E+01 -0.20431447732E+03  0.21910399634E+03  0.78016602958E+02 0.  0.
         -6    2    1    2    0  502 -0.14247033386E+03  0.23662969066E+02  0.25125991014E+03  0.33718871058E+03  0.17235704791E+03 0.  0.
        -24    2    5    5    0    0 -0.76179535648E+02 -0.35331221293E+02  0.64234642439E+02  0.13012513295E+03  0.75860688675E+02 0.  0.
          5    1    3    3  501    0  0.12945841730E+03 -0.26164020839E+02 -0.14988231763E+03  0.19982701753E+03  0.47000000000E+01 0. -1.
        -11    1    4    4    0    0  0.17944032083E+02  0.38004223292E+02 -0.12944111268E+03  0.13609302306E+03  0.00000000000E+00 0.  1.
         12    1    4    4    0    0 -0.49321155204E+01 -0.35503171519E+02 -0.74873364639E+02  0.83010973273E+02  0.00000000000E+00 0. -1.
         -5    1    5    5    0  502 -0.66290798210E+02  0.58994190358E+02  0.18702526770E+03  0.20706357763E+03  0.47000000000E+01 0.  1.
         13    1    6    6    0    0 -0.47877247827E+00 -0.15922547178E+02 -0.12766523952E+02  0.20414231937E+02  0.00000000000E+00 0. -1.
        -14    1    6    6    0    0 -0.75700763170E+02 -0.19408674114E+02  0.77001166391E+02  0.10971090101E+03  0.00000000000E+00 0.  1.
</event>
<event>
12    1  0.8747122E-002  0.1958647E+03  0.7818608E-02  0.1153423E+00
         21   -1    0    0  503  502  0.00000000000E+00  0.00000000000E+00  0.54395369743E+03  0.54395369743E+03  0.00000000000E+00 0. -1.
         21   -1    0    0  501  503 -0.00000000000E+00 -0.00000000000E+00 -0.15541175905E+03  0.15541175905E+03  0.00000000000E+00 0. -1.
          6    2    1    2  501    0  0.82838939125E+02 -0.45376552230E+02 -0.64686108398E+02  0.20562601847E+03  0.17081113993E+03 0.  0.
         24    2    3    3    0    0  0.11438938811E+03 -0.54694926874E+02 -0.22401057003E+02  0.15184518072E+03  0.80490275296E+02 0.  0.
         -6    2    1    2    0  502 -0.82838939125E+02  0.45376552230E+02  0.45322804678E+03  0.49373943801E+03  0.17158568977E+03 0.  0.
        -24    2    5    5    0    0 -0.94145639209E+01  0.58969413548E+02  0.36388669477E+03  0.37720673045E+03  0.79406329208E+02 0.  0.
          5    1    3    3  501    0 -0.31550448981E+02  0.93183746435E+01 -0.42285051395E+02  0.53780837744E+02  0.47000000000E+01 0. -1.
        -13    1    4    4    0    0  0.91124420329E+02 -0.78232187271E+01  0.71691353318E+01  0.91740172405E+02  0.00000000000E+00 0.  1.
         14    1    4    4    0    0  0.23264967777E+02 -0.46871708147E+02 -0.29570192334E+02  0.60105008319E+02  0.00000000000E+00 0. -1.
         -5    1    5    5    0  502 -0.73424375204E+02 -0.13592861317E+02  0.89341352002E+02  0.11653270756E+03  0.47000000000E+01 0.  1.
         13    1    6    6    0    0  0.32064642721E+02  0.24326493116E+02  0.21683507818E+03  0.22053881905E+03  0.00000000000E+00 0. -1.
        -14    1    6    6    0    0 -0.41479206642E+02  0.34642920432E+02  0.14705161659E+03  0.15666791140E+03  0.00000000000E+00 0.  1.
</event>
<event>
12    1  0.8747122E-002  0.2016815E+03  0.7818608E-02  0.1148647E+00
         21   -1    0    0  503  502  0.00000000000E+00  0.00000000000E+00  0.39241781196E+04  0.39241781196E+04  0.00000000000E+00 0.  1.
         21   -1    0    0  501  503 -0.00000000000E+00 -0.00000000000E+00 -0.14549024077E+02  0.14549024077E+02  0.00000000000E+00 0. -1.
          6    2    1    2  501    0  0.83778850071E+02 -0.59453113896E+02  0.89418637106E+03  0.91664861018E+03  0.17355644581E+03 0.  0.
         24    2    3    3    0    0  0.81939735823E+02 -0.66289690271E+02  0.89757297689E+03  0.90750092103E+03  0.82536231401E+02 0.  0.
         -6    2    1    2    0  502 -0.83778850071E+02  0.59453113896E+02  0.30154427244E+04  0.30220785335E+04  0.17178553386E+03 0.  0.
        -24    2    5    5    0    0 -0.65771489967E+02  0.60856283795E+02  0.11177147464E+04  0.11242587838E+04  0.81499584638E+02 0.  0.
          5    1    3    3  501    0  0.18391142483E+01  0.68365763746E+01 -0.33866058247E+01  0.91476891484E+01  0.47000000000E+01 0. -1.
        -13    1    4    4    0    0  0.13379011734E+02 -0.10289946271E+02  0.49596865351E+03  0.49625576693E+03  0.00000000000E+00 0.  1.
         14    1    4    4    0    0  0.68560724089E+02 -0.55999743999E+02  0.40160432338E+03  0.41124515410E+03  0.00000000000E+00 0. -1.
         -5    1    5    5    0  502 -0.18007360104E+02 -0.14031698985E+01  0.18977279780E+04  0.18978197497E+04  0.47000000000E+01 0.  1.
         11    1    6    6    0    0 -0.21093768490E+02  0.65322234577E+02  0.85351061280E+03  0.85626649331E+03  0.00000000000E+00 0. -1.
        -12    1    6    6    0    0 -0.44677721476E+02 -0.44659507821E+01  0.26420413364E+03  0.26799229046E+03  0.00000000000E+00 0.  1.
</event>
<event>
12    1  0.8747122E-002  0.2074603E+03  0.7818608E-02  0.1144085E+00
         21   -1    0    0  501  502  0.00000000000E+00  0.00000000000E+00  0.43985399044E+03  0.43985399044E+03  0.00000000000E+00 0.  1.
         21   -1    0    0  502  503 -0.00000000000E+00 -0.00000000000E+00 -0.30488446181E+03  0.30488446181E+03  0.00000000000E+00 0. -1.
         -6    2    1    2    0  503 -0.11222616135E+03  0.92415149723E+01 -0.24033573883E+03  0.31591003224E+03  0.17134107568E+03 0.  0.
        -24    2    3    3    0    0 -0.15476771732E+02  0.40992182433E+01 -0.19678007463E+03  0.20958001065E+03  0.70321042627E+02 0.  0.
          6    2    1    2  501    0  0.11222616135E+03 -0.92415149723E+01  0.37530526746E+03  0.42882842001E+03  0.17424021674E+03 0.  0.
         24    2    5    5    0    0  0.83736008280E+02 -0.71332105311E+02  0.26524051615E+03  0.29920099347E+03  0.84075648986E+02 0.  0.
          5    1    5    5  501    0  0.28490153071E+02  0.62090590339E+02  0.11006475131E+03  0.12962742654E+03  0.47000000000E+01 0. -1.
        -13    1    6    6    0    0 -0.11358756207E+02 -0.63923039384E+01  0.80224664746E+02  0.81276563201E+02  0.00000000000E+00 0.  1.
         14    1    6    6    0    0  0.95094764487E+02 -0.64939801373E+02  0.18501585140E+03  0.21792443026E+03  0.00000000000E+00 0. -1.
         -5    1    3    3    0  503 -0.96749389620E+02  0.51422967289E+01 -0.43555664198E+02  0.10633002159E+03  0.47000000000E+01 0.  1.
         11    1    4    4    0    0  0.52471090276E+01  0.26015165502E+02 -0.29828828025E+02  0.39925931055E+02  0.00000000000E+00 0. -1.
        -12    1    4    4    0    0 -0.20723880759E+02 -0.21915947258E+02 -0.16695124661E+03  0.16965407959E+03  0.00000000000E+00 0.  1.
</event>
<event>
12    1  0.8747122E-002  0.1729116E+03  0.7818608E-02  0.1174991E+00
         21   -1    0    0  501  502  0.00000000000E+00  0.00000000000E+00  0.16901296674E+03  0.16901296674E+03  0.00000000000E+00 0.  1.
         21   -1    0    0  502  503 -0.00000000000E+00 -0.00000000000E+00 -0.32405214395E+03  0.32405214395E+03  0.00000000000E+00 0.  1.
         -6    2    1    2    0  503 -0.17195633006E+01  0.19574734310E+02 -0.24390939489E+03  0.29865229128E+03  0.17121702909E+03 0.  0.
        -24    2    3    3    0    0  0.20151806400E+02  0.41349604806E+02 -0.57454385133E+02  0.10960186822E+03  0.81213779783E+02 0.  0.
          6    2    1    2  501    0  0.17195633006E+01 -0.19574734310E+02  0.88870217680E+02  0.19441281940E+03  0.17179144809E+03 0.  0.
         24    2    5    5    0    0 -0.14627625597E+00 -0.84496580036E+01  0.12920104394E+03  0.15227122206E+03  0.80138612384E+02 0.  0.
          5    1    5    5  501    0  0.18658395565E+01 -0.11125076307E+02 -0.40330826258E+02  0.42141597344E+02  0.47000000000E+01 0. -1.
        -11    1    6    6    0    0 -0.11578299037E+02 -0.42455211903E+02  0.61088097918E+02  0.75287832573E+02  0.00000000000E+00 0.  1.
         12    1    6    6    0    0  0.11432022781E+02  0.34005553899E+02  0.68112946020E+02  0.76983389484E+02  0.00000000000E+00 0. -1.
         -5    1    3    3    0  503 -0.21871369700E+02 -0.21774870495E+02 -0.18645500976E+03  0.18905042307E+03  0.47000000000E+01 0.  1.
         13    1    4    4    0    0  0.39643624791E+02  0.10824201935E+02 -0.60630485948E+02  0.73245041882E+02  0.00000000000E+00 0. -1.
        -14    1    4    4    0    0 -0.19491818392E+02  0.30525402871E+02  0.31761008149E+01  0.36356826333E+02  0.00000000000E+00 0.  1.
</event>
<event>
12    1  0.8747122E-002  0.2242479E+03  0.7818608E-02  0.1130936E+00
         21   -1    0    0  501  502  0.00000000000E+00  0.00000000000E+00  0.27727516182E+03  0.27727516182E+03  0.00000000000E+00 0.  1.
         21   -1    0    0  502  503 -0.00000000000E+00 -0.00000000000E+00 -0.23585079730E+03  0.23585079730E+03  0.00000000000E+00 0.  1.
         -6    2    1    2    0  503  0.11510376474E+03  0.83390482834E+02 -0.10354395838E+03  0.24609986404E+03  0.17216545088E+03 0.  0.
        -24    2    3    3    0    0  0.31966880972E+02  0.11381812246E+02 -0.10894837964E+03  0.13588059235E+03  0.73772344554E+02 0.  0.
          6    2    1    2  501    0 -0.11510376474E+03 -0.83390482834E+02  0.14496832291E+03  0.26702609508E+03  0.17344818109E+03 0.  0.
         24    2    5    5    0    0 -0.68151853547E+02 -0.12353705656E+03  0.10444069532E+03  0.19299361609E+03  0.80203475783E+02 0.  0.
          5    1    5    5  501    0 -0.46951911197E+02  0.40146573730E+02  0.40527627587E+02  0.74032478989E+02  0.47000000000E+01 0. -1.
        -13    1    6    6    0    0 -0.60367877283E+02 -0.12391965952E+03  0.11524537951E+03  0.17967153398E+03  0.00000000000E+00 0.  1.
         14    1    6    6    0    0 -0.77839762637E+01  0.38260295628E+00 -0.10804684189E+02  0.13322082117E+02  0.00000000000E+00 0. -1.
         -5    1    3    3    0  503  0.83136883772E+02  0.72008670588E+02  0.54044212549E+01  0.11021927169E+03  0.47000000000E+01 0.  1.
         13    1    4    4    0    0  0.45443811444E+02 -0.16503706080E+02 -0.80069617738E+02  0.93534250399E+02  0.00000000000E+00 0. -1.
        -14    1    4    4    0    0 -0.13476930472E+02  0.27885518327E+02 -0.28878761901E+02  0.42346341946E+02  0.00000000000E+00 0.  1.
</event>
<event>
12    1  0.8747122E-002  0.1972302E+03  0.7818608E-02  0.1153249E+00
         21   -1    0    0  503  502  0.00000000000E+00  0.00000000000E+00  0.65900807358E+02  0.65900807358E+02  0.00000000000E+00 0.  1.
         21   -1    0    0  501  503 -0.00000000000E+00 -0.00000000000E+00 -0.58474978205E+03  0.58474978205E+03  0.00000000000E+00 0.  1.
          6    2    1    2  501    0  0.86538158505E+02  0.17599067064E+02 -0.29889908179E+03  0.35522258811E+03  0.17042255124E+03 0.  0.
         24    2    3    3    0    0  0.97344411292E+02 -0.14609036064E+02 -0.17696120654E+03  0.22855344260E+03  0.10598136231E+03 0.  0.
         -6    2    1    2    0  502 -0.86538158505E+02 -0.17599067064E+02 -0.21994989291E+03  0.29542800130E+03  0.17635523390E+03 0.  0.
        -24    2    5    5    0    0 -0.63284404567E+02 -0.47032112747E+02 -0.54659731323E+02  0.12586984383E+03  0.81477578913E+02 0.  0.
          5    1    3    3  501    0 -0.10806252788E+02  0.32208103128E+02 -0.12193787524E+03  0.12666914551E+03  0.47000000000E+01 0. -1.
        -11    1    4    4    0    0  0.12044613246E+03 -0.96711105950E+01 -0.14359141513E+03  0.18766804657E+03  0.00000000000E+00 0.  1.
         12    1    4    4    0    0 -0.23101721170E+02 -0.49379254686E+01 -0.33369791416E+02  0.40885396025E+02  0.00000000000E+00 0. -1.
         -5    1    5    5    0  502 -0.23253753938E+02  0.29433045683E+02 -0.16529016158E+03  0.16955815747E+03  0.47000000000E+01 0.  1.
         11    1    6    6    0    0 -0.25358502208E+02  0.15052061934E+02  0.72209268589E+01  0.30360500447E+02  0.00000000000E+00 0. -1.
        -12    1    6    6    0    0 -0.37925902359E+02 -0.62084174681E+02 -0.61880658182E+02  0.95509343379E+02  0.00000000000E+00 0.  1.
</event>
<event>
12    1  0.8747122E-002  0.1979706E+03  0.7818608E-02  0.1151550E+00
         21   -1    0    0  503  502  0.00000000000E+00  0.00000000000E+00  0.21316621866E+03  0.21316621866E+03  0.00000000000E+00 0. -1.
         21   -1    0    0  501  503 -0.00000000000E+00 -0.00000000000E+00 -0.29954732238E+03  0.29954732238E+03  0.00000000000E+00 0. -1.
          6    2    1    2  501    0 -0.60710324341E+02 -0.76747257597E+02 -0.20273985732E+03  0.28307965816E+03  0.17162388555E+03 0.  0.
         24    2    3    3    0    0 -0.82793454106E+02  0.29561686075E+01 -0.11036682035E+03  0.15900238898E+03  0.78977399882E+02 0.  0.
         -6    2    1    2    0  502  0.60710324341E+02  0.76747257597E+02  0.11635875360E+03  0.22963388288E+03  0.17209437991E+03 0.  0.
        -24    2    5    5    0    0  0.91856063760E+02  0.40672333005E+02  0.32880667602E+02  0.13339388023E+03  0.81369612632E+02 0.  0.
          5    1    3    3  501    0  0.22083129765E+02 -0.79703426204E+02 -0.92373036966E+02  0.12407726918E+03  0.47000000000E+01 0. -1.
        -13    1    4    4    0    0 -0.57168134208E+02  0.37834343878E+02 -0.83601667690E+02  0.10811508676E+03  0.00000000000E+00 0.  1.
         14    1    4    4    0    0 -0.25625319899E+02 -0.34878175271E+02 -0.26765152663E+02  0.50887302220E+02  0.00000000000E+00 0. -1.
         -5    1    5    5    0  502 -0.31145739419E+02  0.36074924592E+02  0.83478085996E+02  0.96240002648E+02  0.47000000000E+01 0.  1.
         13    1    6    6    0    0  0.18972522439E+01  0.23281706052E+02  0.34607755727E+02  0.41753253278E+02  0.00000000000E+00 0. -1.
        -14    1    6    6    0    0  0.89958811516E+02  0.17390626952E+02 -0.17270881258E+01  0.91640626954E+02  0.00000000000E+00 0.  1.
</event>
<event>
12    1  0.8747122E-002  0.1792074E+03  0.7818608E-02  0.1168675E+00
         21   -1    0    0  503  502  0.00000000000E+00  0.00000000000E+00  0.46709767163E+03  0.46709767163E+03  0.00000000000E+00 0. -1.
         21   -1    0    0  501  503 -0.00000000000E+00 -0.00000000000E+00 -0.13960088803E+03  0.13960088803E+03  0.00000000000E+00 0. -1.
          6    2    1    2  501    0 -0.47294493572E+02 -0.62674419781E+01 -0.52692587319E+02  0.18639003753E+03  0.17230405503E+03 0.  0.
         24    2    3    3    0    0  0.10172428509E+00  0.44428413286E+02 -0.69662957766E+02  0.11479007467E+03  0.79686506408E+02 0.  0.
         -6    2    1    2    0  502  0.47294493572E+02  0.62674419781E+01  0.38018937092E+03  0.42030852213E+03  0.17274040078E+03 0.  0.
        -24    2    5    5    0    0  0.37742915260E+02  0.36078938141E+02  0.37659245275E+03  0.38844968078E+03  0.79655894947E+02 0.  0.
          5    1    3    3  501    0 -0.47396217858E+02 -0.50695855264E+02  0.16970370447E+02  0.71599962858E+02  0.47000000000E+01 0. -1.
        -11    1    4    4    0    0 -0.21502727744E+02  0.60075907001E+02 -0.55604463011E+02  0.84636506362E+02  0.00000000000E+00 0.  1.
         12    1    4    4    0    0  0.21604452029E+02 -0.15647493715E+02 -0.14058494755E+02  0.30153568310E+02  0.00000000000E+00 0. -1.
         -5    1    5    5    0  502  0.95515783127E+01 -0.29811496163E+02  0.35969181724E+01  0.31858841349E+02  0.47000000000E+01 0.  1.
         13    1    6    6    0    0  0.16121967847E+02  0.50807757792E+02  0.13044256701E+03  0.14091348193E+03  0.00000000000E+00 0. -1.
        -14    1    6    6    0    0  0.21620947413E+02 -0.14728819651E+02  0.24614988574E+03  0.24753619885E+03  0.00000000000E+00 0.  1.
</event>
<event>
12    1  0.8747122E-002  0.2898149E+03  0.7818608E-02  0.1090662E+00
         21   -1    0    0  501  502  0.00000000000E+00  0.00000000000E+00  0.63342384204E+03  0.63342384204E+03  0.00000000000E+00 0.  1.
         21   -1    0    0  502  503 -0.00000000000E+00 -0.00000000000E+00 -0.13195561295E+03  0.13195561295E+03  0.00000000000E+00 0.  1.
         -6    2    1    2    0  503 -0.99120746436E+02 -0.21011319218E+03  0.26096768535E+03  0.38877201828E+03  0.17049068450E+03 0.  0.
        -24    2    3    3    0    0 -0.11341134218E+03 -0.21828911649E+03  0.19604996217E+03  0.32163434148E+03  0.67087935111E+02 0.  0.
          6    2    1    2  501    0  0.99120746436E+02  0.21011319218E+03  0.24050054374E+03  0.37660743670E+03  0.17326330810E+03 0.  0.
         24    2    5    5    0    0  0.13066812323E+03  0.14641471262E+03  0.21143797396E+03  0.29966943410E+03  0.81143862383E+02 0.  0.
          5    1    5    5  501    0 -0.31547376793E+02  0.63698479567E+02  0.29062569784E+02  0.76938002600E+02  0.47000000000E+01 0. -1.
        -13    1    6    6    0    0  0.11280231081E+03  0.11666210189E+03  0.11988440697E+03  0.20175896108E+03  0.00000000000E+00 0.  1.
         14    1    6    6    0    0  0.17865812416E+02  0.29752610730E+02  0.91553566987E+02  0.97910473018E+02  0.00000000000E+00 0. -1.
         -5    1    3    3    0  503  0.14290595743E+02  0.81759243045E+01  0.64917723173E+02  0.67137676806E+02  0.47000000000E+01 0.  1.
         13    1    4    4    0    0 -0.78334931425E+01 -0.64093001323E+02  0.28258360805E+02  0.70482702763E+02  0.00000000000E+00 0. -1.
        -14    1    4    4    0    0 -0.10557784904E+03 -0.15419611517E+03  0.16779160137E+03  0.25115163871E+03  0.00000000000E+00 0.  1.
</event>
<event>
12    1  0.8747122E-002  0.2545430E+03  0.7818608E-02  0.1110524E+00
         21   -1    0    0  501  502  0.00000000000E+00  0.00000000000E+00  0.93648221096E+03  0.93648221096E+03  0.00000000000E+00 0. -1.
         21   -1    0    0  502  503 -0.00000000000E+00 -0.00000000000E+00 -0.69092888798E+02  0.69092888798E+02  0.00000000000E+00 0.  1.
         -6    2    1    2    0  503  0.14586498014E+03 -0.11786536772E+03  0.43869184084E+03  0.50719094585E+03  0.17211416849E+03 0.  0.
        -24    2    3    3    0    0  0.17445798473E+03 -0.89395617399E+02  0.33724834879E+03  0.39791625219E+03  0.78573087942E+02 0.  0.
          6    2    1    2  501    0 -0.14586498014E+03  0.11786536772E+03  0.42869748132E+03  0.49838415391E+03  0.17157038507E+03 0.  0.
         24    2    5    5    0    0 -0.33791882932E+02  0.20982143512E+02  0.26143010621E+03  0.27489544496E+03  0.75097693225E+02 0.  0.
          5    1    5    5  501    0 -0.11207309720E+03  0.96883224210E+02  0.16726737511E+03  0.22348870895E+03  0.47000000000E+01 0. -1.
        -13    1    6    6    0    0 -0.46029533184E+02  0.32338742477E+02  0.12054817517E+03  0.13302772165E+03  0.00000000000E+00 0.  1.
         14    1    6    6    0    0  0.12237650252E+02 -0.11356598965E+02  0.14088193104E+03  0.14186772331E+03  0.00000000000E+00 0. -1.
         -5    1    3    3    0  503 -0.28593004597E+02 -0.28469750322E+02  0.10144349205E+03  0.10927469366E+03  0.47000000000E+01 0.  1.
         13    1    4    4    0    0 -0.81943846627E+01 -0.23517354051E+01  0.18547291979E+02  0.20412756775E+02  0.00000000000E+00 0. -1.
        -14    1    4    4    0    0  0.18265236940E+03 -0.87043881994E+02  0.31870105681E+03  0.37750349541E+03  0.00000000000E+00 0.  1.
</event>
<event>
12    1  0.8747122E-002  0.2250676E+03  0.7818608E-02  0.1130379E+00
         21   -1    0    0  501  502  0.00000000000E+00  0.00000000000E+00  0.61894895057E+03  0.61894895057E+03  0.00000000000E+00 0. -1.
         21   -1    0    0  502  503 -0.00000000000E+00 -0.00000000000E+00 -0.14727432694E+03  0.14727432694E+03  0.00000000000E+00 0. -1.
         -6    2    1    2    0  503 -0.84606550436E+02  0.11844994624E+03 -0.20028667156E+02  0.22595699326E+03  0.17165883943E+03 0.  0.
        -24    2    3    3    0    0 -0.12139720827E+03  0.64381447930E+02 -0.19785403753E+02  0.16038943886E+03  0.80318471619E+02 0.  0.
          6    2    1    2  501    0  0.84606550436E+02 -0.11844994624E+03  0.49170329078E+03  0.54026628425E+03  0.17007902159E+03 0.  0.
         24    2    5    5    0    0  0.87469805024E+02 -0.16817729630E+02  0.30431266952E+03  0.32701844577E+03  0.80006626098E+02 0.  0.
          5    1    5    5  501    0 -0.28632545886E+01 -0.10163221661E+03  0.18739062126E+03  0.21324783848E+03  0.47000000000E+01 0. -1.
        -11    1    6    6    0    0  0.14155328159E+02 -0.32854231536E+02  0.47497704153E+02  0.59462641590E+02  0.00000000000E+00 0.  1.
         12    1    6    6    0    0  0.73314476866E+02  0.16036501906E+02  0.25681496537E+03  0.26755580418E+03  0.00000000000E+00 0. -1.
         -5    1    3    3    0  503  0.36790657834E+02  0.54068498307E+02 -0.24326340233E+00  0.65567554401E+02  0.47000000000E+01 0.  1.
         13    1    4    4    0    0 -0.95210590621E+02  0.38760467498E+02 -0.48669160198E+02  0.11373705448E+03  0.00000000000E+00 0. -1.
        -14    1    4    4    0    0 -0.26186617648E+02  0.25620980432E+02  0.28883756445E+02  0.46652384382E+02  0.00000000000E+00 0.  1.
</event>
<event>
12    1  0.8747122E-002  0.2075616E+03  0.7818608E-02  0.1143705E+00
         21   -1    0    0  501  502  0.00000000000E+00  0.00000000000E+00  0.48864013775E+02  0.48864013775E+02  0.00000000000E+00 0. -1.
         21   -1    0    0  502  503 -0.00000000000E+00 -0.00000000000E+00 -0.11574163253E+04  0.11574163253E+04  0.00000000000E+00 0. -1.
         -6    2    1    2    0  503 -0.21743952052E+02  0.11365587850E+03 -0.25869296887E+03  0.33166832125E+03  0.17231182493E+03 0.  0.
        -24    2    3    3    0    0  0.36137188806E+02  0.41467069770E+02 -0.63070000922E+02  0.11521535601E+03  0.79191785899E+02 0.  0.
          6    2    1    2  501    0  0.21743952052E+02 -0.11365587850E+03 -0.84985934265E+03  0.87461201782E+03  0.17115729975E+03 0.  0.
         24    2    5    5    0    0 -0.39308191069E+01 -0.10651008951E+03 -0.35978968872E+03  0.38379574682E+03  0.80564909616E+02 0.  0.
          5    1    5    5  501    0  0.25674771159E+02 -0.71457889838E+01 -0.49006965393E+03  0.49081627099E+03  0.47000000000E+01 0. -1.
        -13    1    6    6    0    0 -0.28106122791E+02 -0.23558333213E+02 -0.18751898317E+03  0.19107150037E+03  0.00000000000E+00 0.  1.
         14    1    6    6    0    0  0.24175303684E+02 -0.82951756302E+02 -0.17227070555E+03  0.19272424646E+03  0.00000000000E+00 0. -1.
         -5    1    3    3    0  503 -0.57881140858E+02  0.72188808729E+02 -0.19562296795E+03  0.21645296524E+03  0.47000000000E+01 0.  1.
         13    1    4    4    0    0  0.15292107169E+02  0.56120809015E+02 -0.67765478165E+02  0.89305956000E+02  0.00000000000E+00 0. -1.
        -14    1    4    4    0    0  0.20845081636E+02 -0.14653739245E+02  0.46954772433E+01  0.25909400009E+02  0.00000000000E+00 0.  1.
</event>
<event>
12    1  0.8747122E-002  0.2682878E+03  0.7818608E-02  0.1103081E+00
         21   -1    0    0  501  502  0.00000000000E+00  0.00000000000E+00  0.61101975460E+03  0.61101975460E+03  0.00000000000E+00 0. -1.
         21   -1    0    0  502  503 -0.00000000000E+00 -0.00000000000E+00 -0.47424396286E+03  0.47424396286E+03  0.00000000000E+00 0.  1.
         -6    2    1    2    0  503  0.15261957050E+03  0.12728082681E+03 -0.40347836314E+03  0.48453395012E+03  0.18023655880E+03 0.  0.
        -24    2    3    3    0    0  0.97182947246E+02 -0.27958857547E+01 -0.16899365024E+03  0.21067570041E+03  0.79831414318E+02 0.  0.
          6    2    1    2  501    0 -0.15261957050E+03 -0.12728082681E+03  0.54025415487E+03  0.60072976734E+03  0.17178055575E+03 0.  0.
         24    2    5    5    0    0 -0.43812905214E+02 -0.82268654480E+01  0.12328379358E+03  0.15362898639E+03  0.80098188002E+02 0.  0.
          5    1    5    5  501    0 -0.10880666529E+03 -0.11905396136E+03  0.41697036129E+03  0.44710078095E+03  0.47000000000E+01 0. -1.
        -11    1    6    6    0    0 -0.14608218954E+02 -0.38782144135E+02  0.29831116063E+02  0.51062219402E+02  0.00000000000E+00 0.  1.
         12    1    6    6    0    0 -0.29204686260E+02  0.30555278687E+02  0.93452677517E+02  0.10256676699E+03  0.00000000000E+00 0. -1.
         -5    1    3    3    0  503  0.55436623255E+02  0.13007671256E+03 -0.23448471290E+03  0.27385824971E+03  0.47000000000E+01 0.  1.
         13    1    4    4    0    0  0.42114053662E+02  0.35039384515E+02 -0.49816958189E+02  0.74047831205E+02  0.00000000000E+00 0. -1.
        -14    1    4    4    0    0  0.55068893585E+02 -0.37835270270E+02 -0.11917669205E+03  0.13662786921E+03  0.00000000000E+00 0.  1.
</event>
<event>
12    1  0.8747122E-002  0.2073033E+03  0.7818608E-02  0.1143739E+00
         21   -1    0    0  503  502  0.00000000000E+00  0.00000000000E+00  0.16974990702E+03  0.16974990702E+03  0.00000000000E+00 0.  1.
         21   -1    0    0  501  503 -0.00000000000E+00 -0.00000000000E+00 -0.28226090669E+03  0.28226090669E+03  0.00000000000E+00 0. -1.
          6    2    1    2  501    0  0.10439625787E+03 -0.50059343286E+02  0.16465064700E+02  0.20786030440E+03  0.17184379907E+03 0.  0.
         24    2    3    3    0    0  0.55431746063E+02 -0.97311764332E+02  0.88181009498E+01  0.13922444813E+03  0.82240076011E+02 0.  0.
         -6    2    1    2    0  502 -0.10439625787E+03  0.50059343286E+02 -0.12897606436E+03  0.24415050931E+03  0.17195967408E+03 0.  0.
        -24    2    5    5    0    0 -0.41713136524E+02  0.40312098996E+02 -0.14747186946E+03  0.17790575647E+03  0.80854528746E+02 0.  0.
          5    1    3    3  501    0  0.48964511811E+02  0.47252421046E+02  0.76469637504E+01  0.68635856272E+02  0.47000000000E+01 0. -1.
        -13    1    4    4    0    0  0.50353009751E+02 -0.37471349972E+02  0.37027454979E+02  0.72873589742E+02  0.00000000000E+00 0.  1.
         14    1    4    4    0    0  0.50787363125E+01 -0.59840414360E+02 -0.28209354030E+02  0.66350858383E+02  0.00000000000E+00 0. -1.
         -5    1    5    5    0  502 -0.62683121351E+02  0.97472442894E+01  0.18495805095E+02  0.66244752846E+02  0.47000000000E+01 0.  1.
         11    1    6    6    0    0 -0.58908900384E+02  0.12347901202E+02 -0.62297362271E+02  0.86623845184E+02  0.00000000000E+00 0. -1.
        -12    1    6    6    0    0  0.17195763860E+02  0.27964197795E+02 -0.85174507187E+02  0.91281911283E+02  0.00000000000E+00 0.  1.
</event>
<event>
12    1  0.8747122E-002  0.2764650E+03  0.7818608E-02  0.1098243E+00
         21   -1    0    0  503  502  0.00000000000E+00  0.00000000000E+00  0.13570607934E+03  0.13570607934E+03  0.00000000000E+00 0.  1.
         21   -1    0    0  501  503 -0.00000000000E+00 -0.00000000000E+00 -0.62875016992E+03  0.62875016992E+03  0.00000000000E+00 0. -1.
          6    2    1    2  501    0 -0.17247389649E+03 -0.12186931304E+03 -0.37966953571E+03  0.46966140548E+03  0.17841946367E+03 0.  0.
         24    2    3    3    0    0 -0.87575833504E+02 -0.50936369870E+02 -0.83568917467E+02  0.15353353633E+03  0.79528249211E+02 0.  0.
         -6    2    1    2    0  502  0.17247389649E+03  0.12186931304E+03 -0.11337455487E+03  0.29479484378E+03  0.17161245816E+03 0.  0.
        -24    2    5    5    0    0  0.45714815128E+02  0.10347615393E+02  0.44145177887E+01  0.88879061501E+02  0.75386219824E+02 0.  0.
          5    1    3    3  501    0 -0.84898062990E+02 -0.70932943174E+02 -0.29610061824E+03  0.31612786915E+03  0.47000000000E+01 0. -1.
        -11    1    4    4    0    0  0.11564332302E+02 -0.12593370683E+02  0.18109803244E+01  0.17193208441E+02  0.00000000000E+00 0.  1.
         12    1    4    4    0    0 -0.99140165806E+02 -0.38342999186E+02 -0.85379897792E+02  0.13634032789E+03  0.00000000000E+00 0. -1.
         -5    1    5    5    0  502  0.12675908137E+03  0.11152169765E+03 -0.11778907266E+03  0.20591578228E+03  0.47000000000E+01 0.  1.
         11    1    6    6    0    0 -0.16937246881E+02 -0.13525905074E+02  0.23300673275E+01  0.21800221415E+02  0.00000000000E+00 0. -1.
        -12    1    6    6    0    0  0.62652062009E+02  0.23873520467E+02  0.20844504611E+01  0.67078840086E+02  0.00000000000E+00 0.  1.
</event>
<event>
12    1  0.8747122E-002  0.2349041E+03  0.7818608E-02  0.1123401E+00
         21   -1    0    0  501  502  0.00000000000E+00  0.00000000000E+00  0.15280927406E+03  0.15280927406E+03  0.00000000000E+00 0.  1.
         21   -1    0    0  502  503 -0.00000000000E+00 -0.00000000000E+00 -0.43106992479E+03  0.43106992479E+03  0.00000000000E+00 0.  1.
         -6    2    1    2    0  503 -0.44192100503E+02  0.15439488692E+03 -0.25822685735E+03  0.34908604216E+03  0.17143287934E+03 0.  0.
        -24    2    3    3    0    0 -0.46236757797E+02  0.10359060790E+03 -0.74033545948E+02  0.15794598525E+03  0.81222635476E+02 0.  0.
          6    2    1    2  501    0  0.44192100503E+02 -0.15439488692E+03 -0.20033793381E+02  0.23479315669E+03  0.17010511662E+03 0.  0.
         24    2    5    5    0    0 -0.36292642919E+02 -0.11815489401E+03 -0.72290008450E+01  0.14547807554E+03  0.76379821294E+02 0.  0.
          5    1    5    5  501    0  0.80484743422E+02 -0.36239992905E+02 -0.12804792536E+02  0.89315081153E+02  0.47000000000E+01 0. -1.
        -11    1    6    6    0    0 -0.28702743462E-01 -0.92349526666E+02  0.18332927770E+02  0.94151644382E+02  0.00000000000E+00 0.  1.
         12    1    6    6    0    0 -0.36263940176E+02 -0.25805367346E+02 -0.25561928616E+02  0.51326431159E+02  0.00000000000E+00 0. -1.
         -5    1    3    3    0  503  0.20446572940E+01  0.50804279018E+02 -0.18419331141E+03  0.19114005691E+03  0.47000000000E+01 0.  1.
         13    1    4    4    0    0  0.14895638243E+02 -0.42216701792E+01 -0.10143581054E+02  0.18509315881E+02  0.00000000000E+00 0. -1.
        -14    1    4    4    0    0 -0.61132396040E+02  0.10781227808E+03 -0.63889964894E+02  0.13943666937E+03  0.00000000000E+00 0.  1.
</event>
<event>
12    1  0.8747122E-002  0.2328030E+03  0.7818608E-02  0.1125050E+00
         21   -1    0    0  501  502  0.00000000000E+00  0.00000000000E+00  0.48323837786E+02  0.48323837786E+02  0.00000000000E+00 0.  1.
         21   -1    0    0  502  503 -0.00000000000E+00 -0.00000000000E+00 -0.11126307783E+04  0.11126307783E+04  0.00000000000E+00 0. -1.
         -6    2    1    2    0  503 -0.31008605389E+01  0.15650205252E+03 -0.51508190578E+03  0.56524916674E+03  0.17232162680E+03 0.  0.
        -24    2    3    3    0    0 -0.56223928736E+02  0.74879506940E+02 -0.35275821554E+03  0.37589402228E+03  0.89943797070E+02 0.  0.
          6    2    1    2  501    0  0.31008605389E+01 -0.15650205252E+03 -0.54922503472E+03  0.59570544933E+03  0.16945304900E+03 0.  0.
         24    2    5    5    0    0  0.61721344431E+02 -0.12890013575E+03 -0.42417905489E+03  0.45479124134E+03  0.80513559340E+02 0.  0.
          5    1    5    5  501    0 -0.58620483892E+02 -0.27601916776E+02 -0.12504597983E+03  0.14091420799E+03  0.47000000000E+01 0. -1.
        -13    1    6    6    0    0  0.13577308387E+02 -0.10021766280E+02 -0.68749389847E+01  0.18222071464E+02  0.00000000000E+00 0.  1.
         14    1    6    6    0    0  0.48144036044E+02 -0.11887836947E+03 -0.41730411591E+03  0.43656916988E+03  0.00000000000E+00 0. -1.
         -5    1    3    3    0  503  0.53123068197E+02  0.81622545585E+02 -0.16232369023E+03  0.18935514446E+03  0.47000000000E+01 0.  1.
         13    1    4    4    0    0 -0.37434908369E+02  0.88500505917E+02 -0.32873849693E+03  0.34249483394E+03  0.00000000000E+00 0. -1.
        -14    1    4    4    0    0 -0.18789020367E+02 -0.13620998978E+02 -0.24019718611E+02  0.33399188338E+02  0.00000000000E+00 0.  1.
</event>
<event>
12    1  0.8747122E-002  0.1758433E+03  0.7818608E-02  0.1172212E+00
         21   -1    0    0  501  502  0.00000000000E+00  0.00000000000E+00  0.46308627255E+03  0.46308627255E+03  0.00000000000E+00 0. -1.
         21   -1    0    0  502  503 -0.00000000000E+00 -0.00000000000E+00 -0.10693158060E+03  0.10693158060E+03  0.00000000000E+00 0. -1.
         -6    2    1    2    0  503 -0.24193992607E+02 -0.34768249049E+02  0.19397086653E+01  0.17455720956E+03  0.16932890043E+03 0.  0.
        -24    2    3    3    0    0  0.48479017894E+01 -0.25246160705E+02  0.64262379358E+02  0.10498489410E+03  0.78938607827E+02 0.  0.
          6    2    1    2  501    0  0.24193992607E+02  0.34768249049E+02  0.35421498328E+03  0.39546064359E+03  0.17066542070E+03 0.  0.
         24    2    5    5    0    0  0.60470197456E+02  0.63651665218E+02  0.30713235011E+03  0.32921051820E+03  0.79631058897E+02 0.  0.
          5    1    5    5  501    0 -0.36276204849E+02 -0.28883416169E+02  0.47082633174E+02  0.66250125392E+02  0.47000000000E+01 0. -1.
        -13    1    6    6    0    0  0.16079639503E+02  0.64527723411E+02  0.23744064996E+03  0.24657746075E+03  0.00000000000E+00 0.  1.
         14    1    6    6    0    0  0.44390557953E+02 -0.87605819241E+00  0.69691700145E+02  0.82633057444E+02  0.00000000000E+00 0. -1.
         -5    1    3    3    0  503 -0.29041894397E+02 -0.95220883446E+01 -0.62322670693E+02  0.69572315463E+02  0.47000000000E+01 0.  1.
         11    1    4    4    0    0 -0.41693889166E-01 -0.14267740588E+02 -0.17366598036E+02  0.22475962431E+02  0.00000000000E+00 0. -1.
        -12    1    4    4    0    0  0.48895956786E+01 -0.10978420117E+02  0.81628977394E+02  0.82508931665E+02  0.00000000000E+00 0.  1.
</event>
<event>
12    1  0.8747122E-002  0.2744125E+03  0.7818608E-02  0.1098959E+00
         21   -1    0    0  501  502  0.00000000000E+00  0.00000000000E+00  0.10571731406E+04  0.10571731406E+04  0.00000000000E+00 0. -1.
         21   -1    0    0  502  503 -0.00000000000E+00 -0.00000000000E+00 -0.80167118356E+02  0.80167118356E+02  0.00000000000E+00 0.  1.
         -6    2    1    2    0  503  0.15632840823E+03  0.14680491716E+03  0.29616626031E+03  0.40375323927E+03  0.17120738753E+03 0.  0.
        -24    2    3    3    0    0  0.17111825349E+03  0.80979090567E+02  0.19983007858E+03  0.28604797651E+03  0.77796624429E+02 0.  0.
          6    2    1    2  501    0 -0.15632840823E+03 -0.14680491716E+03  0.68083976194E+03  0.73358701970E+03  0.16916524201E+03 0.  0.
         24    2    5    5    0    0 -0.30188661175E+02 -0.17933709589E+02  0.29457641440E+03  0.30727670129E+03  0.80067059583E+02 0.  0.
          5    1    5    5  501    0 -0.12613974706E+03 -0.12887120758E+03  0.38626334754E+03  0.42631031841E+03  0.47000000000E+01 0. -1.
        -13    1    6    6    0    0 -0.12728277465E+02 -0.20365817938E+02  0.17686014169E+02  0.29825671572E+02  0.00000000000E+00 0.  1.
         14    1    6    6    0    0 -0.17460383709E+02  0.24321083487E+01  0.27689040023E+03  0.27745102972E+03  0.00000000000E+00 0. -1.
         -5    1    3    3    0  503 -0.14789845257E+02  0.65825826598E+02  0.96336181736E+02  0.11770526276E+03  0.47000000000E+01 0.  1.
         13    1    4    4    0    0  0.11677997388E+03  0.65618184380E+02  0.86570186755E+02  0.15949202380E+03  0.00000000000E+00 0. -1.
        -14    1    4    4    0    0  0.54338279609E+02  0.15360906187E+02  0.11325989182E+03  0.12655595271E+03  0.00000000000E+00 0.  1.
</event>
<event>
12    1  0.8747122E-002  0.1800302E+03  0.7818608E-02  0.1168609E+00
         21   -1    0    0  503  502  0.00000000000E+00  0.00000000000E+00  0.87057346000E+02  0.87057346000E+02  0.00000000000E+00 0.  1.
         21   -1    0    0  501  503 -0.00000000000E+00 -0.00000000000E+00 -0.70033635223E+03  0.70033635223E+03  0.00000000000E+00 0.  1.
          6    2    1    2  501    0 -0.47668879842E+02 -0.11963377015E+02 -0.57742125637E+03  0.60382717719E+03  0.16963639973E+03 0.  0.
         24    2    3    3    0    0 -0.12489578746E+01  0.37252198716E+02 -0.16977128102E+03  0.19057474289E+03  0.78148311337E+02 0.  0.
         -6    2    1    2    0  502  0.47668879842E+02  0.11963377015E+02 -0.35857749856E+02  0.18356652103E+03  0.17319193089E+03 0.  0.
        -24    2    5    5    0    0  0.92258360753E+02  0.32746092310E+02 -0.52527990159E+01  0.12543824841E+03  0.78251201750E+02 0.  0.
          5    1    3    3  501    0 -0.46419921968E+02 -0.49215575731E+02 -0.40764997536E+03  0.41325243430E+03  0.47000000000E+01 0. -1.
        -11    1    4    4    0    0  0.24440751193E+02 -0.11829536214E+01 -0.14224874066E+02  0.28303652421E+02  0.00000000000E+00 0.  1.
         12    1    4    4    0    0 -0.25689709068E+02  0.38435152337E+02 -0.15554640695E+03  0.16227109047E+03  0.00000000000E+00 0. -1.
         -5    1    5    5    0  502 -0.44589480910E+02 -0.20782715295E+02 -0.30604950840E+02  0.58128272629E+02  0.47000000000E+01 0.  1.
         11    1    6    6    0    0  0.14927076132E+02  0.88763947453E+01 -0.35113729610E+02  0.39173741111E+02  0.00000000000E+00 0. -1.
        -12    1    6    6    0    0  0.77331284621E+02  0.23869697565E+02  0.29860930594E+02  0.86264507295E+02  0.00000000000E+00 0.  1.
</event>
<event>
12    1  0.8747122E-002  0.1928287E+03  0.7818608E-02  0.1156052E+00
         21   -1    0    0  501  502  0.00000000000E+00  0.00000000000E+00  0.90092428155E+03  0.90092428155E+03  0.00000000000E+00 0.  1.
         21   -1    0    0  502  503 -0.00000000000E+00 -0.00000000000E+00 -0.44164461668E+02  0.44164461668E+02  0.00000000000E+00 0.  1.
         -6    2    1    2    0  503  0.61835059740E+02 -0.61666938279E+02  0.30564313487E+03  0.36138711001E+03  0.17192013117E+03 0.  0.
        -24    2    3    3    0    0 -0.17312435328E+02 -0.32644243271E+02  0.23650306246E+03  0.25225836764E+03  0.79594085534E+02 0.  0.
          6    2    1    2  501    0 -0.61835059740E+02  0.61666938279E+02  0.55111668502E+03  0.58370163321E+03  0.17132311641E+03 0.  0.
         24    2    5    5    0    0 -0.32560764931E+02  0.28114706155E+02  0.52356919246E+03  0.53113081466E+03  0.78259841992E+02 0.  0.
          5    1    5    5  501    0 -0.29274294809E+02  0.33552232124E+02  0.27547492558E+02  0.52570818553E+02  0.47000000000E+01 0. -1.
        -11    1    6    6    0    0 -0.56875367594E+00  0.38513916908E+02  0.11710665645E+03  0.12327860423E+03  0.00000000000E+00 0.  1.
         12    1    6    6    0    0 -0.31992011255E+02 -0.10399210753E+02  0.40646253601E+03  0.40785221042E+03  0.00000000000E+00 0. -1.
         -5    1    3    3    0  503  0.79147495068E+02 -0.29022695008E+02  0.69140072405E+02  0.10912874238E+03  0.47000000000E+01 0.  1.
         13    1    4    4    0    0 -0.57367976642E+00  0.19804210597E+02  0.17478255041E+02  0.26420167772E+02  0.00000000000E+00 0. -1.
        -14    1    4    4    0    0 -0.16738755561E+02 -0.52448453868E+02  0.21902480742E+03  0.22583819986E+03  0.00000000000E+00 0.  1.
</event>
<event>
12    1  0.8747122E-002  0.1768569E+03  0.7818608E-02  0.1171153E+00
         21   -1    0    0  501  502  0.00000000000E+00  0.00000000000E+00  0.60461874895E+02  0.60461874895E+02  0.00000000000E+00 0. -1.
         21   -1    0    0  502  503 -0.00000000000E+00 -0.00000000000E+00 -0.66176857941E+03  0.66176857941E+03  0.00000000000E+00 0. -1.
         -6    2    1    2    0  503 -0.36490785889E+02  0.11749702903E+02 -0.13080820623E+03  0.21997530484E+03  0.17265200534E+03 0.  0.
        -24    2    3    3    0    0  0.12136467583E+02  0.65785125269E+02 -0.85007529251E+02  0.13392747708E+03  0.78963995181E+02 0.  0.
          6    2    1    2  501    0  0.36490785889E+02 -0.11749702903E+02 -0.47049849829E+03  0.50225514947E+03  0.17152773917E+03 0.  0.
         24    2    5    5    0    0 -0.20843231428E+02 -0.32022562975E+02 -0.13622152571E+03  0.16245908888E+03  0.79854659581E+02 0.  0.
          5    1    5    5  501    0  0.57334017317E+02  0.20272860072E+02 -0.33427697258E+03  0.33979606059E+03  0.47000000000E+01 0. -1.
        -11    1    6    6    0    0 -0.45442942587E+02 -0.30107257527E+02 -0.12283550214E+03  0.13438775455E+03  0.00000000000E+00 0.  1.
         12    1    6    6    0    0  0.24599711160E+02 -0.19153054479E+01 -0.13386023572E+02  0.28071334332E+02  0.00000000000E+00 0. -1.
         -5    1    3    3    0  503 -0.48627253472E+02 -0.54035422366E+02 -0.45800676977E+02  0.86047827760E+02  0.47000000000E+01 0.  1.
         13    1    4    4    0    0  0.40672281544E+02  0.47151756470E+02 -0.29764740278E+02  0.69017841085E+02  0.00000000000E+00 0. -1.
        -14    1    4    4    0    0 -0.28535813961E+02  0.18633368799E+02 -0.55242788973E+02  0.64909635993E+02  0.00000000000E+00 0.  1.
</event>
<event>
12    1  0.8747122E-002  0.2212106E+03  0.7818608E-02  0.1133062E+00
         21   -1    0    0  501  502  0.00000000000E+00  0.00000000000E+00  0.32952369430E+03  0.32952369430E+03  0.00000000000E+00 0. -1.
         21   -1    0    0  502  503 -0.00000000000E+00 -0.00000000000E+00 -0.34465347978E+03  0.34465347978E+03  0.00000000000E+00 0.  1.
         -6    2    1    2    0  503  0.13749351648E+03 -0.18555608818E+02 -0.26204884664E+03  0.34266073466E+03  0.17174982782E+03 0.  0.
        -24    2    3    3    0    0  0.72238497280E+02  0.54833639813E+02 -0.16400771129E+03  0.20381422384E+03  0.80103557547E+02 0.  0.
          6    2    1    2  501    0 -0.13749351648E+03  0.18555608818E+02  0.24691906117E+03  0.33151643941E+03  0.17229436770E+03 0.  0.
         24    2    5    5    0    0 -0.48268282301E+02 -0.52494115632E+02  0.13625793763E+03  0.17252845238E+03  0.78194514265E+02 0.  0.
          5    1    5    5  501    0 -0.89225234181E+02  0.71049724451E+02  0.11066112353E+03  0.15898798703E+03  0.47000000000E+01 0. -1.
        -11    1    6    6    0    0 -0.31645334720E+02 -0.19609577737E+02  0.12990921713E+03  0.13513832707E+03  0.00000000000E+00 0.  1.
         12    1    6    6    0    0 -0.16622947580E+02 -0.32884537895E+02  0.63487205060E+01  0.37390125313E+02  0.00000000000E+00 0. -1.
         -5    1    3    3    0  503  0.65255019201E+02 -0.73389248631E+02 -0.98041135352E+02  0.13884651082E+03  0.47000000000E+01 0.  1.
         11    1    4    4    0    0  0.58808296725E+02  0.55294027633E+01 -0.44862654614E+02  0.74173093758E+02  0.00000000000E+00 0. -1.
        -12    1    4    4    0    0  0.13430200555E+02  0.49304237050E+02 -0.11914505668E+03  0.12964113008E+03  0.00000000000E+00 0.  1.
</event>
<event>
12    1  0.8747122E-002  0.2222333E+03  0.7818608E-02  0.1132289E+00
         21   -1    0    0  503  502  0.00000000000E+00  0.00000000000E+00  0.16754558819E+03  0.16754558819E+03  0.00000000000E+00 0. -1.
         21   -1    0    0  501  503 -0.00000000000E+00 -0.00000000000E+00 -0.30934372852E+03  0.30934372852E+03  0.00000000000E+00 0. -1.
          6    2    1    2  501    0 -0.11129309893E+03  0.86084699125E+02 -0.12336128067E+03  0.25389258254E+03  0.17160043300E+03 0.  0.
         24    2    3    3    0    0 -0.56482874925E+01  0.27379322545E+02 -0.10083581531E+03  0.13086155388E+03  0.78583421788E+02 0.  0.
         -6    2    1    2    0  502  0.11129309893E+03 -0.86084699125E+02 -0.18436859665E+02  0.22299673417E+03  0.17202004639E+03 0.  0.
        -24    2    5    5    0    0  0.30473448880E+02  0.11875586385E+02 -0.39068087221E+02  0.94249808292E+02  0.79290921834E+02 0.  0.
          5    1    3    3  501    0 -0.10564481144E+03  0.58705376581E+02 -0.22525465362E+02  0.12303102866E+03  0.47000000000E+01 0. -1.
        -11    1    4    4    0    0  0.23918624385E+02  0.40425928997E+02 -0.78829652767E+02  0.91763121585E+02  0.00000000000E+00 0.  1.
         12    1    4    4    0    0 -0.29566911878E+02 -0.13046606453E+02 -0.22006162539E+02  0.39098432291E+02  0.00000000000E+00 0. -1.
         -5    1    5    5    0  502  0.80819650052E+02 -0.97960285510E+02  0.20631227556E+02  0.12874692587E+03  0.47000000000E+01 0.  1.
         13    1    6    6    0    0  0.98589253703E+01 -0.94069293180E+01  0.22282574872E+02  0.26118994459E+02  0.00000000000E+00 0. -1.
        -14    1    6    6    0    0  0.20614523510E+02  0.21282515703E+02 -0.61350662093E+02  0.68130813832E+02  0.00000000000E+00 0.  1.
</event>
<event>
12    1  0.8747122E-002  0.1925233E+03  0.7818608E-02  0.1156243E+00
         21   -1    0    0  501  502  0.00000000000E+00  0.00000000000E+00  0.68757988947E+03  0.68757988947E+03  0.00000000000E+00 0. -1.
         21   -1    0    0  502  503 -0.00000000000E+00 -0.00000000000E+00 -0.54060963410E+02  0.54060963410E+02  0.00000000000E+00 0. -1.
         -6    2    1    2    0  503 -0.85409725085E+02 -0.11347809024E+02  0.29395096694E+03  0.35129278496E+03  0.17197632364E+03 0.  0.
        -24    2    3    3    0    0  0.18771535315E+02  0.89233049311E+01  0.96312935448E+02  0.12691022197E+03  0.79987667788E+02 0.  0.
          6    2    1    2  501    0  0.85409725085E+02  0.11347809024E+02  0.33956795911E+03  0.39034806791E+03  0.17216742247E+03 0.  0.
         24    2    5    5    0    0  0.57676984558E+02 -0.58609017652E+02  0.13722770986E+03  0.17441583557E+03  0.69482284416E+02 0.  0.
          5    1    5    5  501    0  0.27732740527E+02  0.69956826677E+02  0.20234024925E+03  0.21593223234E+03  0.47000000000E+01 0. -1.
        -13    1    6    6    0    0 -0.16075705933E+02 -0.12704415523E+02  0.31480253720E+02  0.37561108467E+02  0.00000000000E+00 0.  1.
         14    1    6    6    0    0  0.73752690491E+02 -0.45904602129E+02  0.10574745614E+03  0.13685472711E+03  0.00000000000E+00 0. -1.
         -5    1    3    3    0  503 -0.10418126040E+03 -0.20271113955E+02  0.19763803150E+03  0.22438256299E+03  0.47000000000E+01 0.  1.
         13    1    4    4    0    0 -0.25988833698E+02 -0.14059602418E+02  0.20666581429E+02  0.36058279009E+02  0.00000000000E+00 0. -1.
        -14    1    4    4    0    0  0.44760369013E+02  0.22982907349E+02  0.75646354018E+02  0.90851942966E+02  0.00000000000E+00 0.  1.
</event>
<event>
12    1  0.8747122E-002  0.2154199E+03  0.7818608E-02  0.1138267E+00
         21   -1    0    0  501  502  0.00000000000E+00  0.00000000000E+00  0.18717576467E+02  0.18717576467E+02  0.00000000000E+00 0. -1.
         21   -1    0    0  502  503 -0.00000000000E+00 -0.00000000000E+00 -0.24250480154E+04  0.24250480154E+04  0.00000000000E+00 0.  1.
         -6    2    1    2    0  503 -0.10059147089E+03  0.82188357284E+02 -0.12285046015E+04  0.12472486834E+04  0.17184921368E+03 0.  0.
        -24    2    3    3    0    0 -0.58539195884E+02  0.23383069566E+02 -0.32429415480E+03  0.34014059854E+03  0.80964946361E+02 0.  0.
          6    2    1    2  501    0  0.10059147089E+03 -0.82188357284E+02 -0.11778258374E+04  0.11965169085E+04  0.16584763742E+03 0.  0.
         24    2    5    5    0    0  0.10680637435E+03 -0.78602309125E+01 -0.84349101366E+03  0.85393091958E+03  0.79066683613E+02 0.  0.
          5    1    5    5  501    0 -0.62149034657E+01 -0.74328126372E+02 -0.33433482376E+03  0.34258598887E+03  0.47000000000E+01 0. -1.
        -11    1    6    6    0    0  0.12330096323E+02 -0.31953235368E+01 -0.41184882294E+03  0.41204574300E+03  0.00000000000E+00 0.  1.
         12    1    6    6    0    0  0.94476278030E+02 -0.46649073757E+01 -0.43164219072E+03  0.44188517658E+03  0.00000000000E+00 0. -1.
         -5    1    3    3    0  503 -0.42052275003E+02  0.58805287718E+02 -0.90421044674E+03  0.90710808490E+03  0.47000000000E+01 0.  1.
         11    1    4    4    0    0 -0.59195354638E+02  0.15492847018E+02 -0.32628806197E+03  0.33197592941E+03  0.00000000000E+00 0. -1.
        -12    1    4    4    0    0  0.65615875410E+00  0.78902225484E+01  0.19939071747E+01  0.81646691295E+01  0.00000000000E+00 0.  1.
</event>
<event>
12    1  0.8747122E-002  0.1958870E+03  0.7818608E-02  0.1153511E+00
         21   -1    0    0  503  502  0.00000000000E+00  0.00000000000E+00  0.16568679913E+04  0.16568679913E+04  0.00000000000E+00 0.  1.
         21   -1    0    0  501  503 -0.00000000000E+00 -0.00000000000E+00 -0.33636148816E+02  0.33636148816E+02  0.00000000000E+00 0. -1.
          6    2    1    2  501    0 -0.26213898542E+02 -0.90046478960E+02  0.33844026002E+03  0.39104160739E+03  0.17197730158E+03 0.  0.
         24    2    3    3    0    0 -0.95493069778E+01 -0.85636724200E+02  0.35042769460E+03  0.36952549397E+03  0.79527880326E+02 0.  0.
         -6    2    1    2    0  502  0.26213898542E+02  0.90046478960E+02  0.12847915824E+04  0.12994625327E+04  0.17063975718E+03 0.  0.
        -24    2    5    5    0    0  0.12229481611E+01 -0.17823131148E+02  0.43313959498E+03  0.44062983762E+03  0.78902379301E+02 0.  0.
          5    1    3    3  501    0 -0.16664591564E+02 -0.44097547602E+01 -0.11987434585E+02  0.21516113426E+02  0.47000000000E+01 0. -1.
        -11    1    4    4    0    0  0.14119665149E+01  0.58110502921E+01  0.13628586439E+03  0.13641700329E+03  0.00000000000E+00 0.  1.
         12    1    4    4    0    0 -0.10961273493E+02 -0.91447774492E+02  0.21414183022E+03  0.23310849068E+03  0.00000000000E+00 0. -1.
         -5    1    5    5    0  502  0.24990950381E+02  0.10786961011E+03  0.85165198746E+03  0.85883269508E+03  0.47000000000E+01 0.  1.
         13    1    6    6    0    0  0.33050925843E+02 -0.13267169629E+02  0.10411061098E+03  0.11003363490E+03  0.00000000000E+00 0. -1.
        -14    1    6    6    0    0 -0.31827977682E+02 -0.45559615188E+01  0.32902898399E+03  0.33059620272E+03  0.00000000000E+00 0.  1.
</event>
<event>
12    1  0.8747122E-002  0.2174289E+03  0.7818608E-02  0.1136073E+00
         21   -1    0    0  501  502  0.00000000000E+00  0.00000000000E+00  0.73495293695E+02  0.73495293695E+02  0.00000000000E+00 0.  1.
         21   -1    0    0  502  503 -0.00000000000E+00 -0.00000000000E+00 -0.80890557644E+03  0.80890557644E+03  0.00000000000E+00 0.  1.
         -6    2    1    2    0  503  0.11328837658E+03 -0.64638741111E+02 -0.57068954506E+03  0.61070605124E+03  0.17396235528E+03 0.  0.
        -24    2    3    3    0    0  0.12517444213E+03 -0.79744902388E+01 -0.48395650626E+03  0.50631818843E+03  0.80074805822E+02 0.  0.
          6    2    1    2  501    0 -0.11328837658E+03  0.64638741111E+02 -0.16472073768E+03  0.27169481890E+03  0.17225774314E+03 0.  0.
         24    2    5    5    0    0 -0.18368246515E+02  0.28161671393E+02 -0.11901378808E+02  0.88074955721E+02  0.80530011747E+02 0.  0.
          5    1    5    5  501    0 -0.94920130064E+02  0.36477069718E+02 -0.15281935887E+03  0.18361986318E+03  0.47000000000E+01 0. -1.
        -11    1    6    6    0    0 -0.39734450117E+02  0.17939199176E+02 -0.34302908757E+02  0.55473695950E+02  0.00000000000E+00 0.  1.
         12    1    6    6    0    0  0.21366203602E+02  0.10222472217E+02  0.22401529949E+02  0.32601259771E+02  0.00000000000E+00 0. -1.
         -5    1    3    3    0  503 -0.11886065553E+02 -0.56664250872E+02 -0.86733038806E+02  0.10438786281E+03  0.47000000000E+01 0.  1.
         11    1    4    4    0    0  0.31568942238E+01  0.21789980863E+02 -0.97907697214E+02  0.10035280973E+03  0.00000000000E+00 0. -1.
        -12    1    4    4    0    0  0.12201754791E+03 -0.29764471102E+02 -0.38604880904E+03  0.40596537870E+03  0.00000000000E+00 0.  1.
</event>
<event>
12    1  0.8747122E-002  0.2562798E+03  0.7818608E-02  0.1109412E+00
         21   -1    0    0  501  502  0.00000000000E+00  0.00000000000E+00  0.80017286380E+03  0.80017286380E+03  0.00000000000E+00 0.  1.
         21   -1    0    0  502  503 -0.00000000000E+00 -0.00000000000E+00 -0.98451391243E+02  0.98451391243E+02  0.00000000000E+00 0. -1.
         -6    2    1    2    0  503 -0.17740339511E+02  0.18913915659E+03  0.53417889066E+03  0.59243828978E+03  0.17189444367E+03 0.  0.
        -24    2    3    3    0    0 -0.50292830843E+02  0.19095705709E+03  0.38857725824E+03  0.44315702900E+03  0.80011875680E+02 0.  0.
          6    2    1    2  501    0  0.17740339511E+02 -0.18913915659E+03  0.16754258190E+03  0.30618596527E+03  0.17202031385E+03 0.  0.
         24    2    5    5    0    0 -0.43695895712E+00 -0.16882858331E+03  0.61611999503E+02  0.19670394915E+03  0.79957011282E+02 0.  0.
          5    1    5    5  501    0  0.18177298468E+02 -0.20310573274E+02  0.10593058240E+03  0.10948201612E+03  0.47000000000E+01 0. -1.
        -13    1    6    6    0    0 -0.33357826846E+02 -0.10269360238E+03  0.58403368604E+02  0.12275860070E+03  0.00000000000E+00 0.  1.
         14    1    6    6    0    0  0.32920867889E+02 -0.66134980931E+02  0.32086308989E+01  0.73945348451E+02  0.00000000000E+00 0. -1.
         -5    1    3    3    0  503  0.32552491332E+02 -0.18179004997E+01  0.14560163242E+03  0.14928126077E+03  0.47000000000E+01 0.  1.
         11    1    4    4    0    0 -0.23835914514E+02  0.73540563657E+02  0.76873072289E+02  0.10902217466E+03  0.00000000000E+00 0. -1.
        -12    1    4    4    0    0 -0.26456916329E+02  0.11741649343E+03  0.31170418595E+03  0.33413485435E+03  0.00000000000E+00 0.  1.
</event>
<event>
12    1  0.8747122E-002  0.1740935E+03  0.7818608E-02  0.1174042E+00
         21   -1    0    0  503  502  0.00000000000E+00  0.00000000000E+00  0.12948020615E+03  0.12948020615E+03  0.00000000000E+00 0. -1.
         21   -1    0    0  501  503 -0.00000000000E+00 -0.00000000000E+00 -0.23231955035E+03  0.23231955035E+03  0.00000000000E+00 0. -1.
          6    2    1    2  501    0 -0.44345513566E+01  0.13260973294E+02 -0.58100599306E+02  0.18204960328E+03  0.17196179738E+03 0.  0.
         24    2    3    3    0    0  0.33944975520E+02  0.10314696388E+02 -0.95320113587E+02  0.12829971143E+03  0.78206378094E+02 0.  0.
         -6    2    1    2    0  502  0.44345513566E+01 -0.13260973294E+02 -0.44738744900E+02  0.17975015322E+03  0.17353110277E+03 0.  0.
        -24    2    5    5    0    0  0.81626972701E+01  0.28384009736E+01 -0.97557182874E+02  0.12420768015E+03  0.76390167772E+02 0.  0.
          5    1    3    3  501    0 -0.38379526877E+02  0.29462769063E+01  0.37219514282E+02  0.53749891853E+02  0.47000000000E+01 0. -1.
        -13    1    4    4    0    0  0.36169292796E+02 -0.58050337962E+01 -0.55302753529E+01  0.37047268513E+02  0.00000000000E+00 0.  1.
         14    1    4    4    0    0 -0.22243172764E+01  0.16119730184E+02 -0.89789838234E+02  0.91252442919E+02  0.00000000000E+00 0. -1.
         -5    1    5    5    0  502 -0.37281459135E+01 -0.16099374268E+02  0.52818437974E+02  0.55542473062E+02  0.47000000000E+01 0.  1.
         11    1    6    6    0    0  0.26482891145E+02 -0.25788684285E+02 -0.26631528198E+02  0.45559170917E+02  0.00000000000E+00 0. -1.
        -12    1    6    6    0    0 -0.18320193875E+02  0.28627085258E+02 -0.70925654676E+02  0.78648509237E+02  0.00000000000E+00 0.  1.
</event>
<event>
12    1  0.8747122E-002  0.1997867E+03  0.7818608E-02  0.1150309E+00
         21   -1    0    0  503  502  0.00000000000E+00  0.00000000000E+00  0.56175865973E+03  0.56175865973E+03  0.00000000000E+00 0.  1.
         21   -1    0    0  501  503 -0.00000000000E+00 -0.00000000000E+00 -0.70696434651E+02  0.70696434651E+02  0.00000000000E+00 0.  1.
          6    2    1    2  501    0 -0.92566011003E+02  0.36506197287E+02  0.26484766485E+03  0.33064764590E+03  0.17112104291E+03 0.  0.
         24    2    3    3    0    0 -0.45493355579E+02 -0.42335710106E+02  0.16900060112E+03  0.19782960919E+03  0.81935299720E+02 0.  0.
         -6    2    1    2    0  502  0.92566011003E+02 -0.36506197287E+02  0.22621456023E+03  0.30180744848E+03  0.17324416258E+03 0.  0.
        -24    2    5    5    0    0  0.12622272594E+02 -0.17262859595E+02  0.19738430416E+03  0.21454588179E+03  0.81314474588E+02 0.  0.
          5    1    3    3  501    0 -0.47072655424E+02  0.78841907393E+02  0.95847063728E+02  0.13281803671E+03  0.47000000000E+01 0. -1.
        -13    1    4    4    0    0 -0.30016260638E+02  0.21568598042E+02  0.65511924986E+02  0.75219629350E+02  0.00000000000E+00 0.  1.
         14    1    4    4    0    0 -0.15477094941E+02 -0.63904308148E+02  0.10348867613E+03  0.12260997984E+03  0.00000000000E+00 0. -1.
         -5    1    5    5    0  502  0.79943738408E+02 -0.19243337691E+02  0.28830256063E+02  0.87261566688E+02  0.47000000000E+01 0.  1.
         11    1    6    6    0    0 -0.18780318048E+02  0.24329817442E+02  0.91632766008E+02  0.96649905169E+02  0.00000000000E+00 0. -1.
        -12    1    6    6    0    0  0.31402590642E+02 -0.41592677037E+02  0.10575153815E+03  0.11789597662E+03  0.00000000000E+00 0.  1.
</event>
<event>
12    1  0.8747122E-002  0.3131572E+03  0.7818608E-02  0.1079195E+00
         21   -1    0    0  503  502  0.00000000000E+00  0.00000000000E+00  0.75593643599E+03  0.75593643599E+03  0.00000000000E+00 0.  1.
         21   -1    0    0  501  503 -0.00000000000E+00 -0.00000000000E+00 -0.16400456382E+03  0.16400456382E+03  0.00000000000E+00 0. -1.
          6    2    1    2  501    0  0.16518898656E+03 -0.19778876726E+03  0.83065722452E+02  0.32398663466E+03  0.17793152463E+03 0.  0.
         24    2    3    3    0    0  0.15214733153E+03 -0.14369141131E+03  0.12217100194E+03  0.25581096767E+03  0.81960144520E+02 0.  0.
         -6    2    1    2    0  502 -0.16518898656E+03  0.19778876726E+03  0.50886614971E+03  0.59595436515E+03  0.17265297356E+03 0.  0.
        -24    2    5    5    0    0 -0.14421332667E+03  0.22560580193E+03  0.45543096610E+03  0.53199207490E+03  0.62471925032E+02 0.  0.
          5    1    3    3  501    0  0.13041655032E+02 -0.54097355944E+02 -0.39105279484E+02  0.68175666991E+02  0.47000000000E+01 0. -1.
        -13    1    4    4    0    0  0.95219728597E+02 -0.73370640465E+02  0.11281154807E+03  0.16485294348E+03  0.00000000000E+00 0.  1.
         14    1    4    4    0    0  0.56927602931E+02 -0.70320770848E+02  0.93594538705E+01  0.90958024192E+02  0.00000000000E+00 0. -1.
         -5    1    5    5    0  502 -0.20975659885E+02 -0.27817034676E+02  0.53435183618E+02  0.63962290250E+02  0.47000000000E+01 0.  1.
         13    1    6    6    0    0 -0.63866050575E+02  0.90154308480E+02  0.13110218489E+03  0.17144811063E+03  0.00000000000E+00 0. -1.
        -14    1    6    6    0    0 -0.80347276100E+02  0.13545149345E+03  0.32432878120E+03  0.36054396427E+03  0.00000000000E+00 0.  1.
</event>
<event>
12    1  0.8747122E-002  0.2190425E+03  0.7818608E-02  0.1134673E+00
         21   -1    0    0  501  502  0.00000000000E+00  0.00000000000E+00  0.15963293995E+03  0.15963293995E+03  0.00000000000E+00 0.  1.
         21   -1    0    0  502  503 -0.00000000000E+00 -0.00000000000E+00 -0.30377831017E+03  0.30377831017E+03  0.00000000000E+00 0.  1.
         -6    2    1    2    0  503 -0.11488906436E+03 -0.72368245866E+02 -0.97897115687E+02  0.23992383938E+03  0.17188060776E+03 0.  0.
        -24    2    3    3    0    0 -0.31428119141E+02 -0.82049815949E+02 -0.10017004740E+03  0.15574119037E+03  0.80631141701E+02 0.  0.
          6    2    1    2  501    0  0.11488906436E+03  0.72368245866E+02 -0.46248254534E+02  0.22348741074E+03  0.17137987511E+03 0.  0.
         24    2    5    5    0    0  0.11384420610E+03  0.33049555728E+02  0.22184247580E+02  0.14441688229E+03  0.79443808149E+02 0.  0.
          5    1    5    5  501    0  0.10448582533E+01  0.39318690138E+02 -0.68432502114E+02  0.79070528445E+02  0.47000000000E+01 0. -1.
        -11    1    6    6    0    0  0.11001969535E+03  0.43424589899E+02  0.38780194957E+02  0.12447462350E+03  0.00000000000E+00 0.  1.
         12    1    6    6    0    0  0.38245107493E+01 -0.10375034171E+02 -0.16595947377E+02  0.19942258796E+02  0.00000000000E+00 0. -1.
         -5    1    3    3    0  503 -0.83460945214E+02  0.96815700833E+01  0.22729317117E+01  0.84182649007E+02  0.47000000000E+01 0.  1.
         13    1    4    4    0    0 -0.19068874445E+02  0.13007538681E+02 -0.15136096255E+02  0.27602888345E+02  0.00000000000E+00 0. -1.
        -14    1    4    4    0    0 -0.12359244695E+02 -0.95057354630E+02 -0.85033951144E+02  0.12813830202E+03  0.00000000000E+00 0.  1.
</event>
<event>
12    1  0.8747122E-002  0.1817974E+03  0.7818608E-02  0.1166719E+00
         21   -1    0    0  503  502  0.00000000000E+00  0.00000000000E+00  0.30486514838E+03  0.30486514838E+03  0.00000000000E+00 0.  1.
         21   -1    0    0  501  503 -0.00000000000E+00 -0.00000000000E+00 -0.37930203568E+03  0.37930203568E+03  0.00000000000E+00 0.  1.
          6    2    1    2  501    0  0.24870382245E+02  0.50279404486E+02 -0.32723430317E+03  0.37434284999E+03  0.17292693756E+03 0.  0.
         24    2    3    3    0    0 -0.45044829012E+02  0.25529926249E+02 -0.11743394369E+03  0.15176936936E+03  0.81008620474E+02 0.  0.
         -6    2    1    2    0  502 -0.24870382245E+02 -0.50279404486E+02  0.25279741587E+03  0.30982433408E+03  0.17011181643E+03 0.  0.
        -24    2    5    5    0    0 -0.53075928264E+02  0.24091220914E+02  0.15265366077E+03  0.18185010060E+03  0.79805249551E+02 0.  0.
          5    1    3    3  501    0  0.69915211257E+02  0.24749478237E+02 -0.20980035948E+03  0.22257348062E+03  0.47000000000E+01 0. -1.
        -13    1    4    4    0    0  0.98907254338E+01  0.22053824456E+02 -0.83903735538E+02  0.87315717141E+02  0.00000000000E+00 0.  1.
         14    1    4    4    0    0 -0.54935554446E+02  0.34761017933E+01 -0.33530208154E+02  0.64453652222E+02  0.00000000000E+00 0. -1.
         -5    1    5    5    0  502  0.28205546019E+02 -0.74370625401E+02  0.10014375510E+03  0.12797423348E+03  0.47000000000E+01 0.  1.
         11    1    6    6    0    0 -0.56932395369E+02  0.60013091237E+01  0.45542046156E+02  0.73153204453E+02  0.00000000000E+00 0. -1.
        -12    1    6    6    0    0  0.38564671051E+01  0.18089911790E+02  0.10711161461E+03  0.10869689614E+03  0.00000000000E+00 0.  1.
</event>
<event>
12    1  0.8747122E-002  0.2282907E+03  0.7818608E-02  0.1127984E+00
         21   -1    0    0  501  502  0.00000000000E+00  0.00000000000E+00  0.31294257982E+03  0.31294257982E+03  0.00000000000E+00 0.  1.
         21   -1    0    0  502  503 -0.00000000000E+00 -0.00000000000E+00 -0.20190725468E+03  0.20190725468E+03  0.00000000000E+00 0. -1.
         -6    2    1    2    0  503 -0.48415349758E+02 -0.14134609336E+03 -0.52991849166E+02  0.23436039709E+03  0.17260908274E+03 0.  0.
        -24    2    3    3    0    0 -0.80729816289E+02 -0.64484368001E+02  0.72129196327E+01  0.13141063381E+03  0.80877632974E+02 0.  0.
          6    2    1    2  501    0  0.48415349758E+02  0.14134609336E+03  0.16402717431E+03  0.28048943741E+03  0.17160025171E+03 0.  0.
         24    2    5    5    0    0  0.31386449567E+02  0.15732202182E+03  0.18000624445E+03  0.25180783329E+03  0.72592073257E+02 0.  0.
          5    1    5    5  501    0  0.17028900191E+02 -0.15975928467E+02 -0.15979070142E+02  0.28681604117E+02  0.47000000000E+01 0. -1.
        -13    1    6    6    0    0  0.24259780649E+02  0.41497662804E+02  0.99711850231E+02  0.11069347791E+03  0.00000000000E+00 0.  1.
         14    1    6    6    0    0  0.71266689183E+01  0.11582435902E+03  0.80294394218E+02  0.14111435538E+03  0.00000000000E+00 0. -1.
         -5    1    3    3    0  503  0.32314466531E+02 -0.76861725355E+02 -0.60204768799E+02  0.10294976327E+03  0.47000000000E+01 0.  1.
         11    1    4    4    0    0 -0.46581017730E+02 -0.47180457424E+02 -0.34544553804E+02  0.74760370337E+02  0.00000000000E+00 0. -1.
        -12    1    4    4    0    0 -0.34148798559E+02 -0.17303910577E+02  0.41757473436E+02  0.56650263477E+02  0.00000000000E+00 0.  1.
</event>
<event>
12    1  0.8747122E-002  0.2880222E+03  0.7818608E-02  0.1091409E+00
         21   -1    0    0  501  502  0.00000000000E+00  0.00000000000E+00  0.11472864281E+04  0.11472864281E+04  0.00000000000E+00 0. -1.
         21   -1    0    0  502  503 -0.00000000000E+00 -0.00000000000E+00 -0.15625621877E+03  0.15625621877E+03  0.00000000000E+00 0.  1.
         -6    2    1    2    0  503  0.21457143004E+03  0.85582628178E+02  0.17591662046E+02  0.28838777186E+03  0.17173454967E+03 0.  0.
        -24    2    3    3    0    0  0.83601314238E+02 -0.20751532390E+02 -0.10856354946E+01  0.11859066830E+03  0.81503142047E+02 0.  0.
          6    2    1    2  501    0 -0.21457143004E+03 -0.85582628178E+02  0.97343854724E+03  0.10151548750E+04  0.17202188840E+03 0.  0.
         24    2    5    5    0    0 -0.98072950417E+02 -0.29920825723E+02  0.70852211937E+03  0.72041272365E+03  0.80481919419E+02 0.  0.
          5    1    5    5  501    0 -0.11649847962E+03 -0.55661802455E+02  0.26491642787E+03  0.29474215131E+03  0.47000000000E+01 0. -1.
        -13    1    6    6    0    0  0.18509974348E+01 -0.29529681213E+02  0.13001934323E+03  0.13334338333E+03  0.00000000000E+00 0.  1.
         14    1    6    6    0    0 -0.99923947852E+02 -0.39114450975E+00  0.57850277614E+03  0.58706934033E+03  0.00000000000E+00 0. -1.
         -5    1    3    3    0  503  0.13097011580E+03  0.10633416057E+03  0.18677297540E+02  0.16979710357E+03  0.47000000000E+01 0.  1.
         13    1    4    4    0    0 -0.94291054763E+01  0.22118298914E+01 -0.18796593777E+02  0.21145026819E+02  0.00000000000E+00 0. -1.
        -14    1    4    4    0    0  0.93030419714E+02 -0.22963362281E+02  0.17710958283E+02  0.97445641476E+02  0.00000000000E+00 0.  1.
</event>
<event>
12    1  0.8747122E-002  0.2105552E+03  0.7818608E-02  0.1141140E+00
         21   -1    0    0  503  502  0.00000000000E+00  0.00000000000E+00  0.26293689596E+03  0.26293689596E+03  0.00000000000E+00 0.  1.
         21   -1    0    0  501  503 -0.00000000000E+00 -0.00000000000E+00 -0.47722769660E+03  0.47722769660E+03  0.00000000000E+00 0.  1.
          6    2    1    2  501    0 -0.87506102144E+02  0.85339929100E+02 -0.40477382360E+03  0.45623274558E+03  0.17136583223E+03 0.  0.
         24    2    3    3    0    0 -0.61667580871E+02 -0.18168505779E+02 -0.19877808432E+03  0.22420266160E+03  0.81370274221E+02 0.  0.
         -6    2    1    2    0  502  0.87506102144E+02 -0.85339929100E+02  0.19048302296E+03  0.28393184697E+03  0.17144471493E+03 0.  0.
        -24    2    5    5    0    0  0.96442281503E+02 -0.83797328506E+02  0.75276807968E+02  0.16827374354E+03  0.79538349362E+02 0.  0.
          5    1    3    3  501    0 -0.25838521274E+02  0.10350843488E+03 -0.20599573928E+03  0.23203008398E+03  0.47000000000E+01 0. -1.
        -13    1    4    4    0    0 -0.22905587219E+02 -0.15588539007E+02 -0.17800737171E+03  0.18015075037E+03  0.00000000000E+00 0.  1.
         14    1    4    4    0    0 -0.38761993652E+02 -0.25799667723E+01 -0.20770712610E+02  0.44051911227E+02  0.00000000000E+00 0. -1.
         -5    1    5    5    0  502 -0.89361793592E+01 -0.15426005934E+01  0.11520621499E+03  0.11565810344E+03  0.47000000000E+01 0.  1.
         11    1    6    6    0    0  0.83655384004E+02 -0.86595611269E+02  0.88682111150E+02  0.14953775444E+03  0.00000000000E+00 0. -1.
        -12    1    6    6    0    0  0.12786897500E+02  0.27982827629E+01 -0.13405303183E+02  0.18735989099E+02  0.00000000000E+00 0.  1.
</event>
<event>
12    1  0.8747122E-002  0.1938219E+03  0.7818608E-02  0.1155794E+00
         21   -1    0    0  503  502  0.00000000000E+00  0.00000000000E+00  0.27914883419E+03  0.27914883419E+03  0.00000000000E+00 0. -1.
         21   -1    0    0  501  503 -0.00000000000E+00 -0.00000000000E+00 -0.27031477749E+03  0.27031477749E+03  0.00000000000E+00 0. -1.
          6    2    1    2  501    0  0.66978788357E+02  0.40665375142E+02 -0.19191647253E+03  0.27041574821E+03  0.17364594331E+03 0.  0.
         24    2    3    3    0    0 -0.11689104413E+02 -0.30008192956E+02 -0.80645855722E+02  0.11683635264E+03  0.78165545132E+02 0.  0.
         -6    2    1    2    0  502 -0.66978788357E+02 -0.40665375142E+02  0.20075052923E+03  0.27904786348E+03  0.17727691418E+03 0.  0.
        -24    2    5    5    0    0 -0.71446155519E+02 -0.91728161820E+02  0.16209987792E+03  0.21467917234E+03  0.79323185784E+02 0.  0.
          5    1    3    3  501    0  0.78667892770E+02  0.70673568098E+02 -0.11127061680E+03  0.15357939557E+03  0.47000000000E+01 0. -1.
        -11    1    4    4    0    0  0.19958334841E+02 -0.67402767321E+01  0.58296893256E+01  0.21857532745E+02  0.00000000000E+00 0.  1.
         12    1    4    4    0    0 -0.31647439254E+02 -0.23267916224E+02 -0.86475545048E+02  0.94978819892E+02  0.00000000000E+00 0. -1.
         -5    1    5    5    0  502  0.44673671615E+01  0.51062786679E+02  0.38650651306E+02  0.64368691140E+02  0.47000000000E+01 0.  1.
         11    1    6    6    0    0 -0.81084659837E+02 -0.60073989498E+02  0.14700672706E+03  0.17831035886E+03  0.00000000000E+00 0. -1.
        -12    1    6    6    0    0  0.96385043180E+01 -0.31654172323E+02  0.15093150865E+02  0.36368813480E+02  0.00000000000E+00 0.  1.
</event>
<event>
12    1  0.8747122E-002  0.2527710E+03  0.7818608E-02  0.1112807E+00
         21   -1    0    0  503  502  0.00000000000E+00  0.00000000000E+00  0.28063907394E+02  0.28063907394E+02  0.00000000000E+00 0.  1.
         21   -1    0    0  501  503 -0.00000000000E+00 -0.00000000000E+00 -0.22095944433E+04  0.22095944433E+04  0.00000000000E+00 0. -1.
          6    2    1    2  501    0  0.17082718435E+03 -0.30729356793E+02 -0.10673257893E+04  0.10968489094E+04  0.18375790994E+03 0.  0.
         24    2    3    3    0    0  0.72746202003E+02  0.40066584866E+02 -0.71454518375E+03  0.72387680583E+03  0.80780376789E+02 0.  0.
         -6    2    1    2    0  502 -0.17082718435E+03  0.30729356793E+02 -0.11142047467E+04  0.11408094413E+04  0.17282286740E+03 0.  0.
        -24    2    5    5    0    0 -0.16995812092E+03  0.38616744831E+02 -0.11153883790E+04  0.11315112077E+04  0.76481117081E+02 0.  0.
          5    1    3    3  501    0  0.98080982350E+02 -0.70795941659E+02 -0.35278060551E+03  0.37297210362E+03  0.47000000000E+01 0. -1.
        -13    1    4    4    0    0  0.54475096957E+02  0.61944532431E+02 -0.42496251273E+03  0.43289467369E+03  0.00000000000E+00 0.  1.
         14    1    4    4    0    0  0.18271105046E+02 -0.21877947565E+02 -0.28958267102E+03  0.29098213214E+03  0.00000000000E+00 0. -1.
         -5    1    5    5    0  502 -0.86906343367E+00 -0.78873880380E+01  0.11836323702E+01  0.92982335366E+01  0.47000000000E+01 0.  1.
         13    1    6    6    0    0 -0.10847107577E+03  0.58400694804E+02 -0.63933538816E+03  0.65109627090E+03  0.00000000000E+00 0. -1.
        -14    1    6    6    0    0 -0.61487045150E+02 -0.19783949973E+02 -0.47605299087E+03  0.48041493681E+03  0.00000000000E+00 0.  1.
</event>
<event>
12    1  0.8747122E-002  0.2364831E+03  0.7818608E-02  0.1122360E+00
         21   -1    0    0  501  502  0.00000000000E+00  0.00000000000E+00  0.65701743330E+02  0.65701743330E+02  0.00000000000E+00 0.  1.
         21   -1    0    0  502  503 -0.00000000000E+00 -0.00000000000E+00 -0.84948636313E+03  0.84948636313E+03  0.00000000000E+00 0. -1.
         -6    2    1    2    0  503  0.84419524215E+02 -0.13800205352E+03 -0.41803054705E+03  0.48028513565E+03  0.17249072558E+03 0.  0.
        -24    2    3    3    0    0  0.18604877369E+01 -0.11011294267E+03 -0.33199967613E+03  0.35774045906E+03  0.75007529908E+02 0.  0.
          6    2    1    2  501    0 -0.84419524215E+02  0.13800205352E+03 -0.36575407275E+03  0.43490297081E+03  0.17086055555E+03 0.  0.
         24    2    5    5    0    0  0.28475666013E+01  0.79405713190E+02 -0.10350040386E+03  0.15232881580E+03  0.78602535576E+02 0.  0.
          5    1    5    5  501    0 -0.87267090816E+02  0.58596340327E+02 -0.26225366888E+03  0.28257415501E+03  0.47000000000E+01 0. -1.
        -11    1    6    6    0    0 -0.23387293050E+02  0.78924816950E+02 -0.92646413498E+02  0.12393324873E+03  0.00000000000E+00 0.  1.
         12    1    6    6    0    0  0.26234859651E+02  0.48089624003E+00 -0.10853990366E+02  0.28395567065E+02  0.00000000000E+00 0. -1.
         -5    1    3    3    0  503  0.82559036478E+02 -0.27889110851E+02 -0.86030870929E+02  0.12254467659E+03  0.47000000000E+01 0.  1.
         11    1    4    4    0    0 -0.34791471388E+02 -0.43030194962E+02 -0.11385423417E+03  0.12658922070E+03  0.00000000000E+00 0. -1.
        -12    1    4    4    0    0  0.36651959125E+02 -0.67082747705E+02 -0.21814544196E+03  0.23115123836E+03  0.00000000000E+00 0.  1.
</event>
<event>
12    1  0.8747122E-002  0.1736948E+03  0.7818608E-02  0.1174366E+00
         21   -1    0    0  501  502  0.00000000000E+00  0.00000000000E+00  0.94888763714E+03  0.94888763714E+03  0.00000000000E+00 0.  1.
         21   -1    0    0  502  503 -0.00000000000E+00 -0.00000000000E+00 -0.33981848193E+02  0.33981848193E+02  0.00000000000E+00 0.  1.
         -6    2    1    2    0  503  0.24560635769E+02 -0.17966555150E+02  0.58692194892E+03  0.61173166959E+03  0.16974168469E+03 0.  0.
        -24    2    3    3    0    0  0.54401334707E+02 -0.39068471161E+02  0.54699463591E+03  0.55739900449E+03  0.83693893660E+02 0.  0.
          6    2    1    2  501    0 -0.24560635769E+02  0.17966555150E+02  0.32798384003E+03  0.37113781575E+03  0.17100835366E+03 0.  0.
         24    2    5    5    0    0  0.26939804217E+02  0.38591844952E+02  0.10170997263E+03  0.13811496072E+03  0.80720135613E+02 0.  0.
          5    1    5    5  501    0 -0.51500439986E+02 -0.20625289802E+02  0.22627386740E+03  0.23302285503E+03  0.47000000000E+01 0. -1.
        -11    1    6    6    0    0  0.45299766846E+02  0.52891641337E+02  0.69582643946E+02  0.98444598319E+02  0.00000000000E+00 0.  1.
         12    1    6    6    0    0 -0.18359962630E+02 -0.14299796385E+02  0.32127328683E+02  0.39670362397E+02  0.00000000000E+00 0. -1.
         -5    1    3    3    0  503 -0.29840698938E+02  0.21101916011E+02  0.39927313010E+02  0.54332665098E+02  0.47000000000E+01 0.  1.
         13    1    4    4    0    0  0.63865548323E+02 -0.26283982798E+02  0.23345487236E+03  0.24345601952E+03  0.00000000000E+00 0. -1.
        -14    1    4    4    0    0 -0.94642136159E+01 -0.12784488363E+02  0.31353976355E+03  0.31394298497E+03  0.00000000000E+00 0.  1.
</event>
<event>
12    1  0.8747122E-002  0.1794371E+03  0.7818608E-02  0.1168381E+00
         21   -1    0    0  501  502  0.00000000000E+00  0.00000000000E+00  0.38136297823E+02  0.38136297823E+02  0.00000000000E+00 0. -1.
         21   -1    0    0  502  503 -0.00000000000E+00 -0.00000000000E+00 -0.98074774845E+03  0.98074774845E+03  0.00000000000E+00 0. -1.
         -6    2    1    2    0  503  0.19814384792E+02 -0.45142383609E+02 -0.66161966664E+03  0.68548631706E+03  0.17239623820E+03 0.  0.
        -24    2    3    3    0    0  0.42316796050E+02  0.33294261181E+02 -0.39574573390E+03  0.40733221612E+03  0.80035175600E+02 0.  0.
          6    2    1    2  501    0 -0.19814384792E+02  0.45142383609E+02 -0.28099178399E+03  0.33339772922E+03  0.17253178993E+03 0.  0.
         24    2    5    5    0    0  0.53809158994E+02  0.17132444639E+02 -0.12992869693E+03  0.16296554578E+03  0.80544128112E+02 0.  0.
          5    1    5    5  501    0 -0.73623543786E+02  0.28009938970E+02 -0.15106308706E+03  0.17043218344E+03  0.47000000000E+01 0. -1.
        -13    1    6    6    0    0  0.77061074603E+01  0.43826872236E+02 -0.50289202435E+02  0.67150448277E+02  0.00000000000E+00 0.  1.
         14    1    6    6    0    0  0.46103051534E+02 -0.26694427597E+02 -0.79639494498E+02  0.95815097502E+02  0.00000000000E+00 0. -1.
         -5    1    3    3    0  503 -0.22502411258E+02 -0.78436644790E+02 -0.26587393274E+03  0.27815410094E+03  0.47000000000E+01 0.  1.
         11    1    4    4    0    0  0.36714450381E+02 -0.91086087927E+01 -0.30114816637E+03  0.30351463841E+03  0.00000000000E+00 0. -1.
        -12    1    4    4    0    0  0.56023456689E+01  0.42402869974E+02 -0.94597567531E+02  0.10381757771E+03  0.00000000000E+00 0.  1.
</event>
<event>
12    1  0.8747122E-002  0.2121624E+03  0.7818608E-02  0.1139916E+00
         21   -1    0    0  501  502  0.00000000000E+00  0.00000000000E+00  0.10944398084E+04  0.10944398084E+04  0.00000000000E+00 0. -1.
         21   -1    0    0  502  503 -0.00000000000E+00 -0.00000000000E+00 -0.61600114853E+02  0.61600114853E+02  0.00000000000E+00 0.  1.
         -6    2    1    2    0  503 -0.78849016746E+02  0.94042208985E+02  0.18257773852E+03  0.27970764161E+03  0.17274440559E+03 0.  0.
        -24    2    3    3    0    0 -0.13790887299E+02  0.10030768969E+03  0.61512917611E+02  0.14204647310E+03  0.78367980092E+02 0.  0.
          6    2    1    2  501    0  0.78849016746E+02 -0.94042208985E+02  0.85026195502E+03  0.87633228163E+03  0.17306580009E+03 0.  0.
         24    2    5    5    0    0  0.60308913395E+02 -0.61682368579E+02  0.81918903643E+03  0.82756230139E+03  0.79666841531E+02 0.  0.
          5    1    5    5  501    0  0.18540103351E+02 -0.32359840405E+02  0.31072918588E+02  0.48769980243E+02  0.47000000000E+01 0. -1.
        -13    1    6    6    0    0  0.29953597217E+02 -0.52599354682E+02  0.24028592797E+03  0.24779273048E+03  0.00000000000E+00 0.  1.
         14    1    6    6    0    0  0.30355316178E+02 -0.90830138974E+01  0.57890310846E+03  0.57976957090E+03  0.00000000000E+00 0. -1.
         -5    1    3    3    0  503 -0.65058129447E+02 -0.62654807028E+01  0.12106482090E+03  0.13766116851E+03  0.47000000000E+01 0.  1.
         13    1    4    4    0    0  0.62555998279E+01 -0.63943458059E+01  0.26503818944E+02  0.27972711812E+02  0.00000000000E+00 0. -1.
        -14    1    4    4    0    0 -0.20046487127E+02  0.10670203549E+03  0.35009098667E+02  0.11407376129E+03  0.00000000000E+00 0.  1.
</event>
<event>
12    1  0.8747122E-002  0.1742557E+03  0.7818608E-02  0.1173908E+00
         21   -1    0    0  503  502  0.00000000000E+00  0.00000000000E+00  0.16282071295E+03  0.16282071295E+03  0.00000000000E+00 0.  1.
         21   -1    0    0  501  503 -0.00000000000E+00 -0.00000000000E+00 -0.58298062870E+03  0.58298062870E+03  0.00000000000E+00 0.  1.
          6    2    1    2  501    0  0.10640646618E+02 -0.21364516702E+02 -0.51862237727E+03  0.54711446344E+03  0.17261344087E+03 0.  0.
         24    2    3    3    0    0 -0.16746698514E+02  0.22268900011E+02 -0.15164937268E+03  0.17651330610E+03  0.85924729718E+02 0.  0.
         -6    2    1    2    0  502 -0.10640646618E+02  0.21364516702E+02  0.98462461523E+02  0.19868687821E+03  0.17091504706E+03 0.  0.
        -24    2    5    5    0    0 -0.55499899098E+02 -0.30640628241E+02  0.67415686952E+02  0.12316946403E+03  0.81281948322E+02 0.  0.
          5    1    3    3  501    0  0.27387345132E+02 -0.43633416713E+02 -0.36697300459E+03  0.37060115734E+03  0.47000000000E+01 0. -1.
        -11    1    4    4    0    0  0.64484394328E+01 -0.19392965140E+02 -0.11383686620E+03  0.11565682675E+03  0.00000000000E+00 0.  1.
         12    1    4    4    0    0 -0.23195137947E+02  0.41661865151E+02 -0.37812506478E+02  0.60856479346E+02  0.00000000000E+00 0. -1.
         -5    1    5    5    0  502  0.44859252481E+02  0.52005144943E+02  0.31046774571E+02  0.75517414183E+02  0.47000000000E+01 0.  1.
         13    1    6    6    0    0  0.16358021694E+02 -0.20551660035E+01 -0.49943980385E+01  0.17226508434E+02  0.00000000000E+00 0. -1.
        -14    1    6    6    0    0 -0.71857920792E+02 -0.28585462237E+02  0.72410084991E+02  0.10594295560E+03  0.00000000000E+00 0.  1.
</event>
<event>
12    1  0.8747122E-002  0.2468766E+03  0.7818608E-02  0.1115310E+00
         21   -1    0    0  501  502  0.00000000000E+00  0.00000000000E+00  0.47291477856E+02  0.47291477856E+02  0.00000000000E+00 0. -1.
         21   -1    0    0  502  503 -0.00000000000E+00 -0.00000000000E+00 -0.13241998121E+04  0.13241998121E+04  0.00000000000E+00 0. -1.
         -6    2    1    2    0  503  0.15924520886E+03  0.77112186131E+02 -0.75125554592E+03  0.79075133754E+03  0.17203911402E+03 0.  0.
        -24    2    3    3    0    0  0.11917964906E+03  0.79330419364E+02 -0.33808784030E+03  0.37561303214E+03  0.79275834715E+02 0.  0.
          6    2    1    2  501    0 -0.15924520886E+03 -0.77112186131E+02 -0.52565278830E+03  0.58073995239E+03  0.17217059174E+03 0.  0.
         24    2    5    5    0    0 -0.39000301368E+02  0.16011035115E+02 -0.25567262269E+03  0.27083326977E+03  0.78770510133E+02 0.  0.
          5    1    5    5  501    0 -0.12024490749E+03 -0.93123221245E+02 -0.26998016560E+03  0.30990668262E+03  0.47000000000E+01 0. -1.
        -11    1    6    6    0    0  0.29042359914E+01  0.15418996115E+02 -0.46904443383E+01  0.16376211283E+02  0.00000000000E+00 0.  1.
         12    1    6    6    0    0 -0.41904537360E+02  0.59203899940E+00 -0.25098217836E+03  0.25445705849E+03  0.00000000000E+00 0. -1.
         -5    1    3    3    0  503  0.40065559797E+02 -0.22182332331E+01 -0.41316770562E+03  0.41513830540E+03  0.47000000000E+01 0.  1.
         11    1    4    4    0    0  0.31091858000E+02  0.39396029482E+02 -0.20524508679E+03  0.21129196962E+03  0.00000000000E+00 0. -1.
        -12    1    4    4    0    0  0.88087791064E+02  0.39934389881E+02 -0.13284275351E+03  0.16432106252E+03  0.00000000000E+00 0.  1.
</event>
<event>
12    1  0.8747122E-002  0.2740497E+03  0.7818608E-02  0.1098996E+00
         21   -1    0    0  501  502  0.00000000000E+00  0.00000000000E+00  0.14609856266E+03  0.14609856266E+03  0.00000000000E+00 0.  1.
         21   -1    0    0  502  503 -0.00000000000E+00 -0.00000000000E+00 -0.52481527763E+03  0.52481527763E+03  0.00000000000E+00 0. -1.
         -6    2    1    2    0  503 -0.21242226257E+03 -0.17083071667E+02 -0.23776540258E+03  0.36281627403E+03  0.17230267865E+03 0.  0.
        -24    2    3    3    0    0 -0.16357547443E+03  0.26207170552E+02 -0.23239105775E+03  0.29715785976E+03  0.82785495530E+02 0.  0.
          6    2    1    2  501    0  0.21242226257E+03  0.17083071667E+02 -0.14095131239E+03  0.30809756626E+03  0.17216790902E+03 0.  0.
         24    2    5    5    0    0  0.17504974297E+03  0.27713835710E+02 -0.17088510667E+03  0.25882444574E+03  0.79861785757E+02 0.  0.
          5    1    5    5  501    0  0.37372519600E+02 -0.10630764043E+02  0.29933794284E+02  0.49273120519E+02  0.47000000000E+01 0. -1.
        -11    1    6    6    0    0  0.84015647158E+01 -0.52589376553E+01  0.75464295949E+01  0.12457580606E+02  0.00000000000E+00 0.  1.
         12    1    6    6    0    0  0.16664817826E+03  0.32972773365E+02 -0.17843153627E+03  0.24636686513E+03  0.00000000000E+00 0. -1.
         -5    1    3    3    0  503 -0.48846788137E+02 -0.43290242219E+02 -0.53743448253E+01  0.65658414274E+02  0.47000000000E+01 0.  1.
         13    1    4    4    0    0 -0.59201810794E+01  0.26106957763E+02 -0.43991113751E+02  0.51496018066E+02  0.00000000000E+00 0. -1.
        -14    1    4    4    0    0 -0.15765529335E+03  0.10021278897E+00 -0.18839994400E+03  0.24566184169E+03  0.00000000000E+00 0.  1.
</event>
<event>
12    1  0.8747122E-002  0.1767660E+03  0.7818608E-02  0.1170989E+00
         21   -1    0    0  501  502  0.00000000000E+00  0.00000000000E+00  0.79690808291E+03  0.79690808291E+03  0.00000000000E+00 0. -1.
         21   -1    0    0  502  503 -0.00000000000E+00 -0.00000000000E+00 -0.90210520893E+02  0.90210520893E+02  0.00000000000E+00 0. -1.
         -6    2    1    2    0  503  0.18919538396E+02 -0.36608697419E+02  0.19813590257E+02  0.17787302393E+03  0.17189557476E+03 0.  0.
        -24    2    3    3    0    0  0.68537642450E+02 -0.84879440908E+01 -0.20788903672E+02  0.10770618325E+03  0.79993685793E+02 0.  0.
          6    2    1    2  501    0 -0.18919538396E+02  0.36608697419E+02  0.68688397176E+03  0.70924557988E+03  0.17181838159E+03 0.  0.
         24    2    5    5    0    0 -0.29275164061E+02 -0.40583584755E+02  0.28427606783E+03  0.29914668727E+03  0.78560773804E+02 0.  0.
          5    1    5    5  501    0  0.10355625665E+02  0.77192282174E+02  0.40260790394E+03  0.41009889261E+03  0.47000000000E+01 0. -1.
        -11    1    6    6    0    0 -0.32580787736E+02  0.11290049321E+02  0.62705411054E+02  0.71560754039E+02  0.00000000000E+00 0.  1.
         12    1    6    6    0    0  0.33056236750E+01 -0.51873634076E+02  0.22157065677E+03  0.22758593323E+03  0.00000000000E+00 0. -1.
         -5    1    3    3    0  503 -0.49618104053E+02 -0.28120753328E+02  0.40602493929E+02  0.70166840679E+02  0.47000000000E+01 0.  1.
         11    1    4    4    0    0  0.26974044227E+01  0.29348218636E+02 -0.23718527720E+01  0.29567205030E+02  0.00000000000E+00 0. -1.
        -12    1    4    4    0    0  0.65840238027E+02 -0.37836162726E+02 -0.18417050900E+02  0.78138978219E+02  0.00000000000E+00 0.  1.
</event>
<event>
12    1  0.8747122E-002  0.1730701E+03  0.7818608E-02  0.1175115E+00
         21   -1    0    0  501  502  0.00000000000E+00  0.00000000000E+00  0.15309225049E+04  0.15309225049E+04  0.00000000000E+00 0.  1.
         21   -1    0    0  502  503 -0.00000000000E+00 -0.00000000000E+00 -0.20072731653E+02  0.20072731653E+02  0.00000000000E+00 0.  1.
         -6    2    1    2    0  503 -0.14714486425E+02  0.95403487007E+01  0.61446346865E+03  0.63837184026E+03  0.17217931865E+03 0.  0.
        -24    2    3    3    0    0  0.81345184295E+01  0.22944976451E+02  0.60397021383E+03  0.60949348393E+03  0.78164220819E+02 0.  0.
          6    2    1    2  501    0  0.14714486425E+02 -0.95403487007E+01  0.89638630456E+03  0.91262339626E+03  0.17048613440E+03 0.  0.
         24    2    5    5    0    0  0.44349229813E+02 -0.50481228098E+02  0.67954308727E+03  0.68991855906E+03  0.98456092314E+02 0.  0.
          5    1    5    5  501    0 -0.29634743388E+02  0.40940879397E+02  0.21684321730E+03  0.22270483719E+03  0.47000000000E+01 0. -1.
        -11    1    6    6    0    0  0.17744015050E+00 -0.20389138975E+02  0.54158748558E+03  0.54197117360E+03  0.00000000000E+00 0.  1.
         12    1    6    6    0    0  0.44171789662E+02 -0.30092089122E+02  0.13795560168E+03  0.14794738546E+03  0.00000000000E+00 0. -1.
         -5    1    3    3    0  503 -0.22849004855E+02 -0.13404627750E+02  0.10493254815E+02  0.28878356335E+02  0.47000000000E+01 0.  1.
         13    1    4    4    0    0  0.37821087804E+02 -0.78197807982E+01  0.25344833097E+03  0.25637402389E+03  0.00000000000E+00 0. -1.
        -14    1    4    4    0    0 -0.29686569374E+02  0.30764757249E+02  0.35052188287E+03  0.35311946004E+03  0.00000000000E+00 0.  1.
</event>
<event>
12    1  0.8747122E-002  0.1905147E+03  0.7818608E-02  0.1158136E+00
         21   -1    0    0  503  502  0.00000000000E+00  0.00000000000E+00  0.50954755170E+02  0.50954755170E+02  0.00000000000E+00 0. -1.
         21   -1    0    0  501  503 -0.00000000000E+00 -0.00000000000E+00 -0.21135609169E+04  0.21135609169E+04  0.00000000000E+00 0. -1.
          6    2    1    2  501    0 -0.71908681902E+02 -0.38372489996E+02 -0.19137939461E+04  0.19232532636E+04  0.17219913326E+03 0.  0.
         24    2    3    3    0    0 -0.51183092093E+02  0.33670469211E+02 -0.68978530658E+03  0.69694213769E+03  0.78556760992E+02 0.  0.
         -6    2    1    2    0  502  0.71908681902E+02  0.38372489996E+02 -0.14881221568E+03  0.24126240847E+03  0.17152016699E+03 0.  0.
        -24    2    5    5    0    0  0.44133345402E+02  0.72141104222E+02 -0.40372175262E+02  0.12424479872E+03  0.81576751468E+02 0.  0.
          5    1    3    3  501    0 -0.20725589810E+02 -0.72042959208E+02 -0.12240086395E+04  0.12263111260E+04  0.47000000000E+01 0. -1.
        -11    1    4    4    0    0 -0.58973783267E+02 -0.33310133387E+01 -0.49577246378E+03  0.49927881850E+03  0.00000000000E+00 0.  1.
         12    1    4    4    0    0  0.77906911747E+01  0.37001482550E+02 -0.19401284280E+03  0.19766331918E+03  0.00000000000E+00 0. -1.
         -5    1    5    5    0  502  0.27775336501E+02 -0.33768614225E+02 -0.10844004042E+03  0.11701760974E+03  0.47000000000E+01 0.  1.
         13    1    6    6    0    0  0.18690482021E+02  0.52886262325E+02 -0.63582709727E+02  0.84788276531E+02  0.00000000000E+00 0. -1.
        -14    1    6    6    0    0  0.25442863381E+02  0.19254841897E+02  0.23210534465E+02  0.39456522194E+02  0.00000000000E+00 0.  1.
</event>
<event>
12    1  0.8747122E-002  0.2304707E+03  0.7818608E-02  0.1126438E+00
         21   -1    0    0  503  502  0.00000000000E+00  0.00000000000E+00  0.15694771241E+04  0.15694771241E+04  0.00000000000E+00 0. -1.
         21   -1    0    0  501  503 -0.00000000000E+00 -0.00000000000E+00 -0.43356776574E+02  0.43356776574E+02  0.00000000000E+00 0.  1.
          6    2    1    2  501    0 -0.81767299667E+02  0.12914306561E+03  0.38224927889E+03  0.44597582021E+03  0.17151121920E+03 0.  0.
         24    2    3    3    0    0 -0.42248724467E+02  0.50981234956E+02  0.32437698055E+03  0.34089355495E+03  0.81264686432E+02 0.  0.
         -6    2    1    2    0  502  0.81767299667E+02 -0.12914306561E+03  0.11438710687E+04  0.11668580805E+04  0.17249039273E+03 0.  0.
        -24    2    5    5    0    0  0.79478776621E+02 -0.15683549276E+03  0.87442824494E+03  0.89594548736E+03  0.84730827047E+02 0.  0.
          5    1    3    3  501    0 -0.39518575200E+02  0.78161830655E+02  0.57872298342E+02  0.10508226526E+03  0.47000000000E+01 0. -1.
        -11    1    4    4    0    0 -0.35473933663E+02 -0.14666032507E+02  0.13472617828E+03  0.14008795664E+03  0.00000000000E+00 0.  1.
         12    1    4    4    0    0 -0.67747908041E+01  0.65647267463E+02  0.18965080226E+03  0.20080559832E+03  0.00000000000E+00 0. -1.
         -5    1    5    5    0  502  0.22885230463E+01  0.27692427145E+02  0.26944282372E+03  0.27091259313E+03  0.47000000000E+01 0.  1.
         11    1    6    6    0    0  0.39659067411E+02 -0.69124101017E+02  0.59644731978E+03  0.60174777793E+03  0.00000000000E+00 0. -1.
        -12    1    6    6    0    0  0.39819709209E+02 -0.87711391740E+02  0.27798092517E+03  0.29419770944E+03  0.00000000000E+00 0.  1.
</event>
<event>
12    1  0.8747122E-002  0.2129639E+03  0.7818608E-02  0.1139415E+00
         21   -1    0    0  503  502  0.00000000000E+00  0.00000000000E+00  0.33550815177E+03  0.33550815177E+03  0.00000000000E+00 0. -1.
         21   -1    0    0  501  503 -0.00000000000E+00 -0.00000000000E+00 -0.18303050816E+03  0.18303050816E+03  0.00000000000E+00 0.  1.
          6    2    1    2  501    0 -0.26413023257E+02 -0.12172885557E+03 -0.57233078805E+02  0.21965371747E+03  0.17162915898E+03 0.  0.
         24    2    3    3    0    0 -0.74189238420E+02 -0.11031307296E+03 -0.17333152187E+02  0.15619521944E+03  0.80146685818E+02 0.  0.
         -6    2    1    2    0  502  0.26413023257E+02  0.12172885557E+03  0.20971072241E+03  0.29888494246E+03  0.17273696668E+03 0.  0.
        -24    2    5    5    0    0  0.10743296359E+02  0.65127802710E+02  0.21623064338E+03  0.23960746870E+03  0.79366232242E+02 0.  0.
          5    1    3    3  501    0  0.47776215163E+02 -0.11415782612E+02 -0.39899926618E+02  0.63458498029E+02  0.47000000000E+01 0. -1.
        -13    1    4    4    0    0 -0.61155611533E+01 -0.14976330377E+02 -0.34208158327E+02  0.37840304649E+02  0.00000000000E+00 0.  1.
         14    1    4    4    0    0 -0.68073677267E+02 -0.95336742582E+02  0.16875006139E+02  0.11835491479E+03  0.00000000000E+00 0. -1.
         -5    1    5    5    0  502  0.15669726898E+02  0.56601052861E+02 -0.65199209619E+01  0.59277473761E+02  0.47000000000E+01 0.  1.
         13    1    6    6    0    0 -0.19636970357E+02 -0.84072088378E+01  0.69303886099E+02  0.72521172037E+02  0.00000000000E+00 0. -1.
        -14    1    6    6    0    0  0.30380266716E+02  0.73535011548E+02  0.14692675728E+03  0.16708629666E+03  0.00000000000E+00 0.  1.
</event>
<event>
12    1  0.8747122E-002  0.1852706E+03  0.7818608E-02  0.1162967E+00
         21   -1    0    0  501  502  0.00000000000E+00  0.00000000000E+00  0.30655533436E+03  0.30655533436E+03  0.00000000000E+00 0.  1.
         21   -1    0    0  502  503 -0.00000000000E+00 -0.00000000000E+00 -0.11517191500E+03  0.11517191500E+03  0.00000000000E+00 0.  1.
         -6    2    1    2    0  503  0.65122741452E+02  0.82753997932E+01  0.58389353754E+02  0.19425376585E+03  0.17325055618E+03 0.  0.
        -24    2    3    3    0    0 -0.29270596195E+02 -0.15419267209E+02  0.40751492035E+02  0.95234961559E+02  0.79463779152E+02 0.  0.
          6    2    1    2  501    0 -0.65122741452E+02 -0.82753997932E+01  0.13299406561E+03  0.22747348351E+03  0.17247408651E+03 0.  0.
         24    2    5    5    0    0 -0.35378635989E+02 -0.71014737786E+02  0.65448941534E+02  0.13049219600E+03  0.80311321751E+02 0.  0.
          5    1    5    5  501    0 -0.29744105463E+02  0.62739337993E+02  0.67545124073E+02  0.96981287513E+02  0.47000000000E+01 0. -1.
        -13    1    6    6    0    0 -0.36979027854E+02 -0.37317239438E+02  0.78384408320E+02  0.94361752464E+02  0.00000000000E+00 0.  1.
         14    1    6    6    0    0  0.16003918653E+01 -0.33697498348E+02 -0.12935466786E+02  0.36130443535E+02  0.00000000000E+00 0. -1.
         -5    1    3    3    0  503  0.94393337647E+02  0.23694667003E+02  0.17637861720E+02  0.99018804287E+02  0.47000000000E+01 0.  1.
         11    1    4    4    0    0 -0.23938167395E+02  0.19542044790E+01  0.62462924788E+02  0.66921384822E+02  0.00000000000E+00 0. -1.
        -12    1    4    4    0    0 -0.53324287997E+01 -0.17373471688E+02 -0.21711432754E+02  0.28313576737E+02  0.00000000000E+00 0.  1.
</event>
<event>
12    1  0.8747122E-002  0.1828205E+03  0.7818608E-02  0.1165369E+00
         21   -1    0    0  501  502  0.00000000000E+00  0.00000000000E+00  0.24739369650E+03  0.24739369650E+03  0.00000000000E+00 0.  1.
         21   -1    0    0  502  503 -0.00000000000E+00 -0.00000000000E+00 -0.15472874973E+03  0.15472874973E+03  0.00000000000E+00 0.  1.
         -6    2    1    2    0  503  0.75322929518E+01  0.60732298526E+02  0.11931776772E+03  0.21736932693E+03  0.17107760541E+03 0.  0.
        -24    2    3    3    0    0  0.68314577254E+02  0.58326526737E+02  0.67198825780E+02  0.13712751780E+03  0.78863228221E+02 0.  0.
          6    2    1    2  501    0 -0.75322929518E+01 -0.60732298526E+02 -0.26652820953E+02  0.18475311930E+03  0.17227360421E+03 0.  0.
         24    2    5    5    0    0  0.40508635314E+02  0.60150638709E+01 -0.45511949355E+02  0.10024928566E+03  0.79381680592E+02 0.  0.
          5    1    5    5  501    0 -0.48040928266E+02 -0.66747362397E+02  0.18859128402E+02  0.84503833639E+02  0.47000000000E+01 0. -1.
        -11    1    6    6    0    0  0.19358372006E+02 -0.22482759022E+02 -0.55887963957E+02  0.63274683210E+02  0.00000000000E+00 0.  1.
         12    1    6    6    0    0  0.21150263308E+02  0.28497822893E+02  0.10376014602E+02  0.36974602454E+02  0.00000000000E+00 0. -1.
         -5    1    3    3    0  503 -0.60782284302E+02  0.24057717886E+01  0.52118941944E+02  0.80241809128E+02  0.47000000000E+01 0.  1.
         11    1    4    4    0    0  0.50180514797E+02  0.61684054833E+02  0.13893372258E+02  0.80721945459E+02  0.00000000000E+00 0. -1.
        -12    1    4    4    0    0  0.18134062457E+02 -0.33575280957E+01  0.53305453522E+02  0.56405572343E+02  0.00000000000E+00 0.  1.
</event>
<event>
12    1  0.8747122E-002  0.2115270E+03  0.7818608E-02  0.1140785E+00
         21   -1    0    0  501  502  0.00000000000E+00  0.00000000000E+00  0.17108119063E+02  0.17108119063E+02  0.00000000000E+00 0.  1.
         21   -1    0    0  502  503 -0.00000000000E+00 -0.00000000000E+00 -0.28583205527E+04  0.28583205527E+04  0.00000000000E+00 0. -1.
         -6    2    1    2    0  503  0.41047769425E+02  0.11671665968E+03 -0.98578360101E+03  0.10082226737E+04  0.17156909332E+03 0.  0.
        -24    2    3    3    0    0 -0.31505350974E+02  0.79020291432E+02 -0.73787271431E+03  0.74713481648E+03  0.80731021772E+02 0.  0.
          6    2    1    2  501    0 -0.41047769425E+02 -0.11671665968E+03 -0.18554288327E+04  0.18672059981E+04  0.16892124829E+03 0.  0.
         24    2    5    5    0    0 -0.51663775797E+02 -0.77000624542E+02 -0.66352850920E+03  0.67458764582E+03  0.78741142159E+02 0.  0.
          5    1    5    5  501    0  0.10616006372E+02 -0.39716035142E+02 -0.11919003235E+04  0.11926183522E+04  0.47000000000E+01 0. -1.
        -11    1    6    6    0    0 -0.49020109573E+02 -0.86641374373E+02 -0.65096364668E+03  0.65853122036E+03  0.00000000000E+00 0.  1.
         12    1    6    6    0    0 -0.26436662242E+01  0.96407498313E+01 -0.12564862521E+02  0.16056425461E+02  0.00000000000E+00 0. -1.
         -5    1    3    3    0  503  0.72553120399E+02  0.37696368252E+02 -0.24791088671E+03  0.26108785726E+03  0.47000000000E+01 0.  1.
         13    1    4    4    0    0 -0.21355478633E+02  0.95042679576E+02 -0.64814807932E+03  0.65542741790E+03  0.00000000000E+00 0. -1.
        -14    1    4    4    0    0 -0.10149872341E+02 -0.16022388144E+02 -0.89724634992E+02  0.91707398582E+02  0.00000000000E+00 0.  1.
</event>
<event>
12    1  0.8747122E-002  0.1938301E+03  0.7818608E-02  0.1158561E+00
         21   -1    0    0  503  502  0.00000000000E+00  0.00000000000E+00  0.33276928867E+03  0.33276928867E+03  0.00000000000E+00 0. -1.
         21   -1    0    0  501  503 -0.00000000000E+00 -0.00000000000E+00 -0.11226093170E+03  0.11226093170E+03  0.00000000000E+00 0. -1.
          6    2    1    2  501    0 -0.41505812849E+02 -0.29878381512E+02  0.46374152635E+02  0.18446766070E+03  0.17106228582E+03 0.  0.
         24    2    3    3    0    0 -0.61931700184E+02  0.39787511495E+01  0.85552743042E+02  0.12860556038E+03  0.73271770627E+02 0.  0.
         -6    2    1    2    0  502  0.41505812849E+02  0.29878381512E+02  0.17413420433E+03  0.26056255968E+03  0.18696169716E+03 0.  0.
        -24    2    5    5    0    0  0.81147266002E+01  0.22480941209E+02 -0.14330625763E+01  0.81633406172E+02  0.78043051128E+02 0.  0.
          5    1    3    3  501    0  0.20425887335E+02 -0.33857132662E+02 -0.39178590407E+02  0.55862100317E+02  0.47000000000E+01 0. -1.
        -13    1    4    4    0    0 -0.49529282956E+01  0.30150542532E+02  0.14432130616E+02  0.33791612980E+02  0.00000000000E+00 0.  1.
         14    1    4    4    0    0 -0.56978771888E+02 -0.26171791383E+02  0.71120612426E+02  0.94813947402E+02  0.00000000000E+00 0. -1.
         -5    1    5    5    0  502  0.33391086249E+02  0.73974403027E+01  0.17556726691E+03  0.17892915350E+03  0.47000000000E+01 0.  1.
         11    1    6    6    0    0 -0.61864947952E+01  0.37405994873E+02  0.26953258019E+02  0.46518375812E+02  0.00000000000E+00 0. -1.
        -12    1    6    6    0    0  0.14301221395E+02 -0.14925053664E+02 -0.28386320595E+02  0.35115030360E+02  0.00000000000E+00 0.  1.
</event>
<event>
12    1  0.8747122E-002  0.2084088E+03  0.7818608E-02  0.1143161E+00
         21   -1    0    0  501  502  0.00000000000E+00  0.00000000000E+00  0.54485202689E+03  0.54485202689E+03  0.00000000000E+00 0.  1.
         21   -1    0    0  502  503 -0.00000000000E+00 -0.00000000000E+00 -0.13848835897E+03  0.13848835897E+03  0.00000000000E+00 0. -1.
         -6    2    1    2    0  503 -0.83987531788E+02  0.82267106306E+02 -0.20117956665E+02  0.20937759386E+03  0.17208271952E+03 0.  0.
        -24    2    3    3    0    0 -0.32705713750E+02  0.92863745792E+02 -0.62857916406E+02  0.14162135586E+03  0.80075912652E+02 0.  0.
          6    2    1    2  501    0  0.83987531788E+02 -0.82267106306E+02  0.42648162459E+03  0.47396279200E+03  0.17009517867E+03 0.  0.
         24    2    5    5    0    0 -0.13042907604E+02 -0.15029108718E+02  0.17989626192E+03  0.20053586287E+03  0.86347991849E+02 0.  0.
          5    1    5    5  501    0  0.97030439392E+02 -0.67237997588E+02  0.24658536267E+03  0.27342692913E+03  0.47000000000E+01 0. -1.
        -13    1    6    6    0    0 -0.76183613544E+01 -0.34941391010E+02  0.23519487868E+02  0.42803113731E+02  0.00000000000E+00 0.  1.
         14    1    6    6    0    0 -0.54245462495E+01  0.19912282292E+02  0.15637677405E+03  0.15773274914E+03  0.00000000000E+00 0. -1.
         -5    1    3    3    0  503 -0.51281818038E+02 -0.10596639485E+02  0.42739959741E+02  0.67756238003E+02  0.47000000000E+01 0.  1.
         11    1    4    4    0    0 -0.40333275373E+02  0.48632774135E+02  0.14508509042E+01  0.63198297373E+02  0.00000000000E+00 0. -1.
        -12    1    4    4    0    0  0.76275616233E+01  0.44230971656E+02 -0.64308767310E+02  0.78423058490E+02  0.00000000000E+00 0.  1.
</event>
<event>
12    1  0.8747122E-002  0.1767179E+03  0.7818608E-02  0.1171114E+00
         21   -1    0    0  503  502  0.00000000000E+00  0.00000000000E+00  0.96813665019E+02  0.96813665019E+02  0.00000000000E+00 0.  1.
         21   -1    0    0  501  503 -0.00000000000E+00 -0.00000000000E+00 -0.56222469794E+03  0.56222469794E+03  0.00000000000E+00 0.  1.
          6    2    1    2  501    0 -0.41542072901E+02 -0.50076106070E+01 -0.44801585467E+03  0.48146639019E+03  0.17129173612E+03 0.  0.
         24    2    3    3    0    0  0.27444211369E+02 -0.23697042244E+02 -0.33970393071E+03  0.35161276050E+03  0.83174745315E+02 0.  0.
         -6    2    1    2    0  502  0.41542072901E+02  0.50076106070E+01 -0.17395178255E+02  0.17757197277E+03  0.17169272932E+03 0.  0.
        -24    2    5    5    0    0  0.55200516779E+02  0.15668550956E+02 -0.70763778836E+02  0.12126472398E+03  0.80031371009E+02 0.  0.
          5    1    3    3  501    0 -0.68986284270E+02  0.18689431637E+02 -0.10831192396E+03  0.12985362969E+03  0.47000000000E+01 0. -1.
        -11    1    4    4    0    0 -0.45777115936E+01 -0.36474988506E+02 -0.28205682346E+03  0.28444231733E+03  0.00000000000E+00 0.  1.
         12    1    4    4    0    0  0.32021922963E+02  0.12777946262E+02 -0.57647107250E+02  0.67170443167E+02  0.00000000000E+00 0. -1.
         -5    1    5    5    0  502 -0.13658443878E+02 -0.10660940349E+02  0.53368600580E+02  0.56307248789E+02  0.47000000000E+01 0.  1.
         13    1    6    6    0    0 -0.31122062295E+01  0.32112397466E+02 -0.64387061721E+01  0.32899070440E+02  0.00000000000E+00 0. -1.
        -14    1    6    6    0    0  0.58312723009E+02 -0.16443846510E+02 -0.64325072663E+02  0.88365653542E+02  0.00000000000E+00 0.  1.
</event>
<event>
12    1  0.8747122E-002  0.2353435E+03  0.7818608E-02  0.1123016E+00
         21   -1    0    0  503  502  0.00000000000E+00  0.00000000000E+00  0.16004337794E+03  0.16004337794E+03  0.00000000000E+00 0. -1.
         21   -1    0    0  501  503 -0.00000000000E+00 -0.00000000000E+00 -0.52324431470E+03  0.52324431470E+03  0.00000000000E+00 0. -1.
          6    2    1    2  501    0  0.10234901900E+02 -0.16100300949E+03 -0.38067428813E+03  0.44729644572E+03  0.17068823753E+03 0.  0.
         24    2    3    3    0    0 -0.18934266054E+02 -0.29674507936E+02 -0.83044890510E+02  0.12064163708E+03  0.80117837626E+02 0.  0.
         -6    2    1    2    0  502 -0.10234901900E+02  0.16100300949E+03  0.17473351376E+02  0.23599124692E+03  0.17134709899E+03 0.  0.
        -24    2    5    5    0    0 -0.98509145133E+01  0.18840452397E+03  0.25222705725E+02  0.20712720466E+03  0.81683467469E+02 0.  0.
          5    1    3    3  501    0  0.29169167954E+02 -0.13132850155E+03 -0.29762939762E+03  0.32665480864E+03  0.47000000000E+01 0. -1.
        -11    1    4    4    0    0  0.14884216169E+02 -0.46344757750E+02 -0.37077247353E+02  0.61189040956E+02  0.00000000000E+00 0.  1.
         12    1    4    4    0    0 -0.33818482223E+02  0.16670249814E+02 -0.45967643157E+02  0.59452596126E+02  0.00000000000E+00 0. -1.
         -5    1    5    5    0  502 -0.38398738693E+00 -0.27401514485E+02 -0.77493543491E+01  0.28864042253E+02  0.47000000000E+01 0.  1.
         13    1    6    6    0    0  0.18993088067E+02  0.39164232181E+02 -0.20896028184E+02  0.48282693282E+02  0.00000000000E+00 0. -1.
        -14    1    6    6    0    0 -0.28844002580E+02  0.14924029179E+03  0.46118733909E+02  0.15884451138E+03  0.00000000000E+00 0.  1.
</event>
<event>
12    1  0.8747122E-002  0.1732731E+03  0.7818608E-02  0.1174680E+00
         21   -1    0    0  503  502  0.00000000000E+00  0.00000000000E+00  0.36880009895E+02  0.36880009895E+02  0.00000000000E+00 0.  1.
         21   -1    0    0  501  503 -0.00000000000E+00 -0.00000000000E+00 -0.96326710167E+03  0.96326710167E+03  0.00000000000E+00 0.  1.
          6    2    1    2  501    0 -0.31546045269E+01 -0.29654050788E+01 -0.66154245851E+03  0.68365659517E+03  0.17242149097E+03 0.  0.
         24    2    3    3    0    0 -0.64875711182E+02 -0.26996551202E+02 -0.38940310452E+03  0.40353357045E+03  0.79163710043E+02 0.  0.
         -6    2    1    2    0  502  0.31546045269E+01  0.29654050788E+01 -0.26484463326E+03  0.31649051639E+03  0.17321900023E+03 0.  0.
        -24    2    5    5    0    0  0.53488508807E+02 -0.20105463668E+02 -0.90774958719E+02  0.13376638416E+03  0.79925603889E+02 0.  0.
          5    1    3    3  501    0  0.61721106655E+02  0.24031146124E+02 -0.27213935399E+03  0.28012302472E+03  0.47000000000E+01 0. -1.
        -13    1    4    4    0    0 -0.33200565477E+02 -0.46425552213E+02 -0.13705774418E+03  0.14846694813E+03  0.00000000000E+00 0.  1.
         14    1    4    4    0    0 -0.31675145705E+02  0.19429001011E+02 -0.25234536034E+03  0.25506662232E+03  0.00000000000E+00 0. -1.
         -5    1    5    5    0  502 -0.50333904280E+02  0.23070868747E+02 -0.17406967454E+03  0.18272413223E+03  0.47000000000E+01 0.  1.
         13    1    6    6    0    0 -0.17853842022E+00 -0.72611794945E+01  0.13760505618E+02  0.15559823858E+02  0.00000000000E+00 0. -1.
        -14    1    6    6    0    0  0.53667047228E+02 -0.12844284174E+02 -0.10453546434E+03  0.11820656030E+03  0.00000000000E+00 0.  1.
</event>
<event>
12    1  0.8747122E-002  0.1727151E+03  0.7818608E-02  0.1175584E+00
         21   -1    0    0  501  502  0.00000000000E+00  0.00000000000E+00  0.33184930227E+03  0.33184930227E+03  0.00000000000E+00 0. -1.
         21   -1    0    0  502  503 -0.00000000000E+00 -0.00000000000E+00 -0.11799985112E+03  0.11799985112E+03  0.00000000000E+00 0. -1.
         -6    2    1    2    0  503  0.23275966275E+01 -0.23299135152E+01 -0.44629742766E+01  0.17277278875E+03  0.17268373458E+03 0.  0.
        -24    2    3    3    0    0  0.12777148407E+02 -0.68347175907E+02 -0.93038982610E+01  0.10559394824E+03  0.78923554198E+02 0.  0.
          6    2    1    2  501    0 -0.23275966275E+01  0.23299135152E+01  0.21831242543E+03  0.27707636464E+03  0.17058766234E+03 0.  0.
         24    2    5    5    0    0  0.23287006090E+02  0.42130061845E+02  0.20750541608E+03  0.22830094942E+03  0.82131595844E+02 0.  0.
          5    1    5    5  501    0 -0.25614602717E+02 -0.39800148330E+02  0.10807009345E+02  0.48775415226E+02  0.47000000000E+01 0. -1.
        -11    1    6    6    0    0 -0.84178180425E+01  0.58721711392E+02  0.13427131438E+03  0.14679197837E+03  0.00000000000E+00 0.  1.
         12    1    6    6    0    0  0.31704824132E+02 -0.16591649547E+02  0.73234101704E+02  0.81508971042E+02  0.00000000000E+00 0. -1.
         -5    1    3    3    0  503 -0.10449551779E+02  0.66017262392E+02  0.48409239843E+01  0.67178840501E+02  0.47000000000E+01 0.  1.
         11    1    4    4    0    0 -0.12602559590E+02  0.10325848232E+02 -0.15771733215E+02  0.22675873049E+02  0.00000000000E+00 0. -1.
        -12    1    4    4    0    0  0.25379707997E+02 -0.78673024139E+02  0.64678349540E+01  0.82918075196E+02  0.00000000000E+00 0.  1.
</event>
<event>
12    1  0.8747122E-002  0.2170566E+03  0.7818608E-02  0.1136118E+00
         21   -1    0    0  503  502  0.00000000000E+00  0.00000000000E+00  0.16505236823E+04  0.16505236823E+04  0.00000000000E+00 0.  1.
         21   -1    0    0  501  503 -0.00000000000E+00 -0.00000000000E+00 -0.29491291330E+02  0.29491291330E+02  0.00000000000E+00 0.  1.
          6    2    1    2  501    0  0.85760146845E+02 -0.10175141214E+03  0.65861974797E+03  0.69342911798E+03  0.17133539209E+03 0.  0.
         24    2    3    3    0    0  0.77795015793E+02 -0.23474794422E+02  0.21869622246E+03  0.24650018572E+03  0.79568670878E+02 0.  0.
         -6    2    1    2    0  502 -0.85760146845E+02  0.10175141214E+03  0.96241264297E+03  0.98658585562E+03  0.17148003530E+03 0.  0.
        -24    2    5    5    0    0 -0.56718634377E+02  0.67152652622E+02  0.29938188558E+03  0.32200150518E+03  0.79554847025E+02 0.  0.
          5    1    3    3  501    0  0.79651310527E+01 -0.78276617722E+02  0.43992352551E+03  0.44692893226E+03  0.47000000000E+01 0. -1.
        -11    1    4    4    0    0  0.66138421221E+02 -0.47317595141E+02  0.12505794297E+03  0.14917350526E+03  0.00000000000E+00 0.  1.
         12    1    4    4    0    0  0.11656594571E+02  0.23842800718E+02  0.93638279494E+02  0.97326680462E+02  0.00000000000E+00 0. -1.
         -5    1    5    5    0  502 -0.29041512468E+02  0.34598759523E+02  0.66303075739E+03  0.66458435044E+03  0.47000000000E+01 0.  1.
         13    1    6    6    0    0  0.13604182287E+02  0.39428334823E+02  0.84967955541E+02  0.94653160705E+02  0.00000000000E+00 0. -1.
        -14    1    6    6    0    0 -0.70322816664E+02  0.27724317798E+02  0.21441393004E+03  0.22734834447E+03  0.00000000000E+00 0.  1.
</event>
<event>
12    1  0.8747122E-002  0.1912767E+03  0.7818608E-02  0.1159492E+00
         21   -1    0    0  501  502  0.00000000000E+00  0.00000000000E+00  0.95917087248E+03  0.95917087248E+03  0.00000000000E+00 0. -1.
         21   -1    0    0  502  503 -0.00000000000E+00 -0.00000000000E+00 -0.16204527600E+03  0.16204527600E+03  0.00000000000E+00 0. -1.
         -6    2    1    2    0  503 -0.55125306579E+02  0.12538027127E+02 -0.97553178817E+02  0.20631894677E+03  0.17278565782E+03 0.  0.
        -24    2    3    3    0    0 -0.48593392104E+02 -0.27755387930E+02 -0.12411225917E+03  0.15739349375E+03  0.78975817081E+02 0.  0.
          6    2    1    2  501    0  0.55125306579E+02 -0.12538027127E+02  0.89467877530E+03  0.91489720171E+03  0.18273143457E+03 0.  0.
         24    2    5    5    0    0 -0.35627018461E+02 -0.36634851751E+02  0.20377180776E+03  0.21762310263E+03  0.56793206924E+02 0.  0.
          5    1    5    5  501    0  0.90752325040E+02  0.24096824624E+02  0.69090696754E+03  0.69727409908E+03  0.47000000000E+01 0. -1.
        -13    1    6    6    0    0 -0.83604291209E+00 -0.40651063780E+02  0.12417272832E+03  0.13066014853E+03  0.00000000000E+00 0.  1.
         14    1    6    6    0    0 -0.34790975549E+02  0.40162120282E+01  0.79599079433E+02  0.86962954098E+02  0.00000000000E+00 0. -1.
         -5    1    3    3    0  503 -0.65319144753E+01  0.40293415058E+02  0.26559080353E+02  0.48925453017E+02  0.47000000000E+01 0.  1.
         13    1    4    4    0    0 -0.47152379207E+02 -0.45998955713E+02 -0.54742439882E+02  0.85650367867E+02  0.00000000000E+00 0. -1.
        -14    1    4    4    0    0 -0.14410128970E+01  0.18243567782E+02 -0.69369819288E+02  0.71743125884E+02  0.00000000000E+00 0.  1.
</event>
<event>
12    1  0.8747122E-002  0.1884761E+03  0.7818608E-02  0.1160319E+00
         21   -1    0    0  501  502  0.00000000000E+00  0.00000000000E+00  0.50956752696E+03  0.50956752696E+03  0.00000000000E+00 0.  1.
         21   -1    0    0  502  503 -0.00000000000E+00 -0.00000000000E+00 -0.82896043003E+02  0.82896043003E+02  0.00000000000E+00 0.  1.
         -6    2    1    2    0  503 -0.72831249739E+02 -0.21170380174E+02  0.92802049688E+02  0.21008441043E+03  0.17254177217E+03 0.  0.
        -24    2    3    3    0    0  0.22542907577E+02 -0.21894704316E+02  0.73544913115E+02  0.11266941241E+03  0.79359822893E+02 0.  0.
          6    2    1    2  501    0  0.72831249739E+02  0.21170380174E+02  0.33386943427E+03  0.38237915954E+03  0.17027168459E+03 0.  0.
         24    2    5    5    0    0  0.52078493443E+02  0.79225824180E+02  0.23680278138E+03  0.26729164250E+03  0.79877181898E+02 0.  0.
          5    1    5    5  501    0  0.20752756297E+02 -0.58055444006E+02  0.97066652893E+02  0.11508751703E+03  0.47000000000E+01 0. -1.
        -13    1    6    6    0    0  0.24617525063E+02  0.70911330753E+02  0.22330450838E+03  0.23558298502E+03  0.00000000000E+00 0.  1.
         14    1    6    6    0    0  0.27460968380E+02  0.83144934271E+01  0.13498272997E+02  0.31708657481E+02  0.00000000000E+00 0. -1.
         -5    1    3    3    0  503 -0.95374157316E+02  0.72432414265E+00  0.19257136573E+02  0.97414998015E+02  0.47000000000E+01 0.  1.
         13    1    4    4    0    0  0.51213701590E+00 -0.36117762170E+02  0.78104658130E+02  0.86052848007E+02  0.00000000000E+00 0. -1.
        -14    1    4    4    0    0  0.22030770561E+02  0.14223057854E+02 -0.45597450153E+01  0.26616564407E+02  0.00000000000E+00 0.  1.
</event>
<event>
12    1  0.8747122E-002  0.2184170E+03  0.7818608E-02  0.1135266E+00
         21   -1    0    0  501  502  0.00000000000E+00  0.00000000000E+00  0.53855148992E+03  0.53855148992E+03  0.00000000000E+00 0.  1.
         21   -1    0    0  502  503 -0.00000000000E+00 -0.00000000000E+00 -0.93434641937E+02  0.93434641937E+02  0.00000000000E+00 0.  1.
         -6    2    1    2    0  503  0.13260609448E+03 -0.10987240698E+01  0.14797823279E+03  0.26382486789E+03  0.17355235536E+03 0.  0.
        -24    2    3    3    0    0  0.16948576685E+02  0.44605511191E+02  0.73386687409E+02  0.11873342367E+03  0.80219163099E+02 0.  0.
          6    2    1    2  501    0 -0.13260609448E+03  0.10987240698E+01  0.29713861520E+03  0.36816126396E+03  0.17223755732E+03 0.  0.
         24    2    5    5    0    0 -0.36793967936E+02  0.11926369572E+02  0.22112152238E+03  0.24528779286E+03  0.98870315550E+02 0.  0.
          5    1    5    5  501    0 -0.95812126549E+02 -0.10827645502E+02  0.76017092814E+02  0.12287347110E+03  0.47000000000E+01 0. -1.
        -11    1    6    6    0    0 -0.21914508623E+02  0.51281659478E+02  0.17091178338E+03  0.17978012122E+03  0.00000000000E+00 0.  1.
         12    1    6    6    0    0 -0.14879459313E+02 -0.39355289906E+02  0.50209739002E+02  0.65507671640E+02  0.00000000000E+00 0. -1.
         -5    1    3    3    0  503  0.11565751780E+03 -0.45704235260E+02  0.74591545376E+02  0.14509144422E+03  0.47000000000E+01 0.  1.
         13    1    4    4    0    0 -0.14897488551E+02 -0.58220288645E+01  0.53537414826E+02  0.55875629495E+02  0.00000000000E+00 0. -1.
        -14    1    4    4    0    0  0.31846065235E+02  0.50427540055E+02  0.19849272583E+02  0.62857794179E+02  0.00000000000E+00 0.  1.
</event>
<event>
12    1  0.8747122E-002  0.2083889E+03  0.7818608E-02  0.1142921E+00
         21   -1    0    0  503  502  0.00000000000E+00  0.00000000000E+00  0.88602129987E+03  0.88602129987E+03  0.00000000000E+00 0. -1.
         21   -1    0    0  501  503 -0.00000000000E+00 -0.00000000000E+00 -0.54114717905E+02  0.54114717905E+02  0.00000000000E+00 0. -1.
          6    2    1    2  501    0 -0.11411278719E+03 -0.11980442984E+02  0.27073280420E+03  0.34164629809E+03  0.17395597866E+03 0.  0.
         24    2    3    3    0    0 -0.12909194975E+03 -0.23523963583E+02  0.13626391344E+03  0.20577282473E+03  0.80972173856E+02 0.  0.
         -6    2    1    2    0  502  0.11411278719E+03  0.11980442984E+02  0.56117377776E+03  0.59848971969E+03  0.17351851921E+03 0.  0.
        -24    2    5    5    0    0 -0.50647997213E+01 -0.13938467524E+02  0.28646425767E+03  0.29788616420E+03  0.80339671553E+02 0.  0.
          5    1    3    3  501    0  0.14979162561E+02  0.11543520600E+02  0.13446889076E+03  0.13587347335E+03  0.47000000000E+01 0. -1.
        -13    1    4    4    0    0 -0.52008684314E+02 -0.50516161623E+02  0.65459010303E+02  0.97681461184E+02  0.00000000000E+00 0.  1.
         14    1    4    4    0    0 -0.77083265437E+02  0.26992198039E+02  0.70804903140E+02  0.10809136355E+03  0.00000000000E+00 0. -1.
         -5    1    5    5    0  502  0.11917758691E+03  0.25918910507E+02  0.27470952009E+03  0.30060355549E+03  0.47000000000E+01 0.  1.
         11    1    6    6    0    0  0.15058700340E+02 -0.31941563875E+02  0.58527177496E+02  0.68355383580E+02  0.00000000000E+00 0. -1.
        -12    1    6    6    0    0 -0.20123500062E+02  0.18003096352E+02  0.22793708017E+03  0.22953078062E+03  0.00000000000E+00 0.  1.
</event>
<event>
12    1  0.8747122E-002  0.2094035E+03  0.7818608E-02  0.1142154E+00
         21   -1    0    0  503  502  0.00000000000E+00  0.00000000000E+00  0.31418131684E+03  0.31418131684E+03  0.00000000000E+00 0. -1.
         21   -1    0    0  501  503 -0.00000000000E+00 -0.00000000000E+00 -0.16803800694E+03  0.16803800694E+03  0.00000000000E+00 0. -1.
          6    2    1    2  501    0  0.11482859019E+03 -0.31887251720E+02 -0.26757194780E+02  0.21110606516E+03  0.17218426562E+03 0.  0.
         24    2    3    3    0    0  0.92088272617E+02 -0.86593284712E+02 -0.14725222932E+02  0.15047001618E+03  0.80285407565E+02 0.  0.
         -6    2    1    2    0  502 -0.11482859019E+03  0.31887251720E+02  0.17290050468E+03  0.27111325863E+03  0.17148006454E+03 0.  0.
        -24    2    5    5    0    0 -0.10212457097E+03 -0.32155197731E+00  0.41411493126E+02  0.13506088158E+03  0.78083279762E+02 0.  0.
          5    1    3    3  501    0  0.22740317575E+02  0.54706032992E+02 -0.12031971847E+02  0.60636048978E+02  0.47000000000E+01 0. -1.
        -13    1    4    4    0    0  0.20046686649E+01 -0.43767432332E+02 -0.24583205236E+02  0.50238837657E+02  0.00000000000E+00 0.  1.
         14    1    4    4    0    0  0.90083603952E+02 -0.42825852380E+02  0.98579823035E+01  0.10023117852E+03  0.00000000000E+00 0. -1.
         -5    1    5    5    0  502 -0.12704019220E+02  0.32208803697E+02  0.13148901156E+03  0.13605237705E+03  0.47000000000E+01 0.  1.
         11    1    6    6    0    0 -0.49219543452E+02  0.19336641893E+02  0.55737459360E+02  0.76831852465E+02  0.00000000000E+00 0. -1.
        -12    1    6    6    0    0 -0.52905027520E+02 -0.19658193871E+02 -0.14325966234E+02  0.58229029115E+02  0.00000000000E+00 0.  1.
</event>
<event>
12    1  0.8747122E-002  0.1945008E+03  0.7818608E-02  0.1155005E+00
         21   -1    0    0  503  502  0.00000000000E+00  0.00000000000E+00  0.27510931338E+03  0.27510931338E+03  0.00000000000E+00 0. -1.
         21   -1    0    0  501  503 -0.00000000000E+00 -0.00000000000E+00 -0.13715990590E+03  0.13715990590E+03  0.00000000000E+00 0.  1.
          6    2    1    2  501    0  0.80471475621E+02 -0.36080553837E+02  0.48707348729E+02  0.20050676243E+03  0.17335827412E+03 0.  0.
         24    2    3    3    0    0 -0.31862154246E+01 -0.55517890217E+02 -0.75535396832E+01  0.97726429283E+02  0.80006317974E+02 0.  0.
         -6    2    1    2    0  502 -0.80471475621E+02  0.36080553837E+02  0.89242058755E+02  0.21176245685E+03  0.17059228683E+03 0.  0.
        -24    2    5    5    0    0 -0.10738817855E+03  0.17038765513E+02  0.20610216537E+02  0.13547668907E+03  0.78144813219E+02 0.  0.
          5    1    3    3  501    0  0.83657691046E+02  0.19437336380E+02  0.56260888412E+02  0.10278033315E+03  0.47000000000E+01 0. -1.
        -13    1    4    4    0    0 -0.64637601981E+01 -0.11060435470E+02 -0.40381639713E+02  0.42364964943E+02  0.00000000000E+00 0.  1.
         14    1    4    4    0    0  0.32775447734E+01 -0.44457454748E+02  0.32828100030E+02  0.55361464341E+02  0.00000000000E+00 0. -1.
         -5    1    5    5    0  502  0.26916702930E+02  0.19041788325E+02  0.68631842219E+02  0.76285767778E+02  0.47000000000E+01 0.  1.
         11    1    6    6    0    0 -0.78232552639E+02 -0.11411886242E+02  0.41937406253E+02  0.89494745562E+02  0.00000000000E+00 0. -1.
        -12    1    6    6    0    0 -0.29155625912E+02  0.28450651755E+02 -0.21327189716E+02  0.45981943508E+02  0.00000000000E+00 0.  1.
</event>
<event>
12    1  0.8747122E-002  0.1746187E+03  0.7818608E-02  0.1173520E+00
         21   -1    0    0  501  502  0.00000000000E+00  0.00000000000E+00  0.15904798781E+03  0.15904798781E+03  0.00000000000E+00 0.  1.
         21   -1    0    0  502  503 -0.00000000000E+00 -0.00000000000E+00 -0.23634314412E+03  0.23634314412E+03  0.00000000000E+00 0.  1.
         -6    2    1    2    0  503  0.70066430695E+00 -0.21581223270E+02 -0.12636989788E+03  0.21554825983E+03  0.17327856503E+03 0.  0.
        -24    2    3    3    0    0  0.11685959224E+02 -0.41020887847E+02 -0.35396219629E+01  0.90616502678E+02  0.79872064899E+02 0.  0.
          6    2    1    2  501    0 -0.70066430695E+00  0.21581223270E+02  0.49074741574E+02  0.17984287210E+03  0.17166504670E+03 0.  0.
         24    2    5    5    0    0  0.96563191214E+01 -0.40584967586E+02 -0.13429876245E+02  0.90956317214E+02  0.79701354895E+02 0.  0.
          5    1    5    5  501    0 -0.10356983428E+02  0.62166190857E+02  0.62504617819E+02  0.88886554889E+02  0.47000000000E+01 0. -1.
        -13    1    6    6    0    0 -0.88882057945E+01  0.22344812764E+02 -0.69495910320E+01  0.25031733364E+02  0.00000000000E+00 0.  1.
         14    1    6    6    0    0  0.18544524916E+02 -0.62929780350E+02 -0.64802852126E+01  0.65924583850E+02  0.00000000000E+00 0. -1.
         -5    1    3    3    0  503 -0.10985294917E+02  0.19439664577E+02 -0.12283027592E+03  0.12493175715E+03  0.47000000000E+01 0.  1.
         13    1    4    4    0    0 -0.25200101894E+02  0.73174663664E+01  0.10413369763E+02  0.28231697068E+02  0.00000000000E+00 0. -1.
        -14    1    4    4    0    0  0.36886061119E+02 -0.48338354213E+02 -0.13952991726E+02  0.62384805610E+02  0.00000000000E+00 0.  1.
</event>
<event>
12    1  0.8747122E-002  0.2250542E+03  0.7818608E-02  0.1130999E+00
         21   -1    0    0  501  502  0.00000000000E+00  0.00000000000E+00  0.33229685200E+03  0.33229685200E+03  0.00000000000E+00 0.  1.
         21   -1    0    0  502  503 -0.00000000000E+00 -0.00000000000E+00 -0.19581771384E+03  0.19581771384E+03  0.00000000000E+00 0.  1.
         -6    2    1    2    0  503 -0.99590272208E+02 -0.94623843133E+02 -0.59831796905E+02  0.23287168752E+03  0.17826240467E+03 0.  0.
        -24    2    3    3    0    0 -0.89397737688E+02 -0.46074126817E+02  0.29345516477E+02  0.13071667816E+03  0.78172309334E+02 0.  0.
          6    2    1    2  501    0  0.99590272208E+02  0.94623843133E+02  0.19631093506E+03  0.29524287832E+03  0.17250646355E+03 0.  0.
         24    2    5    5    0    0  0.11044289139E+03  0.38981710316E+02  0.70793225826E+02  0.15743645024E+03  0.77828973034E+02 0.  0.
          5    1    5    5  501    0 -0.10852619186E+02  0.55642132817E+02  0.12551770924E+03  0.13780642808E+03  0.47000000000E+01 0. -1.
        -13    1    6    6    0    0  0.32559134963E+02  0.33172180903E+02 -0.72306171661E+01  0.47040117772E+02  0.00000000000E+00 0.  1.
         14    1    6    6    0    0  0.77883756431E+02  0.58095294136E+01  0.78023842992E+02  0.11039633247E+03  0.00000000000E+00 0. -1.
         -5    1    3    3    0  503 -0.10192534520E+02 -0.48549716316E+02 -0.89177313382E+02  0.10215500936E+03  0.47000000000E+01 0.  1.
         13    1    4    4    0    0 -0.32486123650E+01  0.18824113931E+02  0.82830993450E+01  0.20820914542E+02  0.00000000000E+00 0. -1.
        -14    1    4    4    0    0 -0.86149125323E+02 -0.64898240748E+02  0.21062417132E+02  0.10989576362E+03  0.00000000000E+00 0.  1.
</event>
<event>
12    1  0.8747122E-002  0.1942759E+03  0.7818608E-02  0.1154707E+00
         21   -1    0    0  503  502  0.00000000000E+00  0.00000000000E+00  0.83245900212E+02  0.83245900212E+02  0.00000000000E+00 0.  1.
         21   -1    0    0  501  503 -0.00000000000E+00 -0.00000000000E+00 -0.47151260252E+03  0.47151260252E+03  0.00000000000E+00 0. -1.
          6    2    1    2  501    0 -0.43876564215E+02 -0.78190293287E+02 -0.24914317146E+03  0.31580561304E+03  0.17211040204E+03 0.  0.
         24    2    3    3    0    0 -0.59181155930E+02  0.10509702895E+02 -0.10092644729E+03  0.14233455731E+03  0.80374842896E+02 0.  0.
         -6    2    1    2    0  502  0.43876564215E+02  0.78190293287E+02 -0.13912353084E+03  0.23895288969E+03  0.17234921469E+03 0.  0.
        -24    2    5    5    0    0  0.36736083379E+02  0.10381480645E+03 -0.15619561205E+03  0.20699748173E+03  0.79522539950E+02 0.  0.
          5    1    3    3  501    0  0.15304591715E+02 -0.88699996182E+02 -0.14821672418E+03  0.17347105573E+03  0.47000000000E+01 0. -1.
        -11    1    4    4    0    0 -0.24426427770E+01 -0.11734261640E+02  0.10105219986E+02  0.15677208646E+02  0.00000000000E+00 0.  1.
         12    1    4    4    0    0 -0.56738513153E+02  0.22243964535E+02 -0.11103166727E+03  0.12665734866E+03  0.00000000000E+00 0. -1.
         -5    1    5    5    0  502  0.71404808361E+01 -0.25624513162E+02  0.17072081204E+02  0.31955407961E+02  0.47000000000E+01 0.  1.
         11    1    6    6    0    0  0.40889780027E+02  0.38377536001E+02 -0.11914942166E+03  0.13168672697E+03  0.00000000000E+00 0. -1.
        -12    1    6    6    0    0 -0.41536966479E+01  0.65437270447E+02 -0.37046190388E+02  0.75310754754E+02  0.00000000000E+00 0.  1.
</event>
<event>
12    1  0.8747122E-002  0.2202843E+03  0.7818608E-02  0.1133732E+00
         21   -1    0    0  501  502  0.00000000000E+00  0.00000000000E+00  0.34223760753E+02  0.34223760753E+02  0.00000000000E+00 0. -1.
         21   -1    0    0  502  503 -0.00000000000E+00 -0.00000000000E+00 -0.15101171982E+04  0.15101171982E+04  0.00000000000E+00 0.  1.
         -6    2    1    2    0  503  0.65806139586E+01 -0.13527330358E+03 -0.54545398319E+03  0.58825609276E+03  0.17373258691E+03 0.  0.
        -24    2    3    3    0    0  0.55490097395E+02 -0.79815988108E+02 -0.44747095305E+03  0.46541304003E+03  0.83242423931E+02 0.  0.
          6    2    1    2  501    0 -0.65806139586E+01  0.13527330358E+03 -0.93043945425E+03  0.95608486619E+03  0.17331624903E+03 0.  0.
         24    2    5    5    0    0  0.16686151185E+02  0.10354682716E+03 -0.34670890993E+03  0.37101106738E+03  0.80260643172E+02 0.  0.
          5    1    5    5  501    0 -0.23266765143E+02  0.31726476418E+02 -0.58373054433E+03  0.58507379880E+03  0.47000000000E+01 0. -1.
        -11    1    6    6    0    0 -0.69210648260E+01  0.27040569462E+02 -0.21551809343E+03  0.21731806673E+03  0.00000000000E+00 0.  1.
         12    1    6    6    0    0  0.23607216011E+02  0.76506257696E+02 -0.13119081650E+03  0.15369300065E+03  0.00000000000E+00 0. -1.
         -5    1    3    3    0  503 -0.48909483437E+02 -0.55457315468E+02 -0.97983030143E+02  0.12284305273E+03  0.47000000000E+01 0.  1.
         13    1    4    4    0    0  0.76836518724E+01 -0.31583490320E+02 -0.36526812585E+02  0.48895433371E+02  0.00000000000E+00 0. -1.
        -14    1    4    4    0    0  0.47806445523E+02 -0.48232497788E+02 -0.41094414046E+03  0.41651760666E+03  0.00000000000E+00 0.  1.
</event>
<event>
12    1  0.8747122E-002  0.1892331E+03  0.7818608E-02  0.1159159E+00
         21   -1    0    0  501  502  0.00000000000E+00  0.00000000000E+00  0.11633330472E+03  0.11633330472E+03  0.00000000000E+00 0. -1.
         21   -1    0    0  502  503 -0.00000000000E+00 -0.00000000000E+00 -0.33067922749E+03  0.33067922749E+03  0.00000000000E+00 0. -1.
         -6    2    1    2    0  503  0.76472252740E+02  0.11317788306E+01 -0.16598897268E+03  0.25171713968E+03  0.17308926308E+03 0.  0.
        -24    2    3    3    0    0  0.46811128721E+02 -0.20965917707E+02 -0.18624661668E+03  0.20928422072E+03  0.80506095050E+02 0.  0.
          6    2    1    2  501    0 -0.76472252740E+02 -0.11317788306E+01 -0.48356950085E+02  0.19529539254E+03  0.17306822170E+03 0.  0.
         24    2    5    5    0    0 -0.22041112615E+01  0.51672820052E+02 -0.75173473063E+01  0.95325168689E+02  0.79721006244E+02 0.  0.
          5    1    5    5  501    0 -0.74268141478E+02 -0.52804598882E+02 -0.40839602779E+02  0.99970223851E+02  0.47000000000E+01 0. -1.
        -11    1    6    6    0    0 -0.10935138636E+02  0.16598077348E+02  0.34551750413E+02  0.39860969447E+02  0.00000000000E+00 0.  1.
         12    1    6    6    0    0  0.87310273748E+01  0.35074742704E+02 -0.42069097719E+02  0.55464199243E+02  0.00000000000E+00 0. -1.
         -5    1    3    3    0  503  0.29661124019E+02  0.22097696537E+02  0.20257644002E+02  0.42432918952E+02  0.47000000000E+01 0.  1.
         11    1    4    4    0    0  0.62467147604E+02 -0.20321968119E+02 -0.88097544595E+02  0.10989223941E+03  0.00000000000E+00 0. -1.
        -12    1    4    4    0    0 -0.15656018883E+02 -0.64394958817E+00 -0.98149072089E+02  0.99391981318E+02  0.00000000000E+00 0.  1.
</event>
<event>
12    1  0.8747122E-002  0.2100892E+03  0.7818608E-02  0.1141617E+00
         21   -1    0    0  501  502  0.00000000000E+00  0.00000000000E+00  0.51347128036E+03  0.51347128036E+03  0.00000000000E+00 0. -1.
         21   -1    0    0  502  503 -0.00000000000E+00 -0.00000000000E+00 -0.90698687731E+02  0.90698687731E+02  0.00000000000E+00 0. -1.
         -6    2    1    2    0  503  0.11005130238E+03 -0.50276031672E+02  0.14082318077E+03  0.25292024311E+03  0.17175131038E+03 0.  0.
        -24    2    3    3    0    0  0.11723289305E+03 -0.89345791737E+02  0.96349902816E+02  0.19310399240E+03  0.79244093762E+02 0.  0.
          6    2    1    2  501    0 -0.11005130238E+03  0.50276031672E+02  0.28194941186E+03  0.35124972498E+03  0.17100271910E+03 0.  0.
         24    2    5    5    0    0 -0.14482931909E+03  0.50429686608E+02  0.21370090964E+03  0.27450676367E+03  0.78531519536E+02 0.  0.
          5    1    5    5  501    0  0.34778016712E+02 -0.15365493618E+00  0.68248502212E+02  0.76742961309E+02  0.47000000000E+01 0. -1.
        -13    1    6    6    0    0  0.57846665418E+01 -0.84719957731E+01  0.91341251753E+01  0.13735695181E+02  0.00000000000E+00 0.  1.
         14    1    6    6    0    0 -0.15061398563E+03  0.58901682381E+02  0.20456678447E+03  0.26077106849E+03  0.00000000000E+00 0. -1.
         -5    1    3    3    0  503 -0.71815906729E+01  0.39069760065E+02  0.44473277956E+02  0.59816250704E+02  0.47000000000E+01 0.  1.
         11    1    4    4    0    0  0.46381335765E+02 -0.21054029874E+02 -0.57994832038E+01  0.51265334162E+02  0.00000000000E+00 0. -1.
        -12    1    4    4    0    0  0.70851557284E+02 -0.68291761863E+02  0.10214938602E+03  0.14183865824E+03  0.00000000000E+00 0.  1.
</event>
<event>
12    1  0.8747122E-002  0.2297018E+03  0.7818608E-02  0.1127476E+00
         21   -1    0    0  501  502  0.00000000000E+00  0.00000000000E+00  0.32424287745E+03  0.32424287745E+03  0.00000000000E+00 0.  1.
         21   -1    0    0  502  503 -0.00000000000E+00 -0.00000000000E+00 -0.19332616685E+03  0.19332616685E+03  0.00000000000E+00 0. -1.
         -6    2    1    2    0  503  0.14615579222E+03  0.22914088017E+02 -0.42018742185E+02  0.23004588903E+03  0.17108175044E+03 0.  0.
        -24    2    3    3    0    0  0.96715980174E+02 -0.22599103796E+02 -0.82756738482E+02  0.15132219509E+03  0.78644953113E+02 0.  0.
          6    2    1    2  501    0 -0.14615579222E+03 -0.22914088017E+02  0.17293545278E+03  0.28752315527E+03  0.17571659842E+03 0.  0.
         24    2    5    5    0    0 -0.92514422648E+01 -0.27387118632E+02  0.35905998961E+02  0.93714047503E+02  0.81593127695E+02 0.  0.
          5    1    5    5  501    0 -0.13690434996E+03  0.44730306151E+01  0.13702945382E+03  0.19380910777E+03  0.47000000000E+01 0. -1.
        -13    1    6    6    0    0 -0.22362553871E+01 -0.36411846327E+02  0.58184067129E+02  0.68674660966E+02  0.00000000000E+00 0.  1.
         14    1    6    6    0    0 -0.70151868777E+01  0.90247276955E+01 -0.22278068168E+02  0.25039386538E+02  0.00000000000E+00 0. -1.
         -5    1    3    3    0  503  0.49439812050E+02  0.45513191813E+02  0.40737996297E+02  0.78723693936E+02  0.47000000000E+01 0.  1.
         13    1    4    4    0    0 -0.91438508691E+01 -0.17655399686E+02 -0.71014689151E+01  0.21112887238E+02  0.00000000000E+00 0. -1.
        -14    1    4    4    0    0  0.10585983104E+03 -0.49437041105E+01 -0.75655269567E+02  0.13020930785E+03  0.00000000000E+00 0.  1.
</event>
<event>
12    1  0.8747122E-002  0.2367558E+03  0.7818608E-02  0.1122341E+00
         21   -1    0    0  501  502  0.00000000000E+00  0.00000000000E+00  0.33781021419E+03  0.33781021419E+03  0.00000000000E+00 0.  1.
         21   -1    0    0  502  503 -0.00000000000E+00 -0.00000000000E+00 -0.19932644223E+03  0.19932644223E+03  0.00000000000E+00 0. -1.
         -6    2    1    2    0  503  0.14853816586E+03  0.53586671512E+02 -0.43408653303E+02  0.23857650682E+03  0.17349155698E+03 0.  0.
        -24    2    3    3    0    0  0.82017262105E+02 -0.11450043980E+02 -0.78321362848E+02  0.13909890992E+03  0.79726633385E+02 0.  0.
          6    2    1    2  501    0 -0.14853816586E+03 -0.53586671512E+02  0.18189242527E+03  0.29856014959E+03  0.17640348771E+03 0.  0.
         24    2    5    5    0    0 -0.15619827193E+03  0.58844636201E+01  0.12083684761E+03  0.21285503480E+03  0.79203503918E+02 0.  0.
          5    1    5    5  501    0  0.76601060725E+01 -0.59471135132E+02  0.61055577660E+02  0.85705114796E+02  0.47000000000E+01 0. -1.
        -11    1    6    6    0    0 -0.12078562407E+03  0.35216761609E+02  0.10606514815E+03  0.16455759761E+03  0.00000000000E+00 0.  1.
         12    1    6    6    0    0 -0.35412647858E+02 -0.29332297989E+02  0.14771699461E+02  0.48297437184E+02  0.00000000000E+00 0. -1.
         -5    1    3    3    0  503  0.66520903753E+02  0.65036715492E+02  0.34912709545E+02  0.99477596905E+02  0.47000000000E+01 0.  1.
         11    1    4    4    0    0  0.70493860552E+02 -0.18651124365E+02 -0.15142293866E+02  0.74475082270E+02  0.00000000000E+00 0. -1.
        -12    1    4    4    0    0  0.11523401553E+02  0.72010803854E+01 -0.63179068982E+02  0.64623827646E+02  0.00000000000E+00 0.  1.
</event>
<event>
12    1  0.8747122E-002  0.2510412E+03  0.7818608E-02  0.1112851E+00
         21   -1    0    0  501  502  0.00000000000E+00  0.00000000000E+00  0.68460244169E+02  0.68460244169E+02  0.00000000000E+00 0.  1.
         21   -1    0    0  502  503 -0.00000000000E+00 -0.00000000000E+00 -0.11471745237E+04  0.11471745237E+04  0.00000000000E+00 0.  1.
         -6    2    1    2    0  503 -0.62041845542E+02  0.17069681313E+03 -0.81119413730E+03  0.84877140162E+03  0.17143620156E+03 0.  0.
        -24    2    3    3    0    0 -0.54127721414E+02  0.14441180725E+03 -0.40011416639E+03  0.43674911172E+03  0.82908745850E+02 0.  0.
          6    2    1    2  501    0  0.62041845542E+02 -0.17069681313E+03 -0.26752014225E+03  0.36686336627E+03  0.17330640609E+03 0.  0.
         24    2    5    5    0    0  0.65187614109E+02 -0.12148965841E+03 -0.89666864579E+02  0.18224181196E+03  0.78503307521E+02 0.  0.
          5    1    5    5  501    0 -0.31457685666E+01 -0.49207154721E+02 -0.17785327767E+03  0.18462155431E+03  0.47000000000E+01 0. -1.
        -11    1    6    6    0    0  0.64172600155E+02 -0.49849152403E+02 -0.23187260214E+02  0.84502719732E+02  0.00000000000E+00 0.  1.
         12    1    6    6    0    0  0.10150139540E+01 -0.71640506004E+02 -0.66479604365E+02  0.97739092232E+02  0.00000000000E+00 0. -1.
         -5    1    3    3    0  503 -0.79141241282E+01  0.26285005874E+02 -0.41107997091E+03  0.41202228990E+03  0.47000000000E+01 0.  1.
         13    1    4    4    0    0  0.15820933316E+02  0.29192623617E+02 -0.13883869398E+03  0.14275396369E+03  0.00000000000E+00 0. -1.
        -14    1    4    4    0    0 -0.69948654730E+02  0.11521918364E+03 -0.26127547242E+03  0.29399514803E+03  0.00000000000E+00 0.  1.
</event>
<event>
12    1  0.8747122E-002  0.2477801E+03  0.7818608E-02  0.1114797E+00
         21   -1    0    0  503  502  0.00000000000E+00  0.00000000000E+00  0.11814245904E+03  0.11814245904E+03  0.00000000000E+00 0.  1.
         21   -1    0    0  501  503 -0.00000000000E+00 -0.00000000000E+00 -0.55410376273E+03  0.55410376273E+03  0.00000000000E+00 0. -1.
          6    2    1    2  501    0  0.12437428670E+03  0.12634440214E+03 -0.13312011500E+03  0.28127552254E+03  0.17309847896E+03 0.  0.
         24    2    3    3    0    0  0.10490474802E+03  0.15288118103E+03 -0.14253858678E+03  0.24672033218E+03  0.78587606656E+02 0.  0.
         -6    2    1    2    0  502 -0.12437428670E+03 -0.12634440214E+03 -0.30284118868E+03  0.39097069922E+03  0.17237584211E+03 0.  0.
        -24    2    5    5    0    0 -0.48851391316E+02 -0.12933667549E+03 -0.25586402125E+03  0.30185501212E+03  0.80843162439E+02 0.  0.
          5    1    3    3  501    0  0.19469538682E+02 -0.26536778887E+02  0.94184717785E+01  0.34555190360E+02  0.47000000000E+01 0. -1.
        -11    1    4    4    0    0  0.72039996283E+02  0.81601691969E+02 -0.36532323411E+02  0.11481815122E+03  0.00000000000E+00 0.  1.
         12    1    4    4    0    0  0.32864751738E+02  0.71279489060E+02 -0.10600626337E+03  0.13190218096E+03  0.00000000000E+00 0. -1.
         -5    1    5    5    0  502 -0.75522895387E+02  0.29922733512E+01 -0.46977167438E+02  0.89115687104E+02  0.47000000000E+01 0.  1.
         13    1    6    6    0    0  0.12663142185E+02 -0.77791837645E+02 -0.14432999779E+03  0.16444778331E+03  0.00000000000E+00 0. -1.
        -14    1    6    6    0    0 -0.61514533500E+02 -0.51544837849E+02 -0.11153402345E+03  0.13740722881E+03  0.00000000000E+00 0.  1.
</event>
<event>
12    1  0.8747122E-002  0.1757163E+03  0.7818608E-02  0.1172182E+00
         21   -1    0    0  503  502  0.00000000000E+00  0.00000000000E+00  0.46095303665E+03  0.46095303665E+03  0.00000000000E+00 0. -1.
         21   -1    0    0  501  503 -0.00000000000E+00 -0.00000000000E+00 -0.66969977307E+02  0.66969977307E+02  0.00000000000E+00 0. -1.
          6    2    1    2  501    0  0.34416441978E+02  0.32853629198E+01  0.18075979671E+03  0.25162538022E+03  0.17159820155E+03 0.  0.
         24    2    3    3    0    0  0.65650856810E+01 -0.29179425994E+02  0.27092553457E+02  0.92046646624E+02  0.82728709953E+02 0.  0.
         -6    2    1    2    0  502 -0.34416441978E+02 -0.32853629198E+01  0.21322326263E+03  0.27629763374E+03  0.17228156487E+03 0.  0.
        -24    2    5    5    0    0 -0.84289404686E+02 -0.14152699351E+02  0.18119815408E+03  0.21585667918E+03  0.80351305290E+02 0.  0.
          5    1    3    3  501    0  0.27851356297E+02  0.32464788914E+02  0.15366724325E+03  0.15957873360E+03  0.47000000000E+01 0. -1.
        -11    1    4    4    0    0 -0.22425647960E+02 -0.33180692479E+02  0.42980219088E+02  0.58746636267E+02  0.00000000000E+00 0.  1.
         12    1    4    4    0    0  0.28990733641E+02  0.40012664852E+01 -0.15887665631E+02  0.33300010356E+02  0.00000000000E+00 0. -1.
         -5    1    5    5    0  502  0.49872962708E+02  0.10867336432E+02  0.32025108551E+02  0.60440954559E+02  0.47000000000E+01 0.  1.
         11    1    6    6    0    0 -0.66389242631E+02  0.27053736182E+02  0.99746528928E+02  0.12283650195E+03  0.00000000000E+00 0. -1.
        -12    1    6    6    0    0 -0.17900162055E+02 -0.41206435534E+02  0.81451625153E+02  0.93020177226E+02  0.00000000000E+00 0.  1.
</event>
<event>
12    1  0.8747122E-002  0.2088997E+03  0.7818608E-02  0.1142507E+00
         21   -1    0    0  501  502  0.00000000000E+00  0.00000000000E+00  0.14243917887E+03  0.14243917887E+03  0.00000000000E+00 0. -1.
         21   -1    0    0  502  503 -0.00000000000E+00 -0.00000000000E+00 -0.32274759513E+03  0.32274759513E+03  0.00000000000E+00 0. -1.
         -6    2    1    2    0  503 -0.62614154892E+02 -0.10056406472E+03 -0.14325508513E+03  0.25302638514E+03  0.17165858165E+03 0.  0.
        -24    2    3    3    0    0 -0.78875180071E+02 -0.67273427501E+01 -0.21083853575E+02  0.98050092918E+02  0.53877088526E+02 0.  0.
          6    2    1    2  501    0  0.62614154892E+02  0.10056406472E+03 -0.37053331126E+02  0.21216038887E+03  0.17206224964E+03 0.  0.
         24    2    5    5    0    0  0.60123237758E+02  0.64634916094E+02  0.41035832268E+02  0.12603770993E+03  0.80056784199E+02 0.  0.
          5    1    5    5  501    0  0.24909171337E+01  0.35929148623E+02 -0.78089163394E+02  0.86122678944E+02  0.47000000000E+01 0. -1.
        -13    1    6    6    0    0 -0.18094014588E+01  0.44065166570E+02  0.41814433921E+02  0.60773840776E+02  0.00000000000E+00 0.  1.
         14    1    6    6    0    0  0.61932639217E+02  0.20569749524E+02 -0.77860165309E+00  0.65263869150E+02  0.00000000000E+00 0. -1.
         -5    1    3    3    0  503  0.16261025179E+02 -0.93836721967E+02 -0.12217123156E+03  0.15497629222E+03  0.47000000000E+01 0.  1.
         13    1    4    4    0    0 -0.28898181162E+02  0.16795948112E+02  0.97145853754E+01  0.34807785286E+02  0.00000000000E+00 0. -1.
        -14    1    4    4    0    0 -0.49976998908E+02 -0.23523290862E+02 -0.30798438951E+02  0.63242307633E+02  0.00000000000E+00 0.  1.
</event>
<event>
12    1  0.8747122E-002  0.1795336E+03  0.7818608E-02  0.1168974E+00
         21   -1    0    0  503  502  0.00000000000E+00  0.00000000000E+00  0.74642355929E+03  0.74642355929E+03  0.00000000000E+00 0.  1.
         21   -1    0    0  501  503 -0.00000000000E+00 -0.00000000000E+00 -0.67550349097E+02  0.67550349097E+02  0.00000000000E+00 0.  1.
          6    2    1    2  501    0  0.46418422140E+02 -0.21339228187E+02  0.89737978542E+02  0.19809028888E+03  0.16904681358E+03 0.  0.
         24    2    3    3    0    0  0.74100723729E+02  0.18331104398E+02  0.98419495864E+02  0.14871920572E+03  0.81265357557E+02 0.  0.
         -6    2    1    2    0  502 -0.46418422140E+02  0.21339228187E+02  0.58913523165E+03  0.61588361951E+03  0.17211124030E+03 0.  0.
        -24    2    5    5    0    0 -0.43357383531E+02 -0.26707926152E+02  0.17177359105E+03  0.19572801972E+03  0.78804283467E+02 0.  0.
          5    1    3    3  501    0 -0.27682301590E+02 -0.39670332585E+02 -0.86815173218E+01  0.49371083153E+02  0.47000000000E+01 0. -1.
        -13    1    4    4    0    0  0.82648928549E+01 -0.88540223904E+01 -0.12174298935E+02  0.17173110404E+02  0.00000000000E+00 0.  1.
         14    1    4    4    0    0  0.65835830874E+02  0.27185126789E+02  0.11059379480E+03  0.13154609532E+03  0.00000000000E+00 0. -1.
         -5    1    5    5    0  502 -0.30610386089E+01  0.48047154339E+02  0.41736164059E+03  0.42015559979E+03  0.47000000000E+01 0.  1.
         11    1    6    6    0    0  0.71367017711E+01  0.19901205135E+02  0.19912128297E+02  0.29042784496E+02  0.00000000000E+00 0. -1.
        -12    1    6    6    0    0 -0.50494085302E+02 -0.46609131287E+02  0.15186146276E+03  0.16668523522E+03  0.00000000000E+00 0.  1.
</event>
<event>
12    1  0.8747122E-002  0.1818101E+03  0.7818608E-02  0.1166118E+00
         21   -1    0    0  503  502  0.00000000000E+00  0.00000000000E+00  0.51747321170E+03  0.51747321170E+03  0.00000000000E+00 0.  1.
         21   -1    0    0  501  503 -0.00000000000E+00 -0.00000000000E+00 -0.73377184375E+02  0.73377184375E+02  0.00000000000E+00 0.  1.
          6    2    1    2  501    0  0.24480421706E+01  0.60327666408E+02  0.32892608174E+03  0.37582880446E+03  0.17149199040E+03 0.  0.
         24    2    3    3    0    0  0.39495081247E+02  0.86494941120E+02  0.29253658381E+03  0.31748932444E+03  0.78616677497E+02 0.  0.
         -6    2    1    2    0  502 -0.24480421706E+01 -0.60327666408E+02  0.11516994559E+03  0.21502159161E+03  0.17124470284E+03 0.  0.
        -24    2    5    5    0    0  0.34409678568E+02  0.24519730302E+02  0.67261470379E+02  0.11073887827E+03  0.77160550858E+02 0.  0.
          5    1    3    3  501    0 -0.37047039076E+02 -0.26167274712E+02  0.36389497924E+02  0.58339480022E+02  0.47000000000E+01 0. -1.
        -13    1    4    4    0    0  0.48398037008E+00  0.75418236602E+02  0.13316769298E+03  0.15304175607E+03  0.00000000000E+00 0.  1.
         14    1    4    4    0    0  0.39011100877E+02  0.11076704518E+02  0.15936889084E+03  0.16444756836E+03  0.00000000000E+00 0. -1.
         -5    1    5    5    0  502 -0.36857720739E+02 -0.84847396710E+02  0.47908475208E+02  0.10428271335E+03  0.47000000000E+01 0.  1.
         11    1    6    6    0    0  0.40171265745E+02 -0.39051159558E+00  0.74084985432E+02  0.84276142279E+02  0.00000000000E+00 0. -1.
        -12    1    6    6    0    0 -0.57615871769E+01  0.24910241898E+02 -0.68235150535E+01  0.26462735987E+02  0.00000000000E+00 0.  1.
</event>
<event>
12    1  0.8747122E-002  0.2298039E+03  0.7818608E-02  0.1127346E+00
         21   -1    0    0  501  502  0.00000000000E+00  0.00000000000E+00  0.24617291549E+04  0.24617291549E+04  0.00000000000E+00 0.  1.
         21   -1    0    0  502  503 -0.00000000000E+00 -0.00000000000E+00 -0.26986295986E+02  0.26986295986E+02  0.00000000000E+00 0.  1.
         -6    2    1    2    0  503  0.14154687818E+03 -0.51200777022E+02  0.18025129410E+04  0.18171028374E+04  0.17364556086E+03 0.  0.
        -24    2    3    3    0    0  0.32094135824E+02 -0.67706971646E+02  0.11719184366E+04  0.11768498590E+04  0.77256075032E+02 0.  0.
          6    2    1    2  501    0 -0.14154687818E+03  0.51200777022E+02  0.63222991794E+03  0.67161261355E+03  0.16938652616E+03 0.  0.
         24    2    5    5    0    0 -0.16168838060E+03  0.17861553344E+02  0.44212861200E+03  0.47750496178E+03  0.77917337380E+02 0.  0.
          5    1    5    5  501    0  0.20141502415E+02  0.33339223678E+02  0.19010130594E+03  0.19410765177E+03  0.47000000000E+01 0. -1.
        -11    1    6    6    0    0 -0.88240553568E+02  0.37982596890E+02  0.17385477697E+03  0.19863171055E+03  0.00000000000E+00 0.  1.
         12    1    6    6    0    0 -0.73447827029E+02 -0.20121043546E+02  0.26827383502E+03  0.27887325122E+03  0.00000000000E+00 0. -1.
         -5    1    3    3    0  503  0.10945274236E+03  0.16506194624E+02  0.63059450441E+03  0.64025297833E+03  0.47000000000E+01 0.  1.
         13    1    4    4    0    0  0.33296617765E+02 -0.73655080282E+02  0.66492676881E+03  0.66982187445E+03  0.00000000000E+00 0. -1.
        -14    1    4    4    0    0 -0.12024819413E+01  0.59481086356E+01  0.50699166777E+03  0.50702798458E+03  0.00000000000E+00 0.  1.
</event>
<event>
12    1  0.8747122E-002  0.2682631E+03  0.7818608E-02  0.1102326E+00
         21   -1    0    0  501  502  0.00000000000E+00  0.00000000000E+00  0.52144165206E+03  0.52144165206E+03  0.00000000000E+00 0.  1.
         21   -1    0    0  502  503 -0.00000000000E+00 -0.00000000000E+00 -0.13839170917E+03  0.13839170917E+03  0.00000000000E+00 0.  1.
         -6    2    1    2    0  503  0.13182338801E+03 -0.15748861715E+03  0.17084731789E+03  0.31804698687E+03  0.17258334124E+03 0.  0.
        -24    2    3    3    0    0  0.14011924186E+03 -0.67977711446E+02  0.88389861523E+02  0.19597182338E+03  0.79610406024E+02 0.  0.
          6    2    1    2  501    0 -0.13182338801E+03  0.15748861715E+03  0.21220262500E+03  0.34178637436E+03  0.17206946704E+03 0.  0.
         24    2    5    5    0    0 -0.12355143794E+03  0.15824040561E+03  0.23382275318E+03  0.31815355213E+03  0.79016574488E+02 0.  0.
          5    1    5    5  501    0 -0.82719500660E+01 -0.75178846452E+00 -0.21620128183E+02  0.23632822228E+02  0.47000000000E+01 0. -1.
        -11    1    6    6    0    0 -0.42595230275E+02  0.67167917224E+02  0.15146964347E+03  0.17108166366E+03  0.00000000000E+00 0.  1.
         12    1    6    6    0    0 -0.80956207665E+02  0.91072488389E+02  0.82353109712E+02  0.14707188848E+03  0.00000000000E+00 0. -1.
         -5    1    3    3    0  503 -0.82958538531E+01 -0.89510905701E+02  0.82457456365E+02  0.12207516349E+03  0.47000000000E+01 0.  1.
         11    1    4    4    0    0 -0.88832894380E+01 -0.94018351448E+01  0.15125845606E+02  0.19902224514E+02  0.00000000000E+00 0. -1.
        -12    1    4    4    0    0  0.14900253130E+03 -0.58575876302E+02  0.73264015917E+02  0.17606959887E+03  0.00000000000E+00 0.  1.
</event>
<event>
12    1  0.8747122E-002  0.2203005E+03  0.7818608E-02  0.1133924E+00
         21   -1    0    0  501  502  0.00000000000E+00  0.00000000000E+00  0.10441207271E+03  0.10441207271E+03  0.00000000000E+00 0.  1.
         21   -1    0    0  502  503 -0.00000000000E+00 -0.00000000000E+00 -0.13011328473E+04  0.13011328473E+04  0.00000000000E+00 0.  1.
         -6    2    1    2    0  503 -0.85740328861E+02  0.10488745637E+03 -0.11634813070E+04  0.11841541468E+04  0.17372250595E+03 0.  0.
        -24    2    3    3    0    0 -0.60568444749E+02  0.56283297857E+02 -0.36231215367E+03  0.38110365632E+03  0.84460369644E+02 0.  0.
          6    2    1    2  501    0  0.85740328861E+02 -0.10488745637E+03 -0.33239467500E+02  0.22139077315E+03  0.17191925355E+03 0.  0.
         24    2    5    5    0    0  0.38954027223E+02 -0.13549075825E+03 -0.25700167191E+02  0.16478290130E+03  0.81349518490E+02 0.  0.
          5    1    5    5  501    0  0.46786301638E+02  0.30603301881E+02 -0.75393003090E+01  0.56607871856E+02  0.47000000000E+01 0. -1.
        -13    1    6    6    0    0  0.53591552663E+02 -0.97035225621E+02 -0.44620454704E+02  0.11949424466E+03  0.00000000000E+00 0.  1.
         14    1    6    6    0    0 -0.14637525440E+02 -0.38455532628E+02  0.18920287513E+02  0.45288656641E+02  0.00000000000E+00 0. -1.
         -5    1    3    3    0  503 -0.25171884112E+02  0.48604158512E+02 -0.80116915337E+03  0.80305049050E+03  0.47000000000E+01 0.  1.
         13    1    4    4    0    0  0.14485892129E+02 -0.79662965280E+01 -0.88057089410E+02  0.89595501821E+02  0.00000000000E+00 0. -1.
        -14    1    4    4    0    0 -0.75054336877E+02  0.64249594385E+02 -0.27425506426E+03  0.29150815449E+03  0.00000000000E+00 0.  1.
</event>
<event>
12    1  0.8747122E-002  0.3074701E+03  0.7818608E-02  0.1081645E+00
         21   -1    0    0  501  502  0.00000000000E+00  0.00000000000E+00  0.17047332232E+04  0.17047332232E+04  0.00000000000E+00 0. -1.
         21   -1    0    0  502  503 -0.00000000000E+00 -0.00000000000E+00 -0.60712331934E+02  0.60712331934E+02  0.00000000000E+00 0. -1.
         -6    2    1    2    0  503 -0.24930022124E+03  0.50330113269E+02  0.10854594498E+04  0.11281666989E+04  0.17278357226E+03 0.  0.
        -24    2    3    3    0    0 -0.23951050758E+03  0.25536594146E+02  0.75250877132E+03  0.79411759869E+03  0.79598421785E+02 0.  0.
          6    2    1    2  501    0  0.24930022124E+03 -0.50330113269E+02  0.55856144150E+03  0.63727885622E+03  0.17160925396E+03 0.  0.
         24    2    5    5    0    0  0.14630128708E+03  0.27028565087E+02  0.39159409163E+03  0.42634443163E+03  0.79303416390E+02 0.  0.
          5    1    5    5  501    0  0.10299893416E+03 -0.77358678356E+02  0.16696734987E+03  0.21093442459E+03  0.47000000000E+01 0. -1.
        -11    1    6    6    0    0 -0.83343052227E+01  0.51610980688E+01  0.98826757806E+01  0.13919944591E+02  0.00000000000E+00 0.  1.
         12    1    6    6    0    0  0.15463559230E+03  0.21867467018E+02  0.38171141585E+03  0.41242448704E+03  0.00000000000E+00 0. -1.
         -5    1    3    3    0  503 -0.97897136592E+01  0.24793519123E+02  0.33295067848E+03  0.33404910026E+03  0.47000000000E+01 0.  1.
         13    1    4    4    0    0 -0.34923834500E+02  0.24941994936E+02  0.20940851941E+03  0.21376086014E+03  0.00000000000E+00 0. -1.
        -14    1    4    4    0    0 -0.20458667308E+03  0.59459921019E+00  0.54310025191E+03  0.58035673854E+03  0.00000000000E+00 0.  1.
</event>
<event>
12    1  0.8747122E-002  0.1776470E+03  0.7818608E-02  0.1170169E+00
         21   -1    0    0  501  502  0.00000000000E+00  0.00000000000E+00  0.60785206678E+02  0.60785206678E+02  0.00000000000E+00 0. -1.
         21   -1    0    0  502  503 -0.00000000000E+00 -0.00000000000E+00 -0.61896833304E+03  0.61896833304E+03  0.00000000000E+00 0. -1.
         -6    2    1    2    0  503 -0.23646258501E+02 -0.35455260257E+02 -0.41629893325E+03  0.45261823106E+03  0.17245938721E+03 0.  0.
        -24    2    3    3    0    0 -0.41528983169E+01  0.25674471219E+02 -0.35688145999E+03  0.36504334145E+03  0.72220769950E+02 0.  0.
          6    2    1    2  501    0  0.23646258501E+02  0.35455260257E+02 -0.14188419311E+03  0.22713530866E+03  0.17217172580E+03 0.  0.
         24    2    5    5    0    0 -0.42075880452E+02  0.25179233393E+02 -0.12839584862E+03  0.15909839431E+03  0.80140074999E+02 0.  0.
          5    1    5    5  501    0  0.65722138953E+02  0.10276026864E+02 -0.13488344492E+02  0.68036914346E+02  0.47000000000E+01 0. -1.
        -11    1    6    6    0    0 -0.11737321519E+02 -0.28404657638E+02 -0.57471224058E+02  0.65173084066E+02  0.00000000000E+00 0.  1.
         12    1    6    6    0    0 -0.30338558932E+02  0.53583891031E+02 -0.70924624560E+02  0.93925310248E+02  0.00000000000E+00 0. -1.
         -5    1    3    3    0  503 -0.19493360184E+02 -0.61129731477E+02 -0.59417473262E+02  0.87574889612E+02  0.47000000000E+01 0.  1.
         13    1    4    4    0    0  0.45159576091E+01  0.39010114908E+02 -0.96612495446E+02  0.10428881635E+03  0.00000000000E+00 0. -1.
        -14    1    4    4    0    0 -0.86688559260E+01 -0.13335643689E+02 -0.26026896455E+03  0.26075452510E+03  0.00000000000E+00 0.  1.
</event>
<event>
12    1  0.8747122E-002  0.1863598E+03  0.7818608E-02  0.1162118E+00
         21   -1    0    0  501  502  0.00000000000E+00  0.00000000000E+00  0.24700352235E+03  0.24700352235E+03  0.00000000000E+00 0. -1.
         21   -1    0    0  502  503 -0.00000000000E+00 -0.00000000000E+00 -0.34419491776E+03  0.34419491776E+03  0.00000000000E+00 0. -1.
         -6    2    1    2    0  503 -0.71415091056E+02 -0.76066467104E+00 -0.27646044545E+03  0.33261118729E+03  0.17058467156E+03 0.  0.
        -24    2    3    3    0    0 -0.10222377282E+02  0.45702335969E+02 -0.82249324709E+02  0.12370113950E+03  0.79648100977E+02 0.  0.
          6    2    1    2  501    0  0.71415091056E+02  0.76066467104E+00  0.17926905004E+03  0.25858725282E+03  0.17213158100E+03 0.  0.
         24    2    5    5    0    0  0.18429146866E+02  0.22674029139E+02  0.44654806644E+02  0.11219466302E+03  0.98690656103E+02 0.  0.
          5    1    5    5  501    0  0.52985944190E+02 -0.21913364468E+02  0.13461424340E+03  0.14639258980E+03  0.47000000000E+01 0. -1.
        -13    1    6    6    0    0  0.27458371675E+02 -0.20752469482E+02  0.56614097308E+02  0.66255438861E+02  0.00000000000E+00 0.  1.
         14    1    6    6    0    0 -0.90292248094E+01  0.43426498621E+02 -0.11959290664E+02  0.45939224159E+02  0.00000000000E+00 0. -1.
         -5    1    3    3    0  503 -0.61192713774E+02 -0.46463000641E+02 -0.19421112074E+03  0.20891004779E+03  0.47000000000E+01 0.  1.
         13    1    4    4    0    0  0.29994387963E+02 -0.99475703103E+00 -0.19742624333E+02  0.35922472999E+02  0.00000000000E+00 0. -1.
        -14    1    4    4    0    0 -0.40216765245E+02  0.46697093001E+02 -0.62506700377E+02  0.87778666505E+02  0.00000000000E+00 0.  1.
</event>
<event>
12    1  0.8747122E-002  0.1901260E+03  0.7818608E-02  0.1158471E+00
         21   -1    0    0  501  502  0.00000000000E+00  0.00000000000E+00  0.59865929567E+03  0.59865929567E+03  0.00000000000E+00 0.  1.
         21   -1    0    0  502  503 -0.00000000000E+00 -0.00000000000E+00 -0.66034888514E+02  0.66034888514E+02  0.00000000000E+00 0.  1.
         -6    2    1    2    0  503  0.77870249192E+01 -0.78749438146E+02  0.16793609988E+03  0.25367387749E+03  0.17287507257E+03 0.  0.
        -24    2    3    3    0    0  0.39203155297E+02 -0.68766381643E+02  0.18474764907E+03  0.21637303499E+03  0.80124239821E+02 0.  0.
          6    2    1    2  501    0 -0.77870249192E+01  0.78749438146E+02  0.36468830728E+03  0.41102030669E+03  0.17227309506E+03 0.  0.
         24    2    5    5    0    0 -0.39650832105E+01  0.89579176782E+02  0.37562493902E+03  0.39447973865E+03  0.80498562689E+02 0.  0.
          5    1    5    5  501    0 -0.38219417088E+01 -0.10829738636E+02 -0.10936631739E+02  0.16540568042E+02  0.47000000000E+01 0. -1.
        -13    1    6    6    0    0 -0.38956588754E+02  0.23251316049E+02  0.13248333009E+03  0.14003596772E+03  0.00000000000E+00 0.  1.
         14    1    6    6    0    0  0.34991505543E+02  0.66327860733E+02  0.24314160893E+03  0.25444377092E+03  0.00000000000E+00 0. -1.
         -5    1    3    3    0  503 -0.31416130377E+02 -0.99830565026E+01 -0.16811549190E+02  0.37300842500E+02  0.47000000000E+01 0.  1.
         13    1    4    4    0    0  0.34652209655E+01 -0.29466689818E+02  0.14998145316E+03  0.15288796505E+03  0.00000000000E+00 0. -1.
        -14    1    4    4    0    0  0.35737934331E+02 -0.39299691825E+02  0.34766195906E+02  0.63485069942E+02  0.00000000000E+00 0.  1.
</event>
<event>
12    1  0.8747122E-002  0.1904898E+03  0.7818608E-02  0.1158090E+00
         21   -1    0    0  501  502  0.00000000000E+00  0.00000000000E+00  0.42538566016E+03  0.42538566016E+03  0.00000000000E+00 0. -1.
         21   -1    0    0  502  503 -0.00000000000E+00 -0.00000000000E+00 -0.97341280342E+02  0.97341280342E+02  0.00000000000E+00 0. -1.
         -6    2    1    2    0  503 -0.64589988244E+02  0.50988800383E+02  0.71695451744E+02  0.20353527480E+03  0.17179827106E+03 0.  0.
        -24    2    3    3    0    0  0.26323595091E+02  0.50770002220E+02  0.39393732531E+02  0.10693911249E+03  0.81323937648E+02 0.  0.
          6    2    1    2  501    0  0.64589988244E+02 -0.50988800383E+02  0.25634892807E+03  0.31919166570E+03  0.17145501505E+03 0.  0.
         24    2    5    5    0    0  0.38697364712E+02  0.38574403062E+02  0.12224769578E+03  0.15579880825E+03  0.79644829845E+02 0.  0.
          5    1    5    5  501    0  0.25892623531E+02 -0.89563203445E+02  0.13410123229E+03  0.16339285745E+03  0.47000000000E+01 0. -1.
        -11    1    6    6    0    0  0.18155973091E+01  0.73019069878E+01 -0.11407377852E+02  0.13665376274E+02  0.00000000000E+00 0.  1.
         12    1    6    6    0    0  0.36881767403E+02  0.31272496074E+02  0.13365507363E+03  0.14213343197E+03  0.00000000000E+00 0. -1.
         -5    1    3    3    0  503 -0.90913583335E+02  0.21879816282E+00  0.32301719213E+02  0.96596162302E+02  0.47000000000E+01 0.  1.
         13    1    4    4    0    0  0.25029689660E+02  0.65295768612E+02  0.56233233860E+01  0.70154433424E+02  0.00000000000E+00 0. -1.
        -14    1    4    4    0    0  0.12939054311E+01 -0.14525766392E+02  0.33770409145E+02  0.36784679071E+02  0.00000000000E+00 0.  1.
</event>
<event>
12    1  0.8747122E-002  0.1851206E+03  0.7818608E-02  0.1163211E+00
         21   -1    0    0  501  502  0.00000000000E+00  0.00000000000E+00  0.47154827864E+03  0.47154827864E+03  0.00000000000E+00 0. -1.
         21   -1    0    0  502  503 -0.00000000000E+00 -0.00000000000E+00 -0.24609300309E+03  0.24609300309E+03  0.00000000000E+00 0. -1.
         -6    2    1    2    0  503  0.67276179327E+02 -0.17767485763E+02 -0.18898940881E+03  0.26373156331E+03  0.17028086501E+03 0.  0.
        -24    2    3    3    0    0  0.76788080770E+02 -0.47398169315E+02 -0.19745953168E+03  0.23113882396E+03  0.79321456656E+02 0.  0.
          6    2    1    2  501    0 -0.67276179327E+02  0.17767485763E+02  0.41444468436E+03  0.45390971843E+03  0.17154552818E+03 0.  0.
         24    2    5    5    0    0 -0.95028173257E+02  0.94594785346E+01  0.18321285445E+03  0.22082294207E+03  0.77948612962E+02 0.  0.
          5    1    5    5  501    0  0.27751993930E+02  0.83080072284E+01  0.23123182991E+03  0.23308677636E+03  0.47000000000E+01 0. -1.
        -11    1    6    6    0    0 -0.34923552604E+02 -0.20811778350E+02  0.22219954914E+02  0.46330454788E+02  0.00000000000E+00 0.  1.
         12    1    6    6    0    0 -0.60104620654E+02  0.30271256884E+02  0.16099289953E+03  0.17449248728E+03  0.00000000000E+00 0. -1.
         -5    1    3    3    0  503 -0.95119014431E+01  0.29630683552E+02  0.84701228738E+01  0.32592739350E+02  0.47000000000E+01 0.  1.
         13    1    4    4    0    0 -0.13225630755E+02 -0.13779467118E+02 -0.63303769603E+02  0.66122297819E+02  0.00000000000E+00 0. -1.
        -14    1    4    4    0    0  0.90013711526E+02 -0.33618702197E+02 -0.13415576208E+03  0.16501652614E+03  0.00000000000E+00 0.  1.
</event>
<event>
12    1  0.8747122E-002  0.5435523E+03  0.7818608E-02  0.1003028E+00
         21   -1    0    0  503  502  0.00000000000E+00  0.00000000000E+00  0.17214675400E+04  0.17214675400E+04  0.00000000000E+00 0. -1.
         21   -1    0    0  501  503 -0.00000000000E+00 -0.00000000000E+00 -0.55333797965E+03  0.55333797965E+03  0.00000000000E+00 0.  1.
          6    2    1    2  501    0  0.24756074996E+03 -0.45228418338E+03 -0.36090851516E+03  0.65202809649E+03  0.17040649883E+03 0.  0.
         24    2    3    3    0    0  0.24475790631E+03 -0.45532392683E+03 -0.32615482124E+03  0.61671513550E+03  0.82062658319E+02 0.  0.
         -6    2    1    2    0  502 -0.24756074996E+03  0.45228418338E+03  0.15290380755E+04  0.16227774231E+04  0.17205179828E+03 0.  0.
        -24    2    5    5    0    0 -0.25770410930E+03  0.45716488331E+03  0.15033161491E+04  0.15943096086E+04  0.80327736524E+02 0.  0.
          5    1    3    3  501    0  0.28028436438E+01  0.30397434536E+01 -0.34753693915E+02  0.35312960984E+02  0.47000000000E+01 0. -1.
        -11    1    4    4    0    0  0.10030368799E+03 -0.22621039379E+03 -0.19880185556E+03  0.31741794193E+03  0.00000000000E+00 0.  1.
         12    1    4    4    0    0  0.14445421832E+03 -0.22911353304E+03 -0.12735296568E+03  0.29929719357E+03  0.00000000000E+00 0. -1.
         -5    1    5    5    0  502  0.10143359347E+02 -0.48806999297E+01  0.25721926349E+02  0.28467814559E+02  0.47000000000E+01 0.  1.
         13    1    6    6    0    0 -0.13718952555E+03  0.16562792311E+03  0.63914465356E+03  0.67435855671E+03  0.00000000000E+00 0. -1.
        -14    1    6    6    0    0 -0.12051458376E+03  0.29153696020E+03  0.86417149556E+03  0.91995105185E+03  0.00000000000E+00 0.  1.
</event>
<event>
12    1  0.8747122E-002  0.1792397E+03  0.7818608E-02  0.1168581E+00
         21   -1    0    0  501  502  0.00000000000E+00  0.00000000000E+00  0.11664815315E+04  0.11664815315E+04  0.00000000000E+00 0. -1.
         21   -1    0    0  502  503 -0.00000000000E+00 -0.00000000000E+00 -0.58023411958E+02  0.58023411958E+02  0.00000000000E+00 0. -1.
         -6    2    1    2    0  503 -0.29333218942E+02  0.41432766274E+02  0.11016223469E+03  0.21024582882E+03  0.17172792065E+03 0.  0.
        -24    2    3    3    0    0  0.14043065892E+02 -0.30456510728E+01 -0.34937415186E+01  0.80632547778E+02  0.79264858804E+02 0.  0.
          6    2    1    2  501    0  0.29333218942E+02 -0.41432766274E+02  0.99829588487E+03  0.10142591147E+04  0.17190045390E+03 0.  0.
         24    2    5    5    0    0  0.80777468920E+02 -0.44415371266E+02  0.80284414312E+03  0.81207385273E+03  0.80046857801E+02 0.  0.
          5    1    5    5  501    0 -0.51444249978E+02  0.29826049924E+01  0.19545174175E+03  0.20218526193E+03  0.47000000000E+01 0. -1.
        -13    1    6    6    0    0  0.21303735296E+01 -0.27032937213E+02  0.74351689278E+02  0.79142225672E+02  0.00000000000E+00 0.  1.
         14    1    6    6    0    0  0.78647095390E+02 -0.17382434053E+02  0.72849245385E+03  0.73293162706E+03  0.00000000000E+00 0. -1.
         -5    1    3    3    0  503 -0.43376284834E+02  0.44478417347E+02  0.11365597621E+03  0.12961328105E+03  0.47000000000E+01 0.  1.
         11    1    4    4    0    0 -0.28075136328E+02  0.12047320691E+02 -0.15571400660E+02  0.34290227969E+02  0.00000000000E+00 0. -1.
        -12    1    4    4    0    0  0.42118202220E+02 -0.15092971764E+02  0.12077659141E+02  0.46342319808E+02  0.00000000000E+00 0.  1.
</event>
<event>
12    1  0.8747122E-002  0.1824995E+03  0.7818608E-02  0.1165856E+00
         21   -1    0    0  503  502  0.00000000000E+00  0.00000000000E+00  0.16215630240E+03  0.16215630240E+03  0.00000000000E+00 0. -1.
         21   -1    0    0  501  503 -0.00000000000E+00 -0.00000000000E+00 -0.27132524888E+03  0.27132524888E+03  0.00000000000E+00 0. -1.
          6    2    1    2  501    0  0.19499293904E+02 -0.50447131566E+02 -0.16333678040E+03  0.24491825887E+03  0.17430121672E+03 0.  0.
         24    2    3    3    0    0 -0.99318516257E+01 -0.13384349652E+02 -0.78744081477E+01  0.82343718070E+02  0.80253966317E+02 0.  0.
         -6    2    1    2    0  502 -0.19499293904E+02  0.50447131566E+02  0.54167833920E+02  0.18856329241E+03  0.17232766890E+03 0.  0.
        -24    2    5    5    0    0 -0.22317855020E+02  0.85276270632E+02 -0.53816990621E+01  0.11935888437E+03  0.80296024851E+02 0.  0.
          5    1    3    3  501    0  0.29431145530E+02 -0.37062781914E+02 -0.15546237225E+03  0.16257454080E+03  0.47000000000E+01 0. -1.
        -13    1    4    4    0    0  0.19638531252E+02  0.95108723924E+01  0.24550909176E+02  0.32846243998E+02  0.00000000000E+00 0.  1.
         14    1    4    4    0    0 -0.29570382877E+02 -0.22895222044E+02 -0.32425317324E+02  0.49497474072E+02  0.00000000000E+00 0. -1.
         -5    1    5    5    0  502  0.28185611158E+01 -0.34829139066E+02  0.59549532982E+02  0.69204408048E+02  0.47000000000E+01 0.  1.
         13    1    6    6    0    0  0.15767561847E+02  0.46277176686E+02  0.27106132678E+02  0.55901122684E+02  0.00000000000E+00 0. -1.
        -14    1    6    6    0    0 -0.38085416867E+02  0.38999093946E+02 -0.32487831740E+02  0.63457761682E+02  0.00000000000E+00 0.  1.
</event>
<event>
12    1  0.8747122E-002  0.3228898E+03  0.7818608E-02  0.1074364E+00
         21   -1    0    0  503  502  0.00000000000E+00  0.00000000000E+00  0.13295455961E+04  0.13295455961E+04  0.00000000000E+00 0.  1.
         21   -1    0    0  501  503 -0.00000000000E+00 -0.00000000000E+00 -0.22373303499E+03  0.22373303499E+03  0.00000000000E+00 0. -1.
          6    2    1    2  501    0 -0.49849943160E+02 -0.26809250315E+03 -0.73274118435E+02  0.33077987778E+03  0.17230096933E+03 0.  0.
         24    2    3    3    0    0  0.23613853002E+02 -0.94486472607E+02 -0.63212959287E+02  0.14194317555E+03  0.81649735474E+02 0.  0.
         -6    2    1    2    0  502  0.49849943160E+02  0.26809250315E+03  0.11790866796E+04  0.12224987533E+04  0.17291384233E+03 0.  0.
        -24    2    5    5    0    0  0.59777651382E+02  0.28432797691E+03  0.10683512049E+04  0.11100417155E+04  0.80015918155E+02 0.  0.
          5    1    3    3  501    0 -0.73463796162E+02 -0.17360603054E+03 -0.10061159149E+02  0.18883670223E+03  0.47000000000E+01 0. -1.
        -11    1    4    4    0    0  0.16704491989E+02 -0.81739964915E+02 -0.68103660289E+01  0.83706887425E+02  0.00000000000E+00 0.  1.
         12    1    4    4    0    0  0.69093610129E+01 -0.12746507693E+02 -0.56402593258E+02  0.58236288121E+02  0.00000000000E+00 0. -1.
         -5    1    5    5    0  502 -0.99277082215E+01 -0.16235473756E+02  0.11073547471E+03  0.11245703783E+03  0.47000000000E+01 0.  1.
         11    1    6    6    0    0  0.39854250513E+02  0.48008852665E+02  0.17680909110E+03  0.18749577572E+03  0.00000000000E+00 0. -1.
        -12    1    6    6    0    0  0.19923400869E+02  0.23631912424E+03  0.89154211375E+03  0.92254593977E+03  0.00000000000E+00 0.  1.
</event>
<event>
12    1  0.8747122E-002  0.2056591E+03  0.7818608E-02  0.1145231E+00
         21   -1    0    0  501  502  0.00000000000E+00  0.00000000000E+00  0.88571304545E+02  0.88571304545E+02  0.00000000000E+00 0.  1.
         21   -1    0    0  502  503 -0.00000000000E+00 -0.00000000000E+00 -0.99071171443E+03  0.99071171443E+03  0.00000000000E+00 0.  1.
         -6    2    1    2    0  503  0.11185089342E+03  0.13529446723E+01 -0.84070404374E+03  0.86549347368E+03  0.17257813014E+03 0.  0.
        -24    2    3    3    0    0  0.69733650687E+02  0.67808099766E+02 -0.48814986804E+03  0.50423638160E+03  0.80643130078E+02 0.  0.
          6    2    1    2  501    0 -0.11185089342E+03 -0.13529446723E+01 -0.61436366141E+02  0.21378954529E+03  0.17151993987E+03 0.  0.
         24    2    5    5    0    0 -0.55900267069E+02  0.54064763816E+02 -0.76505632595E+02  0.13347287334E+03  0.76902909913E+02 0.  0.
          5    1    5    5  501    0 -0.55950626347E+02 -0.55417708488E+02  0.15069266453E+02  0.80316671956E+02  0.47000000000E+01 0. -1.
        -11    1    6    6    0    0  0.82315453997E+01 -0.12200367960E+02 -0.18675339023E+01  0.14835599109E+02  0.00000000000E+00 0.  1.
         12    1    6    6    0    0 -0.64131812469E+02  0.66265131776E+02 -0.74638098692E+02  0.11863727423E+03  0.00000000000E+00 0. -1.
         -5    1    3    3    0  503  0.42117242729E+02 -0.66455155094E+02 -0.35255417571E+03  0.36125709208E+03  0.47000000000E+01 0.  1.
         11    1    4    4    0    0 -0.17643321081E+02  0.95510185957E+01 -0.10799458733E+03  0.10984233987E+03  0.00000000000E+00 0. -1.
        -12    1    4    4    0    0  0.87376971768E+02  0.58257081170E+02 -0.38015528070E+03  0.39439404173E+03  0.00000000000E+00 0.  1.
</event>
<event>
12    1  0.8747122E-002  0.1909065E+03  0.7818608E-02  0.1160459E+00
         21   -1    0    0  501  502  0.00000000000E+00  0.00000000000E+00  0.58994628115E+03  0.58994628115E+03  0.00000000000E+00 0.  1.
         21   -1    0    0  502  503 -0.00000000000E+00 -0.00000000000E+00 -0.84222879505E+02  0.84222879505E+02  0.00000000000E+00 0.  1.
         -6    2    1    2    0  503  0.72678930707E+02 -0.38614958922E+02  0.44687503131E+03  0.48594503255E+03  0.17225544704E+03 0.  0.
        -24    2    3    3    0    0  0.31472183427E+02  0.86495836791E+01  0.39787654884E+03  0.40622756713E+03  0.75164982244E+02 0.  0.
          6    2    1    2  501    0 -0.72678930707E+02  0.38614958922E+02  0.58848370339E+02  0.18822412810E+03  0.15871940552E+03 0.  0.
         24    2    5    5    0    0 -0.28797321025E+02 -0.31415860955E+02  0.53049606066E+02  0.10524444946E+03  0.80286309047E+02 0.  0.
          5    1    5    5  501    0 -0.43881609682E+02  0.70030819877E+02  0.57987642734E+01  0.82979678645E+02  0.47000000000E+01 0. -1.
        -13    1    6    6    0    0 -0.46548035247E+02  0.12107826766E+01  0.49457908625E+02  0.67928420456E+02  0.00000000000E+00 0.  1.
         14    1    6    6    0    0  0.17750714222E+02 -0.32626643632E+02  0.35916974410E+01  0.37316029003E+02  0.00000000000E+00 0. -1.
         -5    1    3    3    0  503  0.41206747279E+02 -0.47264542601E+02  0.48998482469E+02  0.79717465420E+02  0.47000000000E+01 0.  1.
         11    1    4    4    0    0  0.34561572470E+02  0.43801609603E+01  0.68881782397E+02  0.77190595592E+02  0.00000000000E+00 0. -1.
        -12    1    4    4    0    0 -0.30893890430E+01  0.42694227187E+01  0.32899476644E+03  0.32903697154E+03  0.00000000000E+00 0.  1.
</event>
<event>
12    1  0.8747122E-002  0.2062217E+03  0.7818608E-02  0.1144624E+00
         21   -1    0    0  501  502  0.00000000000E+00  0.00000000000E+00  0.24034912925E+04  0.24034912925E+04  0.00000000000E+00 0.  1.
         21   -1    0    0  502  503 -0.00000000000E+00 -0.00000000000E+00 -0.65426877721E+02  0.65426877721E+02  0.00000000000E+00 0. -1.
         -6    2    1    2    0  503  0.10178022426E+03  0.53763220220E+02  0.11459980251E+03  0.23592481642E+03  0.17110729490E+03 0.  0.
        -24    2    3    3    0    0  0.78883031482E+02  0.82934066911E+02  0.13404663701E+03  0.19378826333E+03  0.80528243503E+02 0.  0.
          6    2    1    2  501    0 -0.10178022426E+03 -0.53763220220E+02  0.22234646123E+04  0.22329933538E+04  0.17092319392E+03 0.  0.
         24    2    5    5    0    0 -0.29769803956E+02 -0.80088066443E+02  0.97072658608E+03  0.97790246051E+03  0.81748258336E+02 0.  0.
          5    1    5    5  501    0 -0.72010420300E+02  0.26324846223E+02  0.12527380262E+04  0.12550908933E+04  0.47000000000E+01 0. -1.
        -13    1    6    6    0    0  0.18947853435E+02 -0.63352925591E+02  0.59435998317E+03  0.59802709297E+03  0.00000000000E+00 0.  1.
         14    1    6    6    0    0 -0.48717657392E+02 -0.16735140852E+02  0.37636660291E+03  0.37987536754E+03  0.00000000000E+00 0. -1.
         -5    1    3    3    0  503  0.22897192774E+02 -0.29170846691E+02 -0.19446834502E+02  0.42136553083E+02  0.47000000000E+01 0.  1.
         11    1    4    4    0    0  0.27182255007E+02  0.26555157527E+02 -0.16271365678E+01  0.38035495947E+02  0.00000000000E+00 0. -1.
        -12    1    4    4    0    0  0.51700776475E+02  0.56378909383E+02  0.13567377358E+03  0.15575276739E+03  0.00000000000E+00 0.  1.
</event>
<event>
12    1  0.8747122E-002  0.2150601E+03  0.7818608E-02  0.1138247E+00
         21   -1    0    0  503  502  0.00000000000E+00  0.00000000000E+00  0.15355460687E+03  0.15355460687E+03  0.00000000000E+00 0.  1.
         21   -1    0    0  501  503 -0.00000000000E+00 -0.00000000000E+00 -0.31140501508E+03  0.31140501508E+03  0.00000000000E+00 0.  1.
          6    2    1    2  501    0 -0.69978541528E+02  0.10091748599E+03 -0.12889854605E+03  0.24795952835E+03  0.17259130126E+03 0.  0.
         24    2    3    3    0    0 -0.58514532099E+02 -0.72250199825E+01 -0.83852839485E+02  0.13015702077E+03  0.80208478270E+02 0.  0.
         -6    2    1    2    0  502  0.69978541528E+02 -0.10091748599E+03 -0.28951862166E+02  0.21700009360E+03  0.17654884606E+03 0.  0.
        -24    2    5    5    0    0  0.11859401492E+02 -0.10921164751E+03 -0.61384350559E+02  0.14976480631E+03  0.81201166006E+02 0.  0.
          5    1    3    3  501    0 -0.11464009429E+02  0.10814250598E+03 -0.45045706564E+02  0.11780250758E+03  0.47000000000E+01 0. -1.
        -13    1    4    4    0    0 -0.59729186608E+02  0.25420423224E+02 -0.67412579487E+02  0.93585412981E+02  0.00000000000E+00 0.  1.
         14    1    4    4    0    0  0.12146545089E+01 -0.32645443207E+02 -0.16440259998E+02  0.36571607793E+02  0.00000000000E+00 0. -1.
         -5    1    5    5    0  502  0.58119140036E+02  0.82941615106E+01  0.32432488393E+02  0.67235287291E+02  0.47000000000E+01 0.  1.
         13    1    6    6    0    0 -0.13414816800E+02 -0.10404787508E+02  0.14753045977E+02  0.22491537930E+02  0.00000000000E+00 0. -1.
        -14    1    6    6    0    0  0.25274218292E+02 -0.98806859997E+02 -0.76137396536E+02  0.12727326838E+03  0.00000000000E+00 0.  1.
</event>
<event>
12    1  0.8747122E-002  0.1756971E+03  0.7818608E-02  0.1172531E+00
         21   -1    0    0  503  502  0.00000000000E+00  0.00000000000E+00  0.35570280592E+02  0.35570280592E+02  0.00000000000E+00 0. -1.
         21   -1    0    0  501  503 -0.00000000000E+00 -0.00000000000E+00 -0.11300573969E+04  0.11300573969E+04  0.00000000000E+00 0. -1.
          6    2    1    2  501    0  0.12349675112E+02  0.29921112416E+02 -0.83551432726E+03  0.85378782458E+03  0.17268952167E+03 0.  0.
         24    2    3    3    0    0  0.29846532997E+02  0.11196084863E+02 -0.20854204773E+03  0.22627440162E+03  0.81817793350E+02 0.  0.
         -6    2    1    2    0  502 -0.12349675112E+02 -0.29921112416E+02 -0.25897278904E+03  0.31183985291E+03  0.17067337506E+03 0.  0.
        -24    2    5    5    0    0  0.18704949395E+02  0.43622734024E+02 -0.12950664328E+03  0.15966672798E+03  0.80428075410E+02 0.  0.
          5    1    3    3  501    0 -0.17496857885E+02  0.18725027553E+02 -0.62697227953E+03  0.62751342295E+03  0.47000000000E+01 0. -1.
        -13    1    4    4    0    0  0.30598895568E+02 -0.32169457820E+02 -0.10213736398E+03  0.11136968864E+03  0.00000000000E+00 0.  1.
         14    1    4    4    0    0 -0.75236257172E+00  0.43365542682E+02 -0.10640468375E+03  0.11490471298E+03  0.00000000000E+00 0. -1.
         -5    1    5    5    0  502 -0.31054624506E+02 -0.73543846440E+02 -0.12946614576E+03  0.15217312493E+03  0.47000000000E+01 0.  1.
         11    1    6    6    0    0  0.34387082024E+02 -0.11161388507E+02 -0.44642502421E+02  0.57445635395E+02  0.00000000000E+00 0. -1.
        -12    1    6    6    0    0 -0.15682132629E+02  0.54784122531E+02 -0.84864140855E+02  0.10222109258E+03  0.00000000000E+00 0.  1.
</event>
<event>
12    1  0.8747122E-002  0.1800641E+03  0.7818608E-02  0.1167884E+00
         21   -1    0    0  501  502  0.00000000000E+00  0.00000000000E+00  0.79036226501E+02  0.79036226501E+02  0.00000000000E+00 0. -1.
         21   -1    0    0  502  503 -0.00000000000E+00 -0.00000000000E+00 -0.62426147948E+03  0.62426147948E+03  0.00000000000E+00 0. -1.
         -6    2    1    2    0  503  0.33323806489E+02 -0.41912031125E+02 -0.47886856528E+03  0.51139594676E+03  0.17129978728E+03 0.  0.
        -24    2    3    3    0    0  0.60671103735E+02 -0.58303476230E+02 -0.45911804451E+03  0.47359743872E+03  0.80155330481E+02 0.  0.
          6    2    1    2  501    0 -0.33323806489E+02  0.41912031125E+02 -0.66356687699E+02  0.19190175921E+03  0.17191852941E+03 0.  0.
         24    2    5    5    0    0 -0.44638472408E+02 -0.13614526776E+02  0.13841306277E+02  0.93590882223E+02  0.79935742428E+02 0.  0.
          5    1    5    5  501    0  0.11314665919E+02  0.55526557901E+02 -0.80197993976E+02  0.98310876992E+02  0.47000000000E+01 0. -1.
        -13    1    6    6    0    0 -0.28325826103E+02 -0.46018038407E+02 -0.18408471771E+01  0.54068484365E+02  0.00000000000E+00 0.  1.
         14    1    6    6    0    0 -0.16312646306E+02  0.32403511631E+02  0.15682153454E+02  0.39522397858E+02  0.00000000000E+00 0. -1.
         -5    1    3    3    0  503 -0.27347297246E+02  0.16391445105E+02 -0.19750520768E+02  0.37798508038E+02  0.47000000000E+01 0.  1.
         13    1    4    4    0    0 -0.10389089754E+02 -0.32184569205E+01 -0.18058741624E+03  0.18091463886E+03  0.00000000000E+00 0. -1.
        -14    1    4    4    0    0  0.71060193489E+02 -0.55085019309E+02 -0.27853062827E+03  0.29268279986E+03  0.00000000000E+00 0.  1.
</event>
<event>
12    1  0.8747122E-002  0.1937466E+03  0.7818608E-02  0.1155578E+00
         21   -1    0    0  503  502  0.00000000000E+00  0.00000000000E+00  0.81047166198E+03  0.81047166198E+03  0.00000000000E+00 0. -1.
         21   -1    0    0  501  503 -0.00000000000E+00 -0.00000000000E+00 -0.47947095812E+02  0.47947095812E+02  0.00000000000E+00 0. -1.
          6    2    1    2  501    0 -0.70170393111E+02 -0.44144195466E+02  0.47343919145E+03  0.51154905128E+03  0.17511473326E+03 0.  0.
         24    2    3    3    0    0 -0.97972223389E+02 -0.80062489194E+02  0.37074174457E+03  0.39915723135E+03  0.76606105781E+02 0.  0.
         -6    2    1    2    0  502  0.70170393111E+02  0.44144195466E+02  0.28908537472E+03  0.34686970651E+03  0.17284572704E+03 0.  0.
        -24    2    5    5    0    0  0.10720386253E+03  0.11643525072E+02  0.25061946917E+03  0.28418408358E+03  0.79512484633E+02 0.  0.
          5    1    3    3  501    0  0.27801830278E+02  0.35918293728E+02  0.10269744688E+03  0.11239181993E+03  0.47000000000E+01 0. -1.
        -11    1    4    4    0    0 -0.10585379707E+03 -0.50926287754E+02  0.28504915535E+03  0.30830428817E+03  0.00000000000E+00 0.  1.
         12    1    4    4    0    0  0.78815736769E+01 -0.29136201440E+02  0.85692589219E+02  0.90852943183E+02  0.00000000000E+00 0. -1.
         -5    1    5    5    0  502 -0.37033469420E+02  0.32500670394E+02  0.38465905546E+02  0.62685622935E+02  0.47000000000E+01 0.  1.
         13    1    6    6    0    0 -0.39408071758E+00 -0.19446024307E+02  0.20511667778E+02  0.28267148353E+02  0.00000000000E+00 0. -1.
        -14    1    6    6    0    0  0.10759794325E+03  0.31089549379E+02  0.23010780140E+03  0.25591693523E+03  0.00000000000E+00 0.  1.
</event>
<event>
12    1  0.8747122E-002  0.1936397E+03  0.7818608E-02  0.1155503E+00
         21   -1    0    0  501  502  0.00000000000E+00  0.00000000000E+00  0.19980261330E+04  0.19980261330E+04  0.00000000000E+00 0.  1.
         21   -1    0    0  502  503 -0.00000000000E+00 -0.00000000000E+00 -0.19272926084E+02  0.19272926084E+02  0.00000000000E+00 0.  1.
         -6    2    1    2    0  503 -0.84705467406E+02  0.14544220810E+02  0.11686554376E+04  0.11843796465E+04  0.17208446986E+03 0.  0.
        -24    2    3    3    0    0  0.13012841663E+02  0.17233543240E+02  0.72791619459E+03  0.73290509498E+03  0.82592753008E+02 0.  0.
          6    2    1    2  501    0  0.84705467406E+02 -0.14544220810E+02  0.81009776930E+03  0.83291941252E+03  0.17352176046E+03 0.  0.
         24    2    5    5    0    0 -0.17254800040E+02  0.37647174499E+02  0.40763249838E+03  0.41444573093E+03  0.62337567165E+02 0.  0.
          5    1    5    5  501    0  0.10196026745E+03 -0.52191395309E+02  0.40246527093E+03  0.41847368159E+03  0.47000000000E+01 0. -1.
        -11    1    6    6    0    0  0.23286177625E+02  0.18595774005E+02  0.17954578480E+03  0.18200202669E+03  0.00000000000E+00 0.  1.
         12    1    6    6    0    0 -0.40540977664E+02  0.19051400494E+02  0.22808671357E+03  0.23244370423E+03  0.00000000000E+00 0. -1.
         -5    1    3    3    0  503 -0.97718309069E+02 -0.26893224302E+01  0.44073924300E+03  0.45147455156E+03  0.47000000000E+01 0.  1.
         13    1    4    4    0    0  0.42748266613E+02  0.28131496408E+02  0.35851955975E+03  0.36215337927E+03  0.00000000000E+00 0. -1.
        -14    1    4    4    0    0 -0.29735424950E+02 -0.10897953169E+02  0.36939663483E+03  0.37075171571E+03  0.00000000000E+00 0.  1.
</event>
<event>
12    1  0.8747122E-002  0.1747532E+03  0.7818608E-02  0.1173509E+00
         21   -1    0    0  501  502  0.00000000000E+00  0.00000000000E+00  0.43240641699E+03  0.43240641699E+03  0.00000000000E+00 0.  1.
         21   -1    0    0  502  503 -0.00000000000E+00 -0.00000000000E+00 -0.14760577456E+03  0.14760577456E+03  0.00000000000E+00 0.  1.
         -6    2    1    2    0  503  0.28820081423E+02 -0.37150515134E+01 -0.67770131788E+02  0.18743390361E+03  0.17232027959E+03 0.  0.
        -24    2    3    3    0    0  0.20175592523E+02 -0.62755147135E+02 -0.80881693187E+01  0.10290883796E+03  0.78610097448E+02 0.  0.
          6    2    1    2  501    0 -0.28820081423E+02  0.37150515134E+01  0.35257077421E+03  0.39257828794E+03  0.17019742252E+03 0.  0.
         24    2    5    5    0    0 -0.25557408836E+02 -0.29149266943E+02  0.34391735895E+03  0.35811555364E+03  0.92004016550E+02 0.  0.
          5    1    5    5  501    0 -0.32626725868E+01  0.32864318456E+02  0.86534152630E+01  0.34462734304E+02  0.47000000000E+01 0. -1.
        -13    1    6    6    0    0  0.15971572015E+02  0.96349302176E+01  0.23056206718E+03  0.23131534712E+03  0.00000000000E+00 0.  1.
         14    1    6    6    0    0 -0.41528980852E+02 -0.38784197160E+02  0.11335529177E+03  0.12680020652E+03  0.00000000000E+00 0. -1.
         -5    1    3    3    0  503  0.86444889001E+01  0.59040095622E+02 -0.59681962469E+02  0.84525065653E+02  0.47000000000E+01 0.  1.
         13    1    4    4    0    0  0.13784189958E+01 -0.38218154733E+02  0.33671832107E+02  0.50954093727E+02  0.00000000000E+00 0. -1.
        -14    1    4    4    0    0  0.18797173527E+02 -0.24536992402E+02 -0.41760001425E+02  0.51954744228E+02  0.00000000000E+00 0.  1.
</event>
<event>
12    1  0.8747122E-002  0.2932460E+03  0.7818608E-02  0.1089151E+00
         21   -1    0    0  501  502  0.00000000000E+00  0.00000000000E+00  0.11470619763E+03  0.11470619763E+03  0.00000000000E+00 0. -1.
         21   -1    0    0  502  503 -0.00000000000E+00 -0.00000000000E+00 -0.76001904973E+03  0.76001904973E+03  0.00000000000E+00 0. -1.
         -6    2    1    2    0  503  0.22381127964E+03 -0.70764362413E+02 -0.39539480819E+03  0.49227052574E+03  0.17576726738E+03 0.  0.
        -24    2    3    3    0    0  0.73661354268E+02  0.30574180688E+02 -0.17270521215E+03  0.20516906877E+03  0.76853632572E+02 0.  0.
          6    2    1    2  501    0 -0.22381127964E+03  0.70764362413E+02 -0.24991804391E+03  0.38245472162E+03  0.16945058730E+03 0.  0.
         24    2    5    5    0    0 -0.41286209515E+02  0.17246704433E+02 -0.12733865228E+03  0.15612015026E+03  0.78462532729E+02 0.  0.
          5    1    5    5  501    0 -0.18252507013E+03  0.53517657979E+02 -0.12257939163E+03  0.22633457136E+03  0.47000000000E+01 0. -1.
        -11    1    6    6    0    0 -0.11220418796E+02 -0.27029104022E+01 -0.11838128529E+03  0.11894255853E+03  0.00000000000E+00 0.  1.
         12    1    6    6    0    0 -0.30065790719E+02  0.19949614835E+02 -0.89573669957E+01  0.37177591734E+02  0.00000000000E+00 0. -1.
         -5    1    3    3    0  503  0.15014992537E+03 -0.10133854310E+03 -0.22268959605E+03  0.28710145697E+03  0.47000000000E+01 0.  1.
         11    1    4    4    0    0  0.82265865048E+02  0.14900108406E+02 -0.10023133636E+03  0.13052205397E+03  0.00000000000E+00 0. -1.
        -12    1    4    4    0    0 -0.86045107807E+01  0.15674072282E+02 -0.72473875785E+02  0.74647014803E+02  0.00000000000E+00 0.  1.
</event>
<event>
12    1  0.8747122E-002  0.1956740E+03  0.7818608E-02  0.1154066E+00
         21   -1    0    0  501  502  0.00000000000E+00  0.00000000000E+00  0.48244984862E+03  0.48244984862E+03  0.00000000000E+00 0.  1.
         21   -1    0    0  502  503 -0.00000000000E+00 -0.00000000000E+00 -0.10116293548E+03  0.10116293548E+03  0.00000000000E+00 0.  1.
         -6    2    1    2    0  503  0.94686470590E+02 -0.64082709576E+01  0.52725039526E+02  0.20265304268E+03  0.17111905874E+03 0.  0.
        -24    2    3    3    0    0  0.15528544220E+02  0.70405789800E+01 -0.30411796070E+02  0.86978186702E+02  0.79684516588E+02 0.  0.
          6    2    1    2  501    0 -0.94686470590E+02  0.64082709576E+01  0.32856187362E+03  0.38095974143E+03  0.16784166988E+03 0.  0.
         24    2    5    5    0    0 -0.36319759876E+02  0.18595900011E+02  0.30340393309E+03  0.31607350874E+03  0.78635767029E+02 0.  0.
          5    1    5    5  501    0 -0.58366710713E+02 -0.12187629053E+02  0.25157940523E+02  0.64886232691E+02  0.47000000000E+01 0. -1.
        -11    1    6    6    0    0  0.15385419069E+01 -0.79915385761E+01 -0.97731893690E+00  0.81967647470E+01  0.00000000000E+00 0.  1.
         12    1    6    6    0    0 -0.37858301783E+02  0.26587438587E+02  0.30438125203E+03  0.30787674399E+03  0.00000000000E+00 0. -1.
         -5    1    3    3    0  503  0.79157926370E+02 -0.13448849938E+02  0.83136835596E+02  0.11567485597E+03  0.47000000000E+01 0.  1.
         11    1    4    4    0    0  0.34757014188E+02 -0.18796272781E+02 -0.36968030145E+02  0.54110859894E+02  0.00000000000E+00 0. -1.
        -12    1    4    4    0    0 -0.19228469968E+02  0.25836851761E+02  0.65562340746E+01  0.32867326808E+02  0.00000000000E+00 0.  1.
</event>
<event>
12    1  0.8747122E-002  0.2068916E+03  0.7818608E-02  0.1144328E+00
         21   -1    0    0  501  502  0.00000000000E+00  0.00000000000E+00  0.13737648980E+03  0.13737648980E+03  0.00000000000E+00 0.  1.
         21   -1    0    0  502  503 -0.00000000000E+00 -0.00000000000E+00 -0.31188037434E+03  0.31188037434E+03  0.00000000000E+00 0. -1.
         -6    2    1    2    0  503  0.55570885610E+02 -0.99302449013E+02 -0.10645765804E+03  0.23146242976E+03  0.17115058787E+03 0.  0.
        -24    2    3    3    0    0  0.96361902400E+02 -0.57792975442E+02 -0.41555183848E+02  0.14416200248E+03  0.80188561591E+02 0.  0.
          6    2    1    2  501    0 -0.55570885610E+02  0.99302449013E+02 -0.68046226507E+02  0.21779443438E+03  0.17278607293E+03 0.  0.
         24    2    5    5    0    0 -0.96139071089E+02  0.85293898196E+02 -0.20031510768E+02  0.15322261316E+03  0.80982329551E+02 0.  0.
          5    1    5    5  501    0  0.40568185479E+02  0.14008550818E+02 -0.48014715740E+02  0.64571821228E+02  0.47000000000E+01 0. -1.
        -13    1    6    6    0    0  0.42077509727E+01  0.27663040645E+02 -0.24822829737E+02  0.37404837416E+02  0.00000000000E+00 0.  1.
         14    1    6    6    0    0 -0.10034682206E+03  0.57630857550E+02  0.47913189692E+01  0.11581777574E+03  0.00000000000E+00 0. -1.
         -5    1    3    3    0  503 -0.40791016790E+02 -0.41509473571E+02 -0.64902474187E+02  0.87300427276E+02  0.47000000000E+01 0.  1.
         13    1    4    4    0    0  0.23050414953E+02 -0.54594164371E+02  0.11249288810E+01  0.59271492961E+02  0.00000000000E+00 0. -1.
        -14    1    4    4    0    0  0.73311487447E+02 -0.31988110717E+01 -0.42680112729E+02  0.84890509520E+02  0.00000000000E+00 0.  1.
</event>
<event>
12    1  0.8747122E-002  0.1998264E+03  0.7818608E-02  0.1150308E+00
         21   -1    0    0  503  502  0.00000000000E+00  0.00000000000E+00  0.12671932582E+03  0.12671932582E+03  0.00000000000E+00 0.  1.
         21   -1    0    0  501  503 -0.00000000000E+00 -0.00000000000E+00 -0.33433523118E+03  0.33433523118E+03  0.00000000000E+00 0.  1.
          6    2    1    2  501    0 -0.96098130795E+02 -0.18659797632E+02 -0.16293084012E+03  0.25629292564E+03  0.17192023232E+03 0.  0.
         24    2    3    3    0    0 -0.67097396718E+02  0.35368855460E+02 -0.37771086820E+02  0.11683973716E+03  0.80447825310E+02 0.  0.
         -6    2    1    2    0  502  0.96098130795E+02  0.18659797632E+02 -0.44685065241E+02  0.20476163136E+03  0.17420542997E+03 0.  0.
        -24    2    5    5    0    0  0.87686452961E+02 -0.29384030135E+02 -0.81747202075E+02  0.14332338840E+03  0.72846779998E+02 0.  0.
          5    1    3    3  501    0 -0.29000734077E+02 -0.54028653092E+02 -0.12515975330E+03  0.13945318848E+03  0.47000000000E+01 0. -1.
        -13    1    4    4    0    0 -0.51028369191E+02  0.42277786220E+02 -0.59421275535E+02  0.89006705681E+02  0.00000000000E+00 0.  1.
         14    1    4    4    0    0 -0.16069027527E+02 -0.69089307602E+01  0.21650188715E+02  0.27833031479E+02  0.00000000000E+00 0. -1.
         -5    1    5    5    0  502  0.84116778339E+01  0.48043827767E+02  0.37062136834E+02  0.61438242953E+02  0.47000000000E+01 0.  1.
         11    1    6    6    0    0  0.43113030153E+02 -0.51871598254E+02 -0.52402125745E+02  0.85412989978E+02  0.00000000000E+00 0. -1.
        -12    1    6    6    0    0  0.44573422808E+02  0.22487568120E+02 -0.29345076330E+02  0.57910398424E+02  0.00000000000E+00 0.  1.
</event>
<event>
12    1  0.8747122E-002  0.1856187E+03  0.7818608E-02  0.1162541E+00
         21   -1    0    0  501  502  0.00000000000E+00  0.00000000000E+00  0.16576873408E+02  0.16576873408E+02  0.00000000000E+00 0. -1.
         21   -1    0    0  502  503 -0.00000000000E+00 -0.00000000000E+00 -0.24703463512E+04  0.24703463512E+04  0.00000000000E+00 0. -1.
         -6    2    1    2    0  503 -0.10253276844E+02  0.70139387029E+02 -0.72874335666E+03  0.75193923808E+03  0.17123397616E+03 0.  0.
        -24    2    3    3    0    0 -0.18446377948E+02  0.69249078465E+01 -0.62650594622E+03  0.63136654061E+03  0.75668915238E+02 0.  0.
          6    2    1    2  501    0  0.10253276844E+02 -0.70139387029E+02 -0.17250261211E+04  0.17349839865E+04  0.17155072609E+03 0.  0.
         24    2    5    5    0    0  0.30392078198E+02 -0.54264687098E+02 -0.54131234401E+03  0.55098315310E+03  0.81823264026E+02 0.  0.
          5    1    5    5  501    0 -0.20138801354E+02 -0.15874699931E+02 -0.11837137771E+04  0.11840008334E+04  0.47000000000E+01 0. -1.
        -11    1    6    6    0    0  0.11582489010E+02 -0.72326329841E+02 -0.45361461348E+03  0.45949044561E+03  0.00000000000E+00 0.  1.
         12    1    6    6    0    0  0.18809589188E+02  0.18061642743E+02 -0.87697730530E+02  0.91492707492E+02  0.00000000000E+00 0. -1.
         -5    1    3    3    0  503  0.81931011037E+01  0.63214479183E+02 -0.10223741044E+03  0.12057269748E+03  0.47000000000E+01 0.  1.
         13    1    4    4    0    0  0.14483826113E+02  0.37171700866E+01 -0.26333924027E+02  0.30283231779E+02  0.00000000000E+00 0. -1.
        -14    1    4    4    0    0 -0.32930204061E+02  0.32077377600E+01 -0.60017202220E+03  0.60108330883E+03  0.00000000000E+00 0.  1.
</event>
<event>
12    1  0.8747122E-002  0.2371099E+03  0.7818608E-02  0.1121889E+00
         21   -1    0    0  501  502  0.00000000000E+00  0.00000000000E+00  0.46874345439E+03  0.46874345439E+03  0.00000000000E+00 0. -1.
         21   -1    0    0  502  503 -0.00000000000E+00 -0.00000000000E+00 -0.12150675412E+03  0.12150675412E+03  0.00000000000E+00 0. -1.
         -6    2    1    2    0  503  0.11048956753E+03 -0.11882970597E+03  0.13578566943E+03  0.27323776143E+03  0.17289500483E+03 0.  0.
        -24    2    3    3    0    0  0.13843812193E+03 -0.89912881445E+02  0.69711314036E+02  0.19574443995E+03  0.78783111221E+02 0.  0.
          6    2    1    2  501    0 -0.11048956753E+03  0.11882970597E+03  0.21145103084E+03  0.31701244709E+03  0.17163015356E+03 0.  0.
         24    2    5    5    0    0 -0.14075178186E+02  0.20503252068E+02  0.14093290401E+03  0.16222639403E+03  0.76399119767E+02 0.  0.
          5    1    5    5  501    0 -0.96414389340E+02  0.98326453901E+02  0.70518126829E+02  0.15478605305E+03  0.47000000000E+01 0. -1.
        -11    1    6    6    0    0  0.11008536301E+02 -0.24076550628E+02  0.29643673168E+02  0.39744377219E+02  0.00000000000E+00 0.  1.
         12    1    6    6    0    0 -0.25083714487E+02  0.44579802696E+02  0.11128923085E+03  0.12248201682E+03  0.00000000000E+00 0. -1.
         -5    1    3    3    0  503 -0.27948554399E+02 -0.28916824524E+02  0.66074355393E+02  0.77493321481E+02  0.47000000000E+01 0.  1.
         13    1    4    4    0    0  0.98133512309E+02 -0.20431778788E+02  0.23064139485E+02  0.10285717453E+03  0.00000000000E+00 0. -1.
        -14    1    4    4    0    0  0.40304609616E+02 -0.69481102657E+02  0.46647174550E+02  0.92887265415E+02  0.00000000000E+00 0.  1.
</event>
<event>
12    1  0.8747122E-002  0.1735093E+03  0.7818608E-02  0.1174489E+00
         21   -1    0    0  503  502  0.00000000000E+00  0.00000000000E+00  0.75617691995E+03  0.75617691995E+03  0.00000000000E+00 0.  1.
         21   -1    0    0  501  503 -0.00000000000E+00 -0.00000000000E+00 -0.10457149602E+03  0.10457149602E+03  0.00000000000E+00 0.  1.
          6    2    1    2  501    0 -0.96513188692E+00  0.78785340807E+01 -0.13115951727E+02  0.17400430402E+03  0.17332762864E+03 0.  0.
         24    2    3    3    0    0 -0.13878953232E+02  0.42390605846E+02 -0.60174338182E+02  0.11405072519E+03  0.86005977310E+02 0.  0.
         -6    2    1    2    0  502  0.96513188692E+00 -0.78785340807E+01  0.66472137565E+03  0.68674411195E+03  0.17233677863E+03 0.  0.
        -24    2    5    5    0    0 -0.62874625145E+02  0.85932292310E+00  0.45710737784E+03  0.46931015229E+03  0.85737432019E+02 0.  0.
          5    1    3    3  501    0  0.12913821345E+02 -0.34512071765E+02  0.47058386456E+02  0.59953578835E+02  0.47000000000E+01 0. -1.
        -13    1    4    4    0    0  0.57272284451E+01  0.61041351425E+02 -0.61655974763E+02  0.86950025609E+02  0.00000000000E+00 0.  1.
         14    1    4    4    0    0 -0.19606181677E+02 -0.18650745579E+02  0.14816365805E+01  0.27100699577E+02  0.00000000000E+00 0. -1.
         -5    1    5    5    0  502  0.63839757031E+02 -0.87378570038E+01  0.20761399781E+03  0.21743395965E+03  0.47000000000E+01 0.  1.
         11    1    6    6    0    0  0.90037162742E+01 -0.17156323492E+02  0.29262580019E+02  0.35095654031E+02  0.00000000000E+00 0. -1.
        -12    1    6    6    0    0 -0.71878341419E+02  0.18015646415E+02  0.42784479782E+03  0.43421449826E+03  0.00000000000E+00 0.  1.
</event>
<event>
12    1  0.8747122E-002  0.2327316E+03  0.7818608E-02  0.1125647E+00
         21   -1    0    0  501  502  0.00000000000E+00  0.00000000000E+00  0.34687299910E+02  0.34687299910E+02  0.00000000000E+00 0.  1.
         21   -1    0    0  502  503 -0.00000000000E+00 -0.00000000000E+00 -0.15543171351E+04  0.15543171351E+04  0.00000000000E+00 0. -1.
         -6    2    1    2    0  503  0.11579105681E+03 -0.96841889988E+02 -0.64538566758E+03  0.68431284821E+03  0.17022189579E+03 0.  0.
        -24    2    3    3    0    0  0.33125042068E+01 -0.52517441083E+02 -0.19767750756E+03  0.22054483711E+03  0.82429205254E+02 0.  0.
          6    2    1    2  501    0 -0.11579105681E+03  0.96841889988E+02 -0.87424416762E+03  0.90469158681E+03  0.17713859586E+03 0.  0.
         24    2    5    5    0    0 -0.14545179924E+03  0.10767062322E+03 -0.69252929803E+03  0.72019387698E+03  0.79581422476E+02 0.  0.
          5    1    5    5  501    0  0.29660742426E+02 -0.10828733232E+02 -0.18171486958E+03  0.18449770983E+03  0.47000000000E+01 0. -1.
        -13    1    6    6    0    0 -0.82656169558E+01  0.44250434798E+02 -0.12398406167E+03  0.13190325603E+03  0.00000000000E+00 0.  1.
         14    1    6    6    0    0 -0.13718618228E+03  0.63420188422E+02 -0.56854523636E+03  0.58829062095E+03  0.00000000000E+00 0. -1.
         -5    1    3    3    0  503  0.11247855260E+03 -0.44324448905E+02 -0.44770816002E+03  0.46376801110E+03  0.47000000000E+01 0.  1.
         11    1    4    4    0    0  0.32987977628E+01  0.10677360104E+02 -0.11949210997E+03  0.12001355103E+03  0.00000000000E+00 0. -1.
        -12    1    4    4    0    0  0.13706444015E-01 -0.63194801187E+02 -0.78185397593E+02  0.10053128608E+03  0.00000000000E+00 0.  1.
</event>
<event>
12    1  0.8747122E-002  0.1815514E+03  0.7818608E-02  0.1167344E+00
         21   -1    0    0  503  502  0.00000000000E+00  0.00000000000E+00  0.19365538575E+03  0.19365538575E+03  0.00000000000E+00 0. -1.
         21   -1    0    0  501  503 -0.00000000000E+00 -0.00000000000E+00 -0.17838697274E+03  0.17838697274E+03  0.00000000000E+00 0. -1.
          6    2    1    2  501    0  0.37593741307E+02  0.28385132035E+02 -0.40846774459E+02  0.18608965163E+03  0.17533366577E+03 0.  0.
         24    2    3    3    0    0 -0.23416985269E+02  0.67669216501E+02 -0.11929908380E+02  0.10783479111E+03  0.79740462752E+02 0.  0.
         -6    2    1    2    0  502 -0.37593741307E+02 -0.28385132035E+02  0.56115187474E+02  0.18595270687E+03  0.17091076566E+03 0.  0.
        -24    2    5    5    0    0 -0.56877489208E+02 -0.52855195429E+02  0.88112988742E+02  0.14104617926E+03  0.78111493628E+02 0.  0.
          5    1    3    3  501    0  0.61010726576E+02 -0.39284084466E+02 -0.28916866080E+02  0.78254860511E+02  0.47000000000E+01 0. -1.
        -11    1    4    4    0    0  0.23852905765E+02  0.30613051495E+02  0.15518927112E+02  0.41796616298E+02  0.00000000000E+00 0.  1.
         12    1    4    4    0    0 -0.47269891034E+02  0.37056165006E+02 -0.27448835491E+02  0.66038174817E+02  0.00000000000E+00 0. -1.
         -5    1    5    5    0  502  0.19283747901E+02  0.24470063393E+02 -0.31997801268E+02  0.44906527605E+02  0.47000000000E+01 0.  1.
         11    1    6    6    0    0 -0.96650548532E+00 -0.39379127824E+02  0.70739130272E+02  0.80967119207E+02  0.00000000000E+00 0. -1.
        -12    1    6    6    0    0 -0.55910983723E+02 -0.13476067605E+02  0.17373858470E+02  0.60079060055E+02  0.00000000000E+00 0.  1.
</event>
<event>
12    1  0.8747122E-002  0.2631244E+03  0.7818608E-02  0.1105384E+00
         21   -1    0    0  503  502  0.00000000000E+00  0.00000000000E+00  0.15595292708E+03  0.15595292708E+03  0.00000000000E+00 0.  1.
         21   -1    0    0  501  503 -0.00000000000E+00 -0.00000000000E+00 -0.64385024848E+03  0.64385024848E+03  0.00000000000E+00 0.  1.
          6    2    1    2  501    0 -0.73159712664E+02 -0.18637051645E+03 -0.46721309512E+03  0.53586708300E+03  0.16964416122E+03 0.  0.
         24    2    3    3    0    0  0.38986510693E+00 -0.50608573855E+02 -0.24553101137E+03  0.26567107692E+03  0.87944663427E+02 0.  0.
         -6    2    1    2    0  502  0.73159712664E+02  0.18637051645E+03 -0.20684226282E+02  0.26393609256E+03  0.17072817805E+03 0.  0.
        -24    2    5    5    0    0  0.39874493206E+02  0.22550247498E+02 -0.34919437809E+02  0.96097725073E+02  0.76921497364E+02 0.  0.
          5    1    3    3  501    0 -0.73549577771E+02 -0.13576194259E+03 -0.22168208375E+03  0.27019600608E+03  0.47000000000E+01 0. -1.
        -11    1    4    4    0    0 -0.30305049567E+02  0.89416823322E+01 -0.11057506774E+03  0.11500084920E+03  0.00000000000E+00 0.  1.
         12    1    4    4    0    0  0.30694914674E+02 -0.59550256188E+02 -0.13495594364E+03  0.15067022772E+03  0.00000000000E+00 0. -1.
         -5    1    5    5    0  502  0.33285219458E+02  0.16382026895E+03  0.14235211527E+02  0.16783836748E+03  0.47000000000E+01 0.  1.
         11    1    6    6    0    0 -0.20090020723E+02  0.16656505002E+02  0.69437479481E+00  0.26106134296E+02  0.00000000000E+00 0. -1.
        -12    1    6    6    0    0  0.59964513929E+02  0.58937424962E+01 -0.35613812604E+02  0.69991590777E+02  0.00000000000E+00 0.  1.
</event>
<event>
12    1  0.8747122E-002  0.2307005E+03  0.7818608E-02  0.1127046E+00
         21   -1    0    0  503  502  0.00000000000E+00  0.00000000000E+00  0.94160996942E+03  0.94160996942E+03  0.00000000000E+00 0.  1.
         21   -1    0    0  501  503 -0.00000000000E+00 -0.00000000000E+00 -0.64341175605E+02  0.64341175605E+02  0.00000000000E+00 0. -1.
          6    2    1    2  501    0  0.92067291035E+02  0.12236470604E+03  0.24579448261E+03  0.33365468234E+03  0.16571364459E+03 0.  0.
         24    2    3    3    0    0  0.74464770339E+02  0.12793777039E+03  0.26084166245E+03  0.30937680347E+03  0.75911517829E+02 0.  0.
         -6    2    1    2    0  502 -0.92067291035E+02 -0.12236470604E+03  0.63147431120E+03  0.67229646268E+03  0.17254918331E+03 0.  0.
        -24    2    5    5    0    0 -0.11238119513E+02 -0.97348763931E+02  0.22309936824E+03  0.25522172553E+03  0.75906020218E+02 0.  0.
          5    1    3    3  501    0  0.17602520695E+02 -0.55730643462E+01 -0.15047179847E+02  0.24277878869E+02  0.47000000000E+01 0. -1.
        -13    1    4    4    0    0  0.64674677977E+02  0.10977758605E+03  0.15080881290E+03  0.19742651904E+03  0.00000000000E+00 0.  1.
         14    1    4    4    0    0  0.97900923618E+01  0.18160184340E+02  0.11003284955E+03  0.11195028443E+03  0.00000000000E+00 0. -1.
         -5    1    5    5    0  502 -0.80829171522E+02 -0.25015942110E+02  0.40837494297E+03  0.41707473715E+03  0.47000000000E+01 0.  1.
         11    1    6    6    0    0  0.25000133951E+02 -0.53014361015E+02  0.15800722684E+03  0.16852837418E+03  0.00000000000E+00 0. -1.
        -12    1    6    6    0    0 -0.36238253463E+02 -0.44334402917E+02  0.65092141402E+02  0.86693351350E+02  0.00000000000E+00 0.  1.
</event>
<event>
12    1  0.8747122E-002  0.1926731E+03  0.7818608E-02  0.1156650E+00
         21   -1    0    0  501  502  0.00000000000E+00  0.00000000000E+00  0.82441958555E+03  0.82441958555E+03  0.00000000000E+00 0.  1.
         21   -1    0    0  502  503 -0.00000000000E+00 -0.00000000000E+00 -0.45539162059E+02  0.45539162059E+02  0.00000000000E+00 0. -1.
         -6    2    1    2    0  503 -0.74985945396E+02 -0.40582983230E+02  0.32400667496E+03  0.37696586766E+03  0.17278040809E+03 0.  0.
        -24    2    3    3    0    0 -0.98719601605E+02 -0.45211891454E+02  0.14773354366E+03  0.19897985683E+03  0.77318229631E+02 0.  0.
          6    2    1    2  501    0  0.74985945396E+02  0.40582983230E+02  0.45487374853E+03  0.49299287996E+03  0.16988814570E+03 0.  0.
         24    2    5    5    0    0  0.67764946356E+02  0.91121811267E+02  0.34273195014E+03  0.36968761278E+03  0.79425870815E+02 0.  0.
          5    1    5    5  501    0  0.72209990398E+01 -0.50538828037E+02  0.11214179839E+03  0.12330526718E+03  0.47000000000E+01 0. -1.
        -13    1    6    6    0    0  0.62008731776E+02  0.28752496130E+02  0.23834069334E+03  0.24794772625E+03  0.00000000000E+00 0.  1.
         14    1    6    6    0    0  0.57562145797E+01  0.62369315137E+02  0.10439125680E+03  0.12173988653E+03  0.00000000000E+00 0. -1.
         -5    1    3    3    0  503  0.23733656209E+02  0.46289082232E+01  0.17627313131E+03  0.17798601082E+03  0.47000000000E+01 0.  1.
         13    1    4    4    0    0 -0.10255323243E+03 -0.24685261897E+02  0.14278132256E+03  0.17751910801E+03  0.00000000000E+00 0. -1.
        -14    1    4    4    0    0  0.38336308226E+01 -0.20526629557E+02  0.49522210982E+01  0.21460748823E+02  0.00000000000E+00 0.  1.
</event>
<event>
12    1  0.8747122E-002  0.1783466E+03  0.7818608E-02  0.1170071E+00
         21   -1    0    0  503  502  0.00000000000E+00  0.00000000000E+00  0.14934646090E+03  0.14934646090E+03  0.00000000000E+00 0. -1.
         21   -1    0    0  501  503 -0.00000000000E+00 -0.00000000000E+00 -0.22120058482E+03  0.22120058482E+03  0.00000000000E+00 0. -1.
          6    2    1    2  501    0  0.33516665680E+02 -0.26706210773E+02 -0.77716851978E+02  0.19210406889E+03  0.17037451579E+03 0.  0.
         24    2    3    3    0    0  0.56776371396E+02 -0.25781082840E+02 -0.11136586107E+03  0.15091893098E+03  0.80535384373E+02 0.  0.
         -6    2    1    2    0  502 -0.33516665680E+02  0.26706210773E+02  0.58627280532E+01  0.17844297683E+03  0.17312115938E+03 0.  0.
        -24    2    5    5    0    0  0.80646333322E+01 -0.27628935586E+02 -0.43848452111E+02  0.93739942697E+02  0.77692301497E+02 0.  0.
          5    1    3    3  501    0 -0.23259705717E+02 -0.92512793310E+00  0.33649009092E+02  0.41185137909E+02  0.47000000000E+01 0. -1.
        -11    1    4    4    0    0  0.29126715460E+02 -0.11330153268E+02  0.39095128902E+01  0.31496384199E+02  0.00000000000E+00 0.  1.
         12    1    4    4    0    0  0.27649655936E+02 -0.14450929572E+02 -0.11527537396E+03  0.11942254678E+03  0.00000000000E+00 0. -1.
         -5    1    5    5    0  502 -0.41581299012E+02  0.54335146359E+02  0.49711180164E+02  0.84703034129E+02  0.47000000000E+01 0.  1.
         11    1    6    6    0    0 -0.23151891811E+02  0.90385129924E+00  0.10028509559E+02  0.25246743267E+02  0.00000000000E+00 0. -1.
        -12    1    6    6    0    0  0.31216525143E+02 -0.28532786885E+02 -0.53876961670E+02  0.68493199430E+02  0.00000000000E+00 0.  1.
</event>
<event>
12    1  0.8747122E-002  0.2544775E+03  0.7818608E-02  0.1110768E+00
         21   -1    0    0  503  502  0.00000000000E+00  0.00000000000E+00  0.88781753727E+02  0.88781753727E+02  0.00000000000E+00 0. -1.
         21   -1    0    0  501  503 -0.00000000000E+00 -0.00000000000E+00 -0.74710864044E+03  0.74710864044E+03  0.00000000000E+00 0.  1.
          6    2    1    2  501    0 -0.17373115502E+03 -0.62052505350E+02 -0.40277453962E+03  0.47643059369E+03  0.17528762989E+03 0.  0.
         24    2    3    3    0    0 -0.16147606883E+03 -0.96807448099E+00 -0.22763511760E+03  0.29048059509E+03  0.80534287031E+02 0.  0.
         -6    2    1    2    0  502  0.17373115502E+03  0.62052505350E+02 -0.25555234710E+03  0.35945980048E+03  0.17283320980E+03 0.  0.
        -24    2    5    5    0    0  0.14973337725E+03  0.10709301255E+03 -0.19297073651E+03  0.27857044018E+03  0.80466063615E+02 0.  0.
          5    1    3    3  501    0 -0.12255086183E+02 -0.61084430869E+02 -0.17513942202E+03  0.18594999859E+03  0.47000000000E+01 0. -1.
        -11    1    4    4    0    0 -0.14453992698E+03 -0.26919338987E+02 -0.16781630769E+03  0.22311152912E+03  0.00000000000E+00 0.  1.
         12    1    4    4    0    0 -0.16936141856E+02  0.25951264506E+02 -0.59818809912E+02  0.67369065971E+02  0.00000000000E+00 0. -1.
         -5    1    5    5    0  502  0.23997777768E+02 -0.45040507197E+02 -0.62581610590E+02  0.80889360304E+02  0.47000000000E+01 0.  1.
         13    1    6    6    0    0  0.17119692400E+02  0.42254779252E+02 -0.16464485958E+02  0.48472977373E+02  0.00000000000E+00 0. -1.
        -14    1    6    6    0    0  0.13261368485E+03  0.64838233295E+02 -0.17650625055E+03  0.23009746281E+03  0.00000000000E+00 0.  1.
</event>
<event>
12    1  0.8747122E-002  0.1862543E+03  0.7818608E-02  0.1162019E+00
         21   -1    0    0  503  502  0.00000000000E+00  0.00000000000E+00  0.44363875988E+03  0.44363875988E+03  0.00000000000E+00 0.  1.
         21   -1    0    0  501  503 -0.00000000000E+00 -0.00000000000E+00 -0.83747220442E+02  0.83747220442E+02  0.00000000000E+00 0. -1.
          6    2    1    2  501    0 -0.58726563017E+02 -0.37137746065E+02  0.11031386520E+03  0.21597038468E+03  0.17218024514E+03 0.  0.
         24    2    3    3    0    0  0.64659809803E+00 -0.41303214210E+02  0.12572608639E+03  0.15430880873E+03  0.79358591596E+02 0.  0.
         -6    2    1    2    0  502  0.58726563017E+02  0.37137746065E+02  0.24957767425E+03  0.31141559565E+03  0.17280809108E+03 0.  0.
        -24    2    5    5    0    0  0.98838168118E+02  0.24281472940E+02  0.11245454141E+03  0.16789184088E+03  0.71993561842E+02 0.  0.
          5    1    3    3  501    0 -0.59373161115E+02  0.41654681447E+01 -0.15412221198E+02  0.61661575944E+02  0.47000000000E+01 0. -1.
        -11    1    4    4    0    0  0.24301422612E+02  0.14683570753E+02  0.34355801771E+02  0.44570029239E+02  0.00000000000E+00 0.  1.
         12    1    4    4    0    0 -0.23654824514E+02 -0.55986784962E+02  0.91370284623E+02  0.10973877950E+03  0.00000000000E+00 0. -1.
         -5    1    5    5    0  502 -0.40111605101E+02  0.12856273125E+02  0.13712313284E+03  0.14352375476E+03  0.47000000000E+01 0.  1.
         13    1    6    6    0    0  0.43364186201E+02  0.42960801751E+01  0.97896493793E+02  0.10715704572E+03  0.00000000000E+00 0. -1.
        -14    1    6    6    0    0  0.55473981917E+02  0.19985392765E+02  0.14558047619E+02  0.60734795168E+02  0.00000000000E+00 0.  1.
</event>
<event>
12    1  0.8747122E-002  0.1782440E+03  0.7818608E-02  0.1169547E+00
         21   -1    0    0  501  502  0.00000000000E+00  0.00000000000E+00  0.86718653401E+03  0.86718653401E+03  0.00000000000E+00 0.  1.
         21   -1    0    0  502  503 -0.00000000000E+00 -0.00000000000E+00 -0.58739549977E+02  0.58739549977E+02  0.00000000000E+00 0.  1.
         -6    2    1    2    0  503 -0.37185639959E+02 -0.25688126022E+02  0.12014926954E+03  0.21495761191E+03  0.17241889777E+03 0.  0.
        -24    2    3    3    0    0 -0.61615151941E+02  0.37060243373E+02  0.53669123355E+02  0.12021660308E+03  0.80011050903E+02 0.  0.
          6    2    1    2  501    0  0.37185639959E+02  0.25688126022E+02  0.68829771449E+03  0.71096847208E+03  0.17227818455E+03 0.  0.
         24    2    5    5    0    0  0.28887873982E+02  0.78878018455E+02  0.34390204788E+03  0.36235911655E+03  0.77325673317E+02 0.  0.
          5    1    5    5  501    0  0.82977659772E+01 -0.53189892433E+02  0.34439566661E+03  0.34860935553E+03  0.47000000000E+01 0. -1.
        -13    1    6    6    0    0  0.41358717069E+02  0.54038732154E+02  0.13070999283E+03  0.14736292029E+03  0.00000000000E+00 0.  1.
         14    1    6    6    0    0 -0.12470843087E+02  0.24839286301E+02  0.21319205505E+03  0.21499619626E+03  0.00000000000E+00 0. -1.
         -5    1    3    3    0  503  0.24429511982E+02 -0.62748369395E+02  0.66480146184E+02  0.94741008830E+02  0.47000000000E+01 0.  1.
         11    1    4    4    0    0  0.14900697023E+02  0.11213420500E+02 -0.62334859113E+01  0.19662856295E+02  0.00000000000E+00 0. -1.
        -12    1    4    4    0    0 -0.76515848965E+02  0.25846822873E+02  0.59902609266E+02  0.10055374678E+03  0.00000000000E+00 0.  1.
</event>
<event>
12    1  0.8747122E-002  0.1791313E+03  0.7818608E-02  0.1168746E+00
         21   -1    0    0  503  502  0.00000000000E+00  0.00000000000E+00  0.25244697898E+03  0.25244697898E+03  0.00000000000E+00 0.  1.
         21   -1    0    0  501  503 -0.00000000000E+00 -0.00000000000E+00 -0.12713377356E+03  0.12713377356E+03  0.00000000000E+00 0. -1.
          6    2    1    2  501    0  0.72346024414E+00 -0.50705353760E+02  0.72027813118E+02  0.19269209841E+03  0.17137876950E+03 0.  0.
         24    2    3    3    0    0 -0.51724636509E+02 -0.57013433146E+02  0.11008805007E+02  0.11184654152E+03  0.80389585653E+02 0.  0.
         -6    2    1    2    0  502 -0.72346024414E+00  0.50705353760E+02  0.53285392298E+02  0.18688865412E+03  0.17180360798E+03 0.  0.
        -24    2    5    5    0    0 -0.75514195341E+01  0.92120593799E+02  0.71872536912E+02  0.14074306841E+03  0.78100717063E+02 0.  0.
          5    1    3    3  501    0  0.52448096753E+02  0.63080793862E+01  0.61019008110E+02  0.80845556893E+02  0.47000000000E+01 0. -1.
        -13    1    4    4    0    0 -0.54257854069E+01 -0.54933124827E+01  0.37050167358E+02  0.37846142876E+02  0.00000000000E+00 0.  1.
         14    1    4    4    0    0 -0.46298851102E+02 -0.51520120664E+02 -0.26041362351E+02  0.74000398645E+02  0.00000000000E+00 0. -1.
         -5    1    5    5    0  502  0.68279592899E+01 -0.41415240039E+02 -0.18587144614E+02  0.46145585709E+02  0.47000000000E+01 0.  1.
         11    1    6    6    0    0  0.12050067713E+02  0.99320267777E+02  0.61337050493E+02  0.11735396664E+03  0.00000000000E+00 0. -1.
        -12    1    6    6    0    0 -0.19601487247E+02 -0.71996739782E+01  0.10535486419E+02  0.23389101774E+02  0.00000000000E+00 0.  1.
</event>
<event>
12    1  0.8747122E-002  0.1776918E+03  0.7818608E-02  0.1170072E+00
         21   -1    0    0  501  502  0.00000000000E+00  0.00000000000E+00  0.55865143460E+03  0.55865143460E+03  0.00000000000E+00 0.  1.
         21   -1    0    0  502  503 -0.00000000000E+00 -0.00000000000E+00 -0.11966990665E+03  0.11966990665E+03  0.00000000000E+00 0.  1.
         -6    2    1    2    0  503 -0.24752307370E+02 -0.35201755342E+02 -0.26947893063E+02  0.17965851861E+03  0.17233442509E+03 0.  0.
        -24    2    3    3    0    0 -0.85037587673E+01 -0.94134445883E+01 -0.83311010231E+02  0.11540944640E+03  0.78852324252E+02 0.  0.
          6    2    1    2  501    0  0.24752307370E+02  0.35201755342E+02  0.46592942101E+03  0.49866282264E+03  0.17240227671E+03 0.  0.
         24    2    5    5    0    0  0.33307441079E+02  0.48162650126E+02  0.47083100745E+03  0.48171317202E+03  0.83286949888E+02 0.  0.
          5    1    5    5  501    0 -0.85551337089E+01 -0.12960894784E+02 -0.49015864389E+01  0.16949650616E+02  0.47000000000E+01 0. -1.
        -13    1    6    6    0    0 -0.65186832883E+01  0.25979935008E+02  0.38018704429E+02  0.46506689210E+02  0.00000000000E+00 0.  1.
         14    1    6    6    0    0  0.39826124367E+02  0.22182715117E+02  0.43281230302E+03  0.43520648281E+03  0.00000000000E+00 0. -1.
         -5    1    3    3    0  503 -0.16248548603E+02 -0.25788310754E+02  0.56363117168E+02  0.64249072212E+02  0.47000000000E+01 0.  1.
         11    1    4    4    0    0  0.27653132602E+02 -0.13373088567E+02 -0.79489541158E+01  0.31728868748E+02  0.00000000000E+00 0. -1.
        -12    1    4    4    0    0 -0.36156891369E+02  0.39596439784E+01 -0.75362056115E+02  0.83680577650E+02  0.00000000000E+00 0.  1.
</event>
<event>
12    1  0.8747122E-002  0.2021276E+03  0.7818608E-02  0.1148104E+00
         21   -1    0    0  503  502  0.00000000000E+00  0.00000000000E+00  0.49087384128E+03  0.49087384128E+03  0.00000000000E+00 0. -1.
         21   -1    0    0  501  503 -0.00000000000E+00 -0.00000000000E+00 -0.31156493713E+03  0.31156493713E+03  0.00000000000E+00 0. -1.
          6    2    1    2  501    0  0.16694579471E+01  0.10606182063E+03 -0.25407971718E+03  0.32423249031E+03  0.17122589818E+03 0.  0.
         24    2    3    3    0    0  0.13807410599E+02  0.94747625809E+02 -0.77082544556E+02  0.14639708885E+03  0.79514978233E+02 0.  0.
         -6    2    1    2    0  502 -0.16694579471E+01 -0.10606182063E+03  0.43338862133E+03  0.47820628810E+03  0.17205714165E+03 0.  0.
        -24    2    5    5    0    0 -0.10394841536E+02 -0.84929223793E+02  0.43854550530E+03  0.45430226292E+03  0.82142316086E+02 0.  0.
          5    1    3    3  501    0 -0.12137952652E+02  0.11314194816E+02 -0.17699717262E+03  0.17783540146E+03  0.47000000000E+01 0. -1.
        -11    1    4    4    0    0 -0.58151853279E+00 -0.14270608025E+02 -0.62174719197E+01  0.15577078490E+02  0.00000000000E+00 0.  1.
         12    1    4    4    0    0  0.14388929132E+02  0.10901823383E+03 -0.70865072637E+02  0.13082001036E+03  0.00000000000E+00 0. -1.
         -5    1    5    5    0  502  0.87253835892E+01 -0.21132596832E+02 -0.51568839632E+01  0.23904025181E+02  0.47000000000E+01 0.  1.
         13    1    6    6    0    0 -0.35882950474E+02 -0.41693713047E+02  0.33201447232E+03  0.33654057953E+03  0.00000000000E+00 0. -1.
        -14    1    6    6    0    0  0.25488108937E+02 -0.43235510745E+02  0.10653103297E+03  0.11776168338E+03  0.00000000000E+00 0.  1.
</event>
<event>
12    1  0.8747122E-002  0.2134375E+03  0.7818608E-02  0.1138998E+00
         21   -1    0    0  501  502  0.00000000000E+00  0.00000000000E+00  0.21290255938E+03  0.21290255938E+03  0.00000000000E+00 0.  1.
         21   -1    0    0  502  503 -0.00000000000E+00 -0.00000000000E+00 -0.21458523659E+03  0.21458523659E+03  0.00000000000E+00 0.  1.
         -6    2    1    2    0  503 -0.11255185317E+03  0.55862666832E+02 -0.17220679139E+02  0.21413103613E+03  0.17253113240E+03 0.  0.
        -24    2    3    3    0    0 -0.93024500123E+02  0.10448296544E+03 -0.15845602696E+02  0.16150754528E+03  0.79141369507E+02 0.  0.
          6    2    1    2  501    0  0.11255185317E+03 -0.55862666832E+02  0.15538001927E+02  0.21335675983E+03  0.17172978852E+03 0.  0.
         24    2    5    5    0    0  0.95852398772E+02 -0.87242776240E+02  0.53969641280E+02  0.16079571012E+03  0.78380825825E+02 0.  0.
          5    1    5    5  501    0  0.16699454396E+02  0.31380109408E+02 -0.38431639353E+02  0.52561049713E+02  0.47000000000E+01 0. -1.
        -13    1    6    6    0    0 -0.11344701755E+02 -0.54759460497E+01 -0.51137952463E+01  0.13595556070E+02  0.00000000000E+00 0.  1.
         14    1    6    6    0    0  0.10719710053E+03 -0.81766830191E+02  0.59083436526E+02  0.14720015405E+03  0.00000000000E+00 0. -1.
         -5    1    3    3    0  503 -0.19527353045E+02 -0.48620298611E+02 -0.13750764426E+01  0.52623490850E+02  0.47000000000E+01 0.  1.
         11    1    4    4    0    0 -0.74012462937E+02  0.34743524309E+02 -0.31373091118E+02  0.87574128587E+02  0.00000000000E+00 0. -1.
        -12    1    4    4    0    0 -0.19012037186E+02  0.69739441134E+02  0.15527488421E+02  0.73933416696E+02  0.00000000000E+00 0.  1.
</event>
<event>
12    1  0.8747122E-002  0.2247669E+03  0.7818608E-02  0.1130442E+00
         21   -1    0    0  503  502  0.00000000000E+00  0.00000000000E+00  0.16460244611E+03  0.16460244611E+03  0.00000000000E+00 0. -1.
         21   -1    0    0  501  503 -0.00000000000E+00 -0.00000000000E+00 -0.31979560920E+03  0.31979560920E+03  0.00000000000E+00 0. -1.
          6    2    1    2  501    0  0.26357178289E+02 -0.14185711426E+03 -0.28168016368E+02  0.22652500984E+03  0.17234268544E+03 0.  0.
         24    2    3    3    0    0  0.68610846562E+02 -0.41747944799E+02 -0.31536967557E+02  0.11771022167E+03  0.80067326685E+02 0.  0.
         -6    2    1    2    0  502 -0.26357178289E+02  0.14185711426E+03 -0.12702514672E+03  0.25787304547E+03  0.17188652643E+03 0.  0.
        -24    2    5    5    0    0 -0.52536370766E+01  0.68746855809E+02  0.43065965275E+01  0.10601592142E+03  0.80418268659E+02 0.  0.
          5    1    3    3  501    0 -0.42253668273E+02 -0.10010916946E+03  0.33689511888E+01  0.10881478817E+03  0.47000000000E+01 0. -1.
        -11    1    4    4    0    0  0.67853908393E+02 -0.61736548606E+02 -0.17807201388E+02  0.93448652956E+02  0.00000000000E+00 0.  1.
         12    1    4    4    0    0  0.75693816878E+00  0.19988603807E+02 -0.13729766169E+02  0.24261568717E+02  0.00000000000E+00 0. -1.
         -5    1    5    5    0  502 -0.21103541213E+02  0.73110258447E+02 -0.13133174325E+03  0.15185712406E+03  0.47000000000E+01 0.  1.
         13    1    6    6    0    0 -0.38809482331E+01  0.76652593659E+02 -0.20914360575E+02  0.79549307679E+02  0.00000000000E+00 0. -1.
        -14    1    6    6    0    0 -0.13726888434E+01 -0.79057378499E+01  0.25220957103E+02  0.26466613739E+02  0.00000000000E+00 0.  1.
</event>
<event>
12    1  0.8747122E-002  0.3534022E+03  0.7818608E-02  0.1061459E+00
         21   -1    0    0  503  502  0.00000000000E+00  0.00000000000E+00  0.80969200737E+02  0.80969200737E+02  0.00000000000E+00 0.  1.
         21   -1    0    0  501  503 -0.00000000000E+00 -0.00000000000E+00 -0.19773213739E+04  0.19773213739E+04  0.00000000000E+00 0. -1.
          6    2    1    2  501    0 -0.11190836764E+03  0.28705183527E+03 -0.14338975562E+04  0.14762618773E+04  0.16841819887E+03 0.  0.
         24    2    3    3    0    0 -0.10523875290E+03  0.11315786814E+03 -0.63309690251E+03  0.65675753163E+03  0.81479255956E+02 0.  0.
         -6    2    1    2    0  502  0.11190836764E+03 -0.28705183527E+03 -0.46245461693E+03  0.58202869734E+03  0.17312103548E+03 0.  0.
        -24    2    5    5    0    0  0.14774386925E+03 -0.24515160889E+03 -0.38161704069E+03  0.48406637868E+03  0.82226096673E+02 0.  0.
          5    1    3    3  501    0 -0.66696147433E+01  0.17389396714E+03 -0.80080065374E+03  0.81950434568E+03  0.47000000000E+01 0. -1.
        -13    1    4    4    0    0 -0.23580804030E+02  0.20748863952E+02 -0.39396640608E+02  0.50385166123E+02  0.00000000000E+00 0.  1.
         14    1    4    4    0    0 -0.81657948870E+02  0.92409004185E+02 -0.59370026190E+03  0.60637236550E+03  0.00000000000E+00 0. -1.
         -5    1    5    5    0  502 -0.35835501606E+02 -0.41900226382E+02 -0.80837576241E+02  0.97962318667E+02  0.47000000000E+01 0.  1.
         11    1    6    6    0    0  0.41502908664E+02 -0.53540958935E+02 -0.15346370244E+03  0.16775051022E+03  0.00000000000E+00 0. -1.
        -12    1    6    6    0    0  0.10624096059E+03 -0.19161064996E+03 -0.22815333825E+03  0.31631586846E+03  0.00000000000E+00 0.  1.
</event>
<event>
12    1  0.8747122E-002  0.1967954E+03  0.7818608E-02  0.1152864E+00
         21   -1    0    0  503  502  0.00000000000E+00  0.00000000000E+00  0.29809374551E+04  0.29809374551E+04  0.00000000000E+00 0. -1.
         21   -1    0    0  501  503 -0.00000000000E+00 -0.00000000000E+00 -0.16075768693E+02  0.16075768693E+02  0.00000000000E+00 0. -1.
          6    2    1    2  501    0 -0.95537639910E+02 -0.20808355756E+00  0.80801136187E+03  0.83120350256E+03  0.16996887311E+03 0.  0.
         24    2    3    3    0    0 -0.92132856094E+02  0.36883602898E+02  0.75814231562E+03  0.76878237208E+03  0.79985633426E+02 0.  0.
         -6    2    1    2    0  502  0.95537639910E+02  0.20808355756E+00  0.21568503246E+04  0.21658097213E+04  0.17204924345E+03 0.  0.
        -24    2    5    5    0    0 -0.15026570368E+02  0.76808705426E+00  0.11489474910E+04  0.11518496776E+04  0.80317837149E+02 0.  0.
          5    1    3    3  501    0 -0.34047838155E+01 -0.37091686455E+02  0.49869046245E+02  0.62421130479E+02  0.47000000000E+01 0. -1.
        -11    1    4    4    0    0 -0.56240667592E+02  0.61934389663E+02  0.50597193232E+03  0.51284157165E+03  0.00000000000E+00 0.  1.
         12    1    4    4    0    0 -0.35892188502E+02 -0.25050786766E+02  0.25217038330E+03  0.25594080044E+03  0.00000000000E+00 0. -1.
         -5    1    5    5    0  502  0.11056421028E+03 -0.56000349669E+00  0.10079028336E+04  0.10139600437E+04  0.47000000000E+01 0.  1.
         11    1    6    6    0    0  0.73367903091E+01  0.37131117213E+02  0.44372701284E+03  0.44533830992E+03  0.00000000000E+00 0. -1.
        -12    1    6    6    0    0 -0.22363360677E+02 -0.36363030158E+02  0.70522047815E+03  0.70651136768E+03  0.00000000000E+00 0.  1.
</event>
<event>
12    1  0.8747122E-002  0.1905177E+03  0.7818608E-02  0.1158351E+00
         21   -1    0    0  503  502  0.00000000000E+00  0.00000000000E+00  0.73641903609E+02  0.73641903609E+02  0.00000000000E+00 0.  1.
         21   -1    0    0  501  503 -0.00000000000E+00 -0.00000000000E+00 -0.13813979513E+04  0.13813979513E+04  0.00000000000E+00 0.  1.
          6    2    1    2  501    0  0.22692940831E+02  0.73765745167E+02 -0.12396426892E+04  0.12541973521E+04  0.17418566612E+03 0.  0.
         24    2    3    3    0    0 -0.31975686459E+02  0.96023544843E+02 -0.81432168007E+03  0.82477434467E+03  0.83005754702E+02 0.  0.
         -6    2    1    2    0  502 -0.22692940831E+02 -0.73765745167E+02 -0.68113358463E+02  0.20084250283E+03  0.17245847795E+03 0.  0.
        -24    2    5    5    0    0 -0.69062673087E+02 -0.77754072114E+02 -0.75722175039E+02  0.15345006766E+03  0.83652417353E+02 0.  0.
          5    1    3    3  501    0  0.54668627291E+02 -0.22257799676E+02 -0.42532100915E+03  0.42942300739E+03  0.47000000000E+01 0. -1.
        -11    1    4    4    0    0 -0.44036730459E+02  0.48622690361E+02 -0.65070507602E+03  0.65400343700E+03  0.00000000000E+00 0.  1.
         12    1    4    4    0    0  0.12061043999E+02  0.47400854482E+02 -0.16361660405E+03  0.17077090768E+03  0.00000000000E+00 0. -1.
         -5    1    5    5    0  502  0.46369732256E+02  0.39883269471E+01  0.76088165755E+01  0.47392435166E+02  0.47000000000E+01 0.  1.
         13    1    6    6    0    0 -0.48946599992E+02 -0.32612238880E+02 -0.84801575139E+02  0.10320191336E+03  0.00000000000E+00 0. -1.
        -14    1    6    6    0    0 -0.20116073095E+02 -0.45141833234E+02  0.90794001000E+01  0.50248154301E+02  0.00000000000E+00 0.  1.
</event>
<event>
12    1  0.8747122E-002  0.3863655E+03  0.7818608E-02  0.1048622E+00
         21   -1    0    0  503  502  0.00000000000E+00  0.00000000000E+00  0.29811609082E+03  0.29811609082E+03  0.00000000000E+00 0.  1.
         21   -1    0    0  501  503 -0.00000000000E+00 -0.00000000000E+00 -0.60227634613E+03  0.60227634613E+03  0.00000000000E+00 0. -1.
          6    2    1    2  501    0 -0.32292059370E+03  0.12349116347E+03 -0.33717565220E+03  0.51280181596E+03  0.17248334621E+03 0.  0.
         24    2    3    3    0    0 -0.17755307643E+03  0.42247670355E+00 -0.15047778657E+03  0.24605137121E+03  0.79827561581E+02 0.  0.
         -6    2    1    2    0  502  0.32292059370E+03 -0.12349116347E+03  0.33015396891E+02  0.38759062100E+03  0.17207177502E+03 0.  0.
        -24    2    5    5    0    0  0.14179441344E+03 -0.10485076737E+03 -0.28735133045E+02  0.19526439946E+03  0.78760007132E+02 0.  0.
          5    1    3    3  501    0 -0.14536751727E+03  0.12306868677E+03 -0.18669786563E+03  0.26675044474E+03  0.47000000000E+01 0. -1.
        -11    1    4    4    0    0  0.77771301512E+01 -0.41306612790E+01 -0.10800965766E+02  0.13935816354E+02  0.00000000000E+00 0.  1.
         12    1    4    4    0    0 -0.18533020658E+03  0.45531379825E+01 -0.13967682081E+03  0.23211555486E+03  0.00000000000E+00 0. -1.
         -5    1    5    5    0  502  0.18112618027E+03 -0.18640396096E+02  0.61750529936E+02  0.19232622154E+03  0.47000000000E+01 0.  1.
         13    1    6    6    0    0  0.65629927363E+02 -0.82718480313E+02  0.11698237749E+02  0.10623786104E+03  0.00000000000E+00 0. -1.
        -14    1    6    6    0    0  0.76164486076E+02 -0.22132287060E+02 -0.40433370794E+02  0.89026538422E+02  0.00000000000E+00 0.  1.
</event>
<event>
12    1  0.8747122E-002  0.2640736E+03  0.7818608E-02  0.1104992E+00
         21   -1    0    0  501  502  0.00000000000E+00  0.00000000000E+00  0.17874780056E+03  0.17874780056E+03  0.00000000000E+00 0.  1.
         21   -1    0    0  502  503 -0.00000000000E+00 -0.00000000000E+00 -0.52784427081E+03  0.52784427081E+03  0.00000000000E+00 0.  1.
         -6    2    1    2    0  503  0.54470751907E+02 -0.19307293411E+03 -0.35722080014E+03  0.44423142315E+03  0.17172838020E+03 0.  0.
        -24    2    3    3    0    0 -0.10013392603E+02 -0.15781659812E+03 -0.18268566195E+03  0.25479589696E+03  0.80873675283E+02 0.  0.
          6    2    1    2  501    0 -0.54470751907E+02  0.19307293411E+03  0.81243298880E+01  0.26236064821E+03  0.16888719399E+03 0.  0.
         24    2    5    5    0    0  0.35681754658E+02  0.79721315892E+02  0.17358157580E+02  0.11715934875E+03  0.76133642635E+02 0.  0.
          5    1    5    5  501    0 -0.90152506565E+02  0.11335161822E+03 -0.92338276917E+01  0.14520129946E+03  0.47000000000E+01 0. -1.
        -13    1    6    6    0    0  0.50493487954E+02  0.74302385048E+02 -0.47971249894E+01  0.89963599070E+02  0.00000000000E+00 0.  1.
         14    1    6    6    0    0 -0.14811733295E+02  0.54189308447E+01  0.22155282569E+02  0.27195749676E+02  0.00000000000E+00 0. -1.
         -5    1    3    3    0  503  0.64484144510E+02 -0.35256335992E+02 -0.17453513819E+03  0.18943552619E+03  0.47000000000E+01 0.  1.
         13    1    4    4    0    0 -0.20961440959E+01 -0.62952365780E+02 -0.19610405434E+02  0.65969403352E+02  0.00000000000E+00 0. -1.
        -14    1    4    4    0    0 -0.79172485072E+01 -0.94864232337E+02 -0.16307525652E+03  0.18882649361E+03  0.00000000000E+00 0.  1.
</event>
<event>
12    1  0.8747122E-002  0.1867083E+03  0.7818608E-02  0.1161840E+00
         21   -1    0    0  501  502  0.00000000000E+00  0.00000000000E+00  0.24105529771E+03  0.24105529771E+03  0.00000000000E+00 0.  1.
         21   -1    0    0  502  503 -0.00000000000E+00 -0.00000000000E+00 -0.17058038449E+03  0.17058038449E+03  0.00000000000E+00 0.  1.
         -6    2    1    2    0  503  0.40712022938E+02 -0.58658716698E+02 -0.46848430858E+02  0.19249614392E+03  0.17251572710E+03 0.  0.
        -24    2    3    3    0    0 -0.65804231662E+01 -0.86797430244E+02  0.18204508136E+01  0.11888152104E+03  0.80946934090E+02 0.  0.
          6    2    1    2  501    0 -0.40712022938E+02  0.58658716698E+02  0.11732334408E+03  0.21913953828E+03  0.17076023048E+03 0.  0.
         24    2    5    5    0    0 -0.45803011847E+02  0.82812197283E+02  0.13753266823E+03  0.18689336680E+03  0.84012616959E+02 0.  0.
          5    1    5    5  501    0  0.50909889093E+01 -0.24153480585E+02 -0.20209324153E+02  0.32246171481E+02  0.47000000000E+01 0. -1.
        -13    1    6    6    0    0 -0.63767576947E+02  0.85577864627E+02  0.10552363552E+03  0.15008368478E+03  0.00000000000E+00 0.  1.
         14    1    6    6    0    0  0.17964565099E+02 -0.27656673433E+01  0.32009032708E+02  0.36809682014E+02  0.00000000000E+00 0. -1.
         -5    1    3    3    0  503  0.47292446104E+02  0.28138713546E+02 -0.48668881672E+02  0.73614622880E+02  0.47000000000E+01 0.  1.
         13    1    4    4    0    0  0.21198040874E+02  0.37003068860E+01 -0.95374902027E+01  0.23537479205E+02  0.00000000000E+00 0. -1.
        -14    1    4    4    0    0 -0.27778464041E+02 -0.90497737130E+02  0.11357941016E+02  0.95344041839E+02  0.00000000000E+00 0.  1.
</event>
<event>
12    1  0.8747122E-002  0.1971313E+03  0.7818608E-02  0.1152298E+00
         21   -1    0    0  503  502  0.00000000000E+00  0.00000000000E+00  0.15289958906E+03  0.15289958906E+03  0.00000000000E+00 0. -1.
         21   -1    0    0  501  503 -0.00000000000E+00 -0.00000000000E+00 -0.25410253434E+03  0.25410253434E+03  0.00000000000E+00 0. -1.
          6    2    1    2  501    0 -0.72965225668E+02  0.61658260412E+02 -0.60859448012E+02  0.20631192348E+03  0.17243860392E+03 0.  0.
         24    2    3    3    0    0  0.20562933870E+02 -0.13171427138E+01 -0.31466876711E+02  0.89695324001E+02  0.81427990909E+02 0.  0.
         -6    2    1    2    0  502  0.72965225668E+02 -0.61658260412E+02 -0.40343497258E+02  0.20069019992E+03  0.17182343653E+03 0.  0.
        -24    2    5    5    0    0  0.62124334056E+02 -0.58789641360E+02  0.35701086805E+02  0.12367966382E+03  0.81892837475E+02 0.  0.
          5    1    3    3  501    0 -0.93528159538E+02  0.62975403126E+02 -0.29392571301E+02  0.11661659947E+03  0.47000000000E+01 0. -1.
        -11    1    4    4    0    0 -0.11722343323E+02 -0.34293246543E+02 -0.52517614469E+01  0.36619954803E+02  0.00000000000E+00 0.  1.
         12    1    4    4    0    0  0.32285277193E+02  0.32976103830E+02 -0.26215115264E+02  0.53075369198E+02  0.00000000000E+00 0. -1.
         -5    1    5    5    0  502  0.10840891612E+02 -0.28686190519E+01 -0.76044584063E+02  0.77010536107E+02  0.47000000000E+01 0.  1.
         13    1    6    6    0    0  0.56655287216E+02 -0.50268394925E+02 -0.10425019313E+02  0.76455308028E+02  0.00000000000E+00 0. -1.
        -14    1    6    6    0    0  0.54690468395E+01 -0.85212464347E+01  0.46126106118E+02  0.47224355789E+02  0.00000000000E+00 0.  1.
</event>
<event>
12    1  0.8747122E-002  0.1865120E+03  0.7818608E-02  0.1161846E+00
         21   -1    0    0  501  502  0.00000000000E+00  0.00000000000E+00  0.96695542021E+02  0.96695542021E+02  0.00000000000E+00 0. -1.
         21   -1    0    0  502  503 -0.00000000000E+00 -0.00000000000E+00 -0.42651193329E+03  0.42651193329E+03  0.00000000000E+00 0. -1.
         -6    2    1    2    0  503 -0.27963743480E+02  0.67457307635E+02 -0.26936919737E+03  0.32714480218E+03  0.17067951781E+03 0.  0.
        -24    2    3    3    0    0 -0.60144813934E+02  0.12844832760E+02 -0.84100187913E+02  0.13127535696E+03  0.79862315051E+02 0.  0.
          6    2    1    2  501    0  0.27963743480E+02 -0.67457307635E+02 -0.60447193901E+02  0.19606267313E+03  0.17162240309E+03 0.  0.
         24    2    5    5    0    0  0.13949158958E+02 -0.56552138219E+02 -0.10765291448E+03  0.14540893334E+03  0.78497672104E+02 0.  0.
          5    1    5    5  501    0  0.14014584521E+02 -0.10905169416E+02  0.47205720582E+02  0.50653739792E+02  0.47000000000E+01 0. -1.
        -11    1    6    6    0    0 -0.21768210262E+02  0.52609245102E+01 -0.10209309074E+02  0.24612238754E+02  0.00000000000E+00 0.  1.
         12    1    6    6    0    0  0.35717369220E+02 -0.61813062729E+02 -0.97443605409E+02  0.12079669459E+03  0.00000000000E+00 0. -1.
         -5    1    3    3    0  503  0.32181070454E+02  0.54612474875E+02 -0.18526900946E+03  0.19586944523E+03  0.47000000000E+01 0.  1.
         11    1    4    4    0    0 -0.36900838407E+02 -0.25606973408E+02 -0.71799061824E+02  0.84690579412E+02  0.00000000000E+00 0. -1.
        -12    1    4    4    0    0 -0.23243975527E+02  0.38451806168E+02 -0.12301126090E+02  0.46584777545E+02  0.00000000000E+00 0.  1.
</event>
<event>
12    1  0.8747122E-002  0.2033608E+03  0.7818608E-02  0.1147499E+00
         21   -1    0    0  503  502  0.00000000000E+00  0.00000000000E+00  0.15609219272E+04  0.15609219272E+04  0.00000000000E+00 0. -1.
         21   -1    0    0  501  503 -0.00000000000E+00 -0.00000000000E+00 -0.37430949113E+02  0.37430949113E+02  0.00000000000E+00 0. -1.
          6    2    1    2  501    0 -0.10132633865E+03  0.32022173284E+02  0.32643427557E+03  0.38459713305E+03  0.17338734669E+03 0.  0.
         24    2    3    3    0    0 -0.72465787265E+02 -0.36769111804E+02  0.12101878757E+03  0.16600439520E+03  0.79427038047E+02 0.  0.
         -6    2    1    2    0  502  0.10132633865E+03 -0.32022173284E+02  0.11970567025E+04  0.12137557432E+04  0.17019344518E+03 0.  0.
        -24    2    5    5    0    0  0.94055572162E+02 -0.80472119928E+02  0.78104589398E+03  0.79484364725E+03  0.80134401592E+02 0.  0.
          5    1    3    3  501    0 -0.28860551388E+02  0.68791285088E+02  0.20541548800E+03  0.21859273785E+03  0.47000000000E+01 0. -1.
        -11    1    4    4    0    0 -0.56983438174E+02 -0.28401212562E+01  0.11479856517E+03  0.12819473109E+03  0.00000000000E+00 0.  1.
         12    1    4    4    0    0 -0.15482349091E+02 -0.33928990548E+02  0.62202224013E+01  0.37809664105E+02  0.00000000000E+00 0. -1.
         -5    1    5    5    0  502  0.72707664917E+01  0.48449946644E+02  0.41601080849E+03  0.41891209597E+03  0.47000000000E+01 0.  1.
         13    1    6    6    0    0  0.17783485784E+02 -0.23229021787E+02  0.43246900469E+03  0.43345735642E+03  0.00000000000E+00 0. -1.
        -14    1    6    6    0    0  0.76272086378E+02 -0.57243098140E+02  0.34857688929E+03  0.36138629082E+03  0.00000000000E+00 0.  1.
</event>
<event>
12    1  0.8747122E-002  0.1923408E+03  0.7818608E-02  0.1157117E+00
         21   -1    0    0  501  502  0.00000000000E+00  0.00000000000E+00  0.38299015419E+03  0.38299015419E+03  0.00000000000E+00 0.  1.
         21   -1    0    0  502  503 -0.00000000000E+00 -0.00000000000E+00 -0.15277070073E+03  0.15277070073E+03  0.00000000000E+00 0.  1.
         -6    2    1    2    0  503  0.59625690385E+02 -0.59164943352E+02 -0.50359454218E+02  0.19558517710E+03  0.16929788362E+03 0.  0.
        -24    2    3    3    0    0  0.33691390891E+02 -0.84054702011E+02  0.13831672228E+02  0.12186490383E+03  0.80370621991E+02 0.  0.
          6    2    1    2  501    0 -0.59625690385E+02  0.59164943352E+02  0.28057890768E+03  0.34017567782E+03  0.17302963582E+03 0.  0.
         24    2    5    5    0    0 -0.84567382703E+02  0.85927987068E+02  0.16562522465E+03  0.21944959214E+03  0.78683843752E+02 0.  0.
          5    1    5    5  501    0  0.24941692318E+02 -0.26763043716E+02  0.11495368302E+03  0.12072608569E+03  0.47000000000E+01 0. -1.
        -13    1    6    6    0    0 -0.83255215308E+02  0.31373439779E+02  0.94351105923E+02  0.12968367202E+03  0.00000000000E+00 0.  1.
         14    1    6    6    0    0 -0.13121673948E+01  0.54554547289E+02  0.71274118732E+02  0.89765920116E+02  0.00000000000E+00 0. -1.
         -5    1    3    3    0  503  0.25934299494E+02  0.24889758659E+02 -0.64191126445E+02  0.73720273268E+02  0.47000000000E+01 0.  1.
         13    1    4    4    0    0 -0.87974063409E+01  0.98630659866E+00  0.24645594206E+02  0.26187257832E+02  0.00000000000E+00 0. -1.
        -14    1    4    4    0    0  0.42488797231E+02 -0.85041008610E+02 -0.10813921978E+02  0.95677646000E+02  0.00000000000E+00 0.  1.
</event>
<event>
12    1  0.8747122E-002  0.2115977E+03  0.7818608E-02  0.1140587E+00
         21   -1    0    0  503  502  0.00000000000E+00  0.00000000000E+00  0.40390014331E+03  0.40390014331E+03  0.00000000000E+00 0. -1.
         21   -1    0    0  501  503 -0.00000000000E+00 -0.00000000000E+00 -0.11353912174E+03  0.11353912174E+03  0.00000000000E+00 0. -1.
          6    2    1    2  501    0 -0.22669493670E+02 -0.11819378472E+03  0.19062717533E+03  0.28480224719E+03  0.17404000500E+03 0.  0.
         24    2    3    3    0    0 -0.40647926182E+01  0.23392464179E+01  0.31537244939E+02  0.84287802704E+02  0.78024619534E+02 0.  0.
         -6    2    1    2    0  502  0.22669493670E+02  0.11819378472E+03  0.99733846229E+02  0.23263701786E+03  0.17230631244E+03 0.  0.
        -24    2    5    5    0    0  0.29310094239E+02  0.49433683561E+02 -0.17482039171E+02  0.96498474906E+02  0.75521939004E+02 0.  0.
          5    1    3    3  501    0 -0.18604701052E+02 -0.12053303113E+03  0.15908993039E+03  0.20051444449E+03  0.47000000000E+01 0. -1.
        -13    1    4    4    0    0 -0.26841424609E+02 -0.28812562935E+02  0.12935812693E+02  0.41448294391E+02  0.00000000000E+00 0.  1.
         14    1    4    4    0    0  0.22776631991E+02  0.31151809353E+02  0.18601432247E+02  0.42839508312E+02  0.00000000000E+00 0. -1.
         -5    1    5    5    0  502 -0.66406005688E+01  0.68760101154E+02  0.11721588540E+03  0.13613854295E+03  0.47000000000E+01 0.  1.
         13    1    6    6    0    0  0.14275584642E+02  0.64675068422E+02  0.37614064393E+01  0.66338563224E+02  0.00000000000E+00 0. -1.
        -14    1    6    6    0    0  0.15034509597E+02 -0.15241384861E+02 -0.21243445610E+02  0.30159911682E+02  0.00000000000E+00 0.  1.
</event>
<event>
12    1  0.8747122E-002  0.1777986E+03  0.7818608E-02  0.1170134E+00
         21   -1    0    0  503  502  0.00000000000E+00  0.00000000000E+00  0.54875502370E+02  0.54875502370E+02  0.00000000000E+00 0. -1.
         21   -1    0    0  501  503 -0.00000000000E+00 -0.00000000000E+00 -0.15815519142E+04  0.15815519142E+04  0.00000000000E+00 0. -1.
          6    2    1    2  501    0  0.42914071327E+02 -0.92093097202E+01 -0.14170930860E+04  0.14282034697E+04  0.17229598880E+03 0.  0.
         24    2    3    3    0    0  0.92134619724E+02 -0.27192810623E+02 -0.10685614673E+04  0.10757230478E+04  0.78283005193E+02 0.  0.
         -6    2    1    2    0  502 -0.42914071327E+02  0.92093097202E+01 -0.10958332588E+03  0.20822394685E+03  0.17152923316E+03 0.  0.
        -24    2    5    5    0    0 -0.90444240732E+02  0.29657327182E+02 -0.67949130921E+02  0.14164516186E+03  0.79915891708E+02 0.  0.
          5    1    3    3  501    0 -0.49220548396E+02  0.17983500902E+02 -0.34853161860E+03  0.35248042194E+03  0.47000000000E+01 0. -1.
        -11    1    4    4    0    0  0.86592509074E+01  0.12263586690E+02 -0.35501584215E+02  0.38545306674E+02  0.00000000000E+00 0.  1.
         12    1    4    4    0    0  0.83475368816E+02 -0.39456397313E+02 -0.10330598831E+04  0.10371777411E+04  0.00000000000E+00 0. -1.
         -5    1    5    5    0  502  0.47530169405E+02 -0.20448017462E+02 -0.41634194956E+02  0.66578784995E+02  0.47000000000E+01 0.  1.
         13    1    6    6    0    0 -0.65035309047E+02  0.13817269759E+02  0.97951383554E+00  0.66494118640E+02  0.00000000000E+00 0. -1.
        -14    1    6    6    0    0 -0.25408931685E+02  0.15840057424E+02 -0.68928644757E+02  0.75151043217E+02  0.00000000000E+00 0.  1.
</event>
<event>
12    1  0.8747122E-002  0.1820558E+03  0.7818608E-02  0.1167068E+00
         21   -1    0    0  503  502  0.00000000000E+00  0.00000000000E+00  0.56181353028E+03  0.56181353028E+03  0.00000000000E+00 0.  1.
         21   -1    0    0  501  503 -0.00000000000E+00 -0.00000000000E+00 -0.11582389622E+03  0.11582389622E+03  0.00000000000E+00 0.  1.
          6    2    1    2  501    0 -0.60764067875E+01  0.44086432730E+02 -0.19313736928E+02  0.17798599479E+03  0.17124677409E+03 0.  0.
         24    2    3    3    0    0  0.34100876194E+02  0.56184843963E+02 -0.59419094846E+02  0.11975271087E+03  0.80563493471E+02 0.  0.
         -6    2    1    2    0  502  0.60764067875E+01 -0.44086432730E+02  0.46530337099E+03  0.49965143170E+03  0.17653268785E+03 0.  0.
        -24    2    5    5    0    0  0.46621880197E+02  0.15890223698E+02  0.35848923315E+03  0.37052945537E+03  0.79695972854E+02 0.  0.
          5    1    3    3  501    0 -0.40177282982E+02 -0.12098411233E+02  0.40105357919E+02  0.58233283919E+02  0.47000000000E+01 0. -1.
        -13    1    4    4    0    0 -0.17110414893E+02  0.43863331830E+02 -0.11322843191E+02  0.48424838203E+02  0.00000000000E+00 0.  1.
         14    1    4    4    0    0  0.51211291088E+02  0.12321512133E+02 -0.48096251655E+02  0.71327872668E+02  0.00000000000E+00 0. -1.
         -5    1    5    5    0  502 -0.40545473409E+02 -0.59976656429E+02  0.10681413784E+03  0.12912197634E+03  0.47000000000E+01 0.  1.
         11    1    6    6    0    0  0.30495876179E+02  0.77870311583E+01  0.37178122623E+02  0.48711899162E+02  0.00000000000E+00 0. -1.
        -12    1    6    6    0    0  0.16126004018E+02  0.81031925402E+01  0.32131111052E+03  0.32181755620E+03  0.00000000000E+00 0.  1.
</event>
<event>
12    1  0.8747122E-002  0.2043304E+03  0.7818608E-02  0.1147610E+00
         21   -1    0    0  501  502  0.00000000000E+00  0.00000000000E+00  0.16783060410E+03  0.16783060410E+03  0.00000000000E+00 0. -1.
         21   -1    0    0  502  503 -0.00000000000E+00 -0.00000000000E+00 -0.25533128809E+03  0.25533128809E+03  0.00000000000E+00 0.  1.
         -6    2    1    2    0  503 -0.88522380833E+02  0.36599843016E+02  0.69239117172E+01  0.20444765217E+03  0.18048584849E+03 0.  0.
        -24    2    3    3    0    0 -0.87971931764E+01  0.19105325356E+02  0.63000537834E+02  0.10530713728E+03  0.81719773191E+02 0.  0.
          6    2    1    2  501    0  0.88522380833E+02 -0.36599843016E+02 -0.94424595702E+02  0.21871424003E+03  0.17246493586E+03 0.  0.
         24    2    5    5    0    0  0.22219975059E+02  0.21001234919E+02 -0.89403716363E+02  0.13061660998E+03  0.90182565626E+02 0.  0.
          5    1    5    5  501    0  0.66302405774E+02 -0.57601077936E+02 -0.50208793393E+01  0.88097630048E+02  0.47000000000E+01 0. -1.
        -13    1    6    6    0    0 -0.30353703101E+02  0.28347225721E+02 -0.46626370599E+02  0.62441420014E+02  0.00000000000E+00 0.  1.
         14    1    6    6    0    0  0.52573678160E+02 -0.73459908018E+01 -0.42777345763E+02  0.68175189964E+02  0.00000000000E+00 0. -1.
         -5    1    3    3    0  503 -0.79725187657E+02  0.17494517661E+02 -0.56076626117E+02  0.99140514885E+02  0.47000000000E+01 0.  1.
         11    1    4    4    0    0 -0.18117485841E+02  0.47041252091E+02  0.55380892103E+02  0.74887688586E+02  0.00000000000E+00 0. -1.
        -12    1    4    4    0    0  0.93202926648E+01 -0.27935926735E+02  0.76196457306E+01  0.30419448696E+02  0.00000000000E+00 0.  1.
</event>
<event>
12    1  0.8747122E-002  0.2646442E+03  0.7818608E-02  0.1104465E+00
         21   -1    0    0  501  502  0.00000000000E+00  0.00000000000E+00  0.97229283467E+03  0.97229283467E+03  0.00000000000E+00 0.  1.
         21   -1    0    0  502  503 -0.00000000000E+00 -0.00000000000E+00 -0.79444624739E+02  0.79444624739E+02  0.00000000000E+00 0.  1.
         -6    2    1    2    0  503  0.20054946295E+03 -0.15271851431E+02  0.60823649376E+03  0.66309830255E+03  0.17115609825E+03 0.  0.
        -24    2    3    3    0    0  0.60289097480E+02 -0.53977131034E+02  0.32981325184E+03  0.34891259245E+03  0.80093134102E+02 0.  0.
          6    2    1    2  501    0 -0.20054946295E+03  0.15271851431E+02  0.28461171617E+03  0.38863915686E+03  0.17199781605E+03 0.  0.
         24    2    5    5    0    0 -0.18424543149E+03 -0.31055216999E+02  0.17604304398E+03  0.26938621018E+03  0.81651523993E+02 0.  0.
          5    1    5    5  501    0 -0.16304031457E+02  0.46327068429E+02  0.10856867219E+03  0.11925294668E+03  0.47000000000E+01 0. -1.
        -13    1    6    6    0    0 -0.15380200981E+03 -0.31618000988E+01  0.16711966008E+03  0.22714320590E+03  0.00000000000E+00 0.  1.
         14    1    6    6    0    0 -0.30443421685E+02 -0.27893416900E+02  0.89233839033E+01  0.42243004279E+02  0.00000000000E+00 0. -1.
         -5    1    3    3    0  503  0.14026036547E+03  0.38705279603E+02  0.27842324191E+03  0.31418571010E+03  0.47000000000E+01 0.  1.
         13    1    4    4    0    0  0.18828453940E+02 -0.24585183687E+02  0.26375449444E+03  0.26556614105E+03  0.00000000000E+00 0. -1.
        -14    1    4    4    0    0  0.41460643539E+02 -0.29391947347E+02  0.66058757400E+02  0.83346451399E+02  0.00000000000E+00 0.  1.
</event>
<event>
12    1  0.8747122E-002  0.1856750E+03  0.7818608E-02  0.1165314E+00
         21   -1    0    0  503  502  0.00000000000E+00  0.00000000000E+00  0.26167248720E+03  0.26167248720E+03  0.00000000000E+00 0.  1.
         21   -1    0    0  501  503 -0.00000000000E+00 -0.00000000000E+00 -0.16405123820E+03  0.16405123820E+03  0.00000000000E+00 0.  1.
          6    2    1    2  501    0  0.34625954460E+02  0.55960638895E+02 -0.55925120236E+02  0.19391444225E+03  0.17362212420E+03 0.  0.
         24    2    3    3    0    0  0.26638381740E+02 -0.89110257892E+00 -0.95830510662E+02  0.12383982479E+03  0.73772745541E+02 0.  0.
         -6    2    1    2    0  502 -0.34625954460E+02 -0.55960638895E+02  0.15354636923E+03  0.23180928315E+03  0.16071249616E+03 0.  0.
        -24    2    5    5    0    0 -0.21960804421E+01 -0.89212057009E+02  0.78278339306E+02  0.14323885996E+03  0.80163948957E+02 0.  0.
          5    1    3    3  501    0  0.79875727196E+01  0.56851741474E+02  0.39905390426E+02  0.70074617456E+02  0.47000000000E+01 0. -1.
        -13    1    4    4    0    0 -0.70273362293E+01  0.19068448081E+02 -0.78408963491E+02  0.80999720509E+02  0.00000000000E+00 0.  1.
         14    1    4    4    0    0  0.33665717970E+02 -0.19959550660E+02 -0.17421547170E+02  0.42840104281E+02  0.00000000000E+00 0. -1.
         -5    1    5    5    0  502 -0.32429874018E+02  0.33251418114E+02  0.75268029928E+02  0.88570423193E+02  0.47000000000E+01 0.  1.
         13    1    6    6    0    0  0.21548029846E+02  0.24223962292E+01  0.29891866648E+02  0.36928434647E+02  0.00000000000E+00 0. -1.
        -14    1    6    6    0    0 -0.23744110288E+02 -0.91634453238E+02  0.48386472658E+02  0.10631042531E+03  0.00000000000E+00 0.  1.
</event>
<event>
12    1  0.8747122E-002  0.1998221E+03  0.7818608E-02  0.1150489E+00
         21   -1    0    0  503  502  0.00000000000E+00  0.00000000000E+00  0.57463233314E+03  0.57463233314E+03  0.00000000000E+00 0. -1.
         21   -1    0    0  501  503 -0.00000000000E+00 -0.00000000000E+00 -0.19986197410E+03  0.19986197410E+03  0.00000000000E+00 0. -1.
          6    2    1    2  501    0  0.89969265110E+02 -0.53023410212E+02 -0.12700486861E+03  0.23439500194E+03  0.16704738725E+03 0.  0.
         24    2    3    3    0    0  0.44026105715E+02 -0.92754150219E+02 -0.56944037245E+02  0.14155150088E+03  0.79073217061E+02 0.  0.
         -6    2    1    2    0  502 -0.89969265110E+02  0.53023410212E+02  0.50177522765E+03  0.54009930530E+03  0.17036117461E+03 0.  0.
        -24    2    5    5    0    0 -0.69931008433E+02  0.55844173749E+02  0.18182524428E+03  0.21947558458E+03  0.84262655342E+02 0.  0.
          5    1    3    3  501    0  0.45943159395E+02  0.39730740007E+02 -0.70060831367E+02  0.92843501057E+02  0.47000000000E+01 0. -1.
        -13    1    4    4    0    0  0.28997132740E+02 -0.32785248712E+02 -0.65871249226E+02  0.79086836546E+02  0.00000000000E+00 0.  1.
         14    1    4    4    0    0  0.15028972976E+02 -0.59968901507E+02  0.89272119808E+01  0.62464664334E+02  0.00000000000E+00 0. -1.
         -5    1    5    5    0  502 -0.20038256677E+02 -0.28207635371E+01  0.31994998336E+03  0.32062372073E+03  0.47000000000E+01 0.  1.
         11    1    6    6    0    0 -0.64714516977E+02  0.57016003539E+01  0.13859364693E+03  0.15306428690E+03  0.00000000000E+00 0. -1.
        -12    1    6    6    0    0 -0.52164914558E+01  0.50142573395E+02  0.43231597349E+02  0.66411297677E+02  0.00000000000E+00 0.  1.
</event>
<event>
12    1  0.8747122E-002  0.1980105E+03  0.7818608E-02  0.1151482E+00
         21   -1    0    0  503  502  0.00000000000E+00  0.00000000000E+00  0.11218685778E+03  0.11218685778E+03  0.00000000000E+00 0.  1.
         21   -1    0    0  501  503 -0.00000000000E+00 -0.00000000000E+00 -0.38690121342E+03  0.38690121342E+03  0.00000000000E+00 0.  1.
          6    2    1    2  501    0  0.89487606420E+02  0.38674929708E+02 -0.21549075111E+03  0.29265069296E+03  0.17234959352E+03 0.  0.
         24    2    3    3    0    0  0.43330067311E+02 -0.41467693221E+02 -0.14538137336E+03  0.17650090487E+03  0.80123413460E+02 0.  0.
         -6    2    1    2    0  502 -0.89487606420E+02 -0.38674929708E+02 -0.59223604528E+02  0.20643737823E+03  0.17206154105E+03 0.  0.
        -24    2    5    5    0    0  0.96040759846E+01  0.16464984949E+02 -0.16233103832E+02  0.85070805981E+02  0.81303101818E+02 0.  0.
          5    1    3    3  501    0  0.46157539108E+02  0.80142622929E+02 -0.70109377747E+02  0.11614978810E+03  0.47000000000E+01 0. -1.
        -13    1    4    4    0    0  0.19213721890E+02  0.11616381716E+02 -0.10034817868E+03  0.10282929737E+03  0.00000000000E+00 0.  1.
         14    1    4    4    0    0  0.24116345421E+02 -0.53084074937E+02 -0.45033194684E+02  0.73671607501E+02  0.00000000000E+00 0. -1.
         -5    1    5    5    0  502 -0.99091682404E+02 -0.55139914657E+02 -0.42990500696E+02  0.12136657225E+03  0.47000000000E+01 0.  1.
         13    1    6    6    0    0  0.44961478438E+02  0.66381543917E+01 -0.13466972294E+01  0.45468816023E+02  0.00000000000E+00 0. -1.
        -14    1    6    6    0    0 -0.35357402454E+02  0.98268305576E+01 -0.14886406602E+02  0.39601989958E+02  0.00000000000E+00 0.  1.
</event>
<event>
12    1  0.8747122E-002  0.2612612E+03  0.7818608E-02  0.1106848E+00
         21   -1    0    0  503  502  0.00000000000E+00  0.00000000000E+00  0.10046178264E+04  0.10046178264E+04  0.00000000000E+00 0. -1.
         21   -1    0    0  501  503 -0.00000000000E+00 -0.00000000000E+00 -0.79018138325E+02  0.79018138325E+02  0.00000000000E+00 0.  1.
          6    2    1    2  501    0  0.19303857477E+03 -0.28609925645E+02  0.25049694417E+03  0.35974291537E+03  0.16906752179E+03 0.  0.
         24    2    3    3    0    0  0.48871268805E+02  0.29501723128E+02  0.67214279827E+02  0.11937694257E+03  0.80463298600E+02 0.  0.
         -6    2    1    2    0  502 -0.19303857477E+03  0.28609925645E+02  0.67510274388E+03  0.72389304933E+03  0.17370956476E+03 0.  0.
        -24    2    5    5    0    0 -0.18583513878E+03  0.48628097671E+02  0.66986827904E+03  0.70148532023E+03  0.80366364574E+02 0.  0.
          5    1    3    3  501    0  0.14416730596E+03 -0.58111648773E+02  0.18328266435E+03  0.24036597280E+03  0.47000000000E+01 0. -1.
        -11    1    4    4    0    0 -0.93395868074E+01 -0.17566751442E+02  0.18223039182E+01  0.19978474154E+02  0.00000000000E+00 0.  1.
         12    1    4    4    0    0  0.58210855612E+02  0.47068474570E+02  0.65391975909E+02  0.99398468413E+02  0.00000000000E+00 0. -1.
         -5    1    5    5    0  502 -0.72034359889E+01 -0.20018172026E+02  0.52344648429E+01  0.22407729102E+02  0.47000000000E+01 0.  1.
         11    1    6    6    0    0 -0.33464670892E+02 -0.12701816335E+02  0.21305121028E+03  0.21603712305E+03  0.00000000000E+00 0. -1.
        -12    1    6    6    0    0 -0.15237046789E+03  0.61329914006E+02  0.45681706876E+03  0.48544819718E+03  0.00000000000E+00 0.  1.
</event>
<event>
12    1  0.8747122E-002  0.1847305E+03  0.7818608E-02  0.1163778E+00
         21   -1    0    0  503  502  0.00000000000E+00  0.00000000000E+00  0.11851287543E+03  0.11851287543E+03  0.00000000000E+00 0.  1.
         21   -1    0    0  501  503 -0.00000000000E+00 -0.00000000000E+00 -0.33287649917E+03  0.33287649917E+03  0.00000000000E+00 0. -1.
          6    2    1    2  501    0  0.45671266653E+02 -0.40788313535E+02 -0.19244526104E+03  0.26536308455E+03  0.17214190956E+03 0.  0.
         24    2    3    3    0    0 -0.67687671783E+01 -0.79684958776E+02 -0.14913164722E+03  0.18687063076E+03  0.79277207171E+02 0.  0.
         -6    2    1    2    0  502 -0.45671266653E+02  0.40788313535E+02 -0.21918362707E+02  0.18602629005E+03  0.17428658826E+03 0.  0.
        -24    2    5    5    0    0 -0.19635441652E+02  0.89290541807E+02  0.92522889260E+01  0.12259104863E+03  0.81145603258E+02 0.  0.
          5    1    3    3  501    0  0.52440033831E+02  0.38896645241E+02 -0.43313613823E+02  0.78492453788E+02  0.47000000000E+01 0. -1.
        -13    1    4    4    0    0 -0.16051077939E+02  0.11025967883E+02 -0.14556213428E+02  0.24312392316E+02  0.00000000000E+00 0.  1.
         14    1    4    4    0    0  0.92823107604E+01 -0.90710926659E+02 -0.13457543379E+03  0.16255823845E+03  0.00000000000E+00 0. -1.
         -5    1    5    5    0  502 -0.26035825001E+02 -0.48502228272E+02 -0.31170651633E+02  0.63435241421E+02  0.47000000000E+01 0.  1.
         13    1    6    6    0    0  0.25053899874E+02  0.68493257627E+02  0.44847568120E+01  0.73069400455E+02  0.00000000000E+00 0. -1.
        -14    1    6    6    0    0 -0.44689341525E+02  0.20797284180E+02  0.47675321140E+01  0.49521648172E+02  0.00000000000E+00 0.  1.
</event>
<event>
12    1  0.8747122E-002  0.1979761E+03  0.7818608E-02  0.1151609E+00
         21   -1    0    0  503  502  0.00000000000E+00  0.00000000000E+00  0.20814158061E+03  0.20814158061E+03  0.00000000000E+00 0.  1.
         21   -1    0    0  501  503 -0.00000000000E+00 -0.00000000000E+00 -0.22867245747E+03  0.22867245747E+03  0.00000000000E+00 0.  1.
          6    2    1    2  501    0  0.59873224646E+02 -0.74393094334E+02  0.82271016734E+02  0.21373831428E+03  0.17261637026E+03 0.  0.
         24    2    3    3    0    0  0.39225768720E+01 -0.14680233674E-01 -0.26465385779E+02  0.70531056424E+02  0.65259684730E+02 0.  0.
         -6    2    1    2    0  502 -0.59873224646E+02  0.74393094334E+02 -0.10280189360E+03  0.22307572380E+03  0.17342264474E+03 0.  0.
        -24    2    5    5    0    0 -0.50448621016E+02 -0.25008832097E+02 -0.53170736402E+02  0.11147416513E+03  0.80180154887E+02 0.  0.
          5    1    3    3  501    0  0.55950647774E+02 -0.74378414100E+02  0.10873640251E+03  0.14320725785E+03  0.47000000000E+01 0. -1.
        -11    1    4    4    0    0  0.26542402977E+02 -0.21104781364E+02 -0.93105195437E+01  0.35165277283E+02  0.00000000000E+00 0.  1.
         12    1    4    4    0    0 -0.22619826105E+02  0.21090101130E+02 -0.17154866235E+02  0.35365779141E+02  0.00000000000E+00 0. -1.
         -5    1    5    5    0  502 -0.94246036302E+01  0.99401926430E+02 -0.49631157193E+02  0.11160155866E+03  0.47000000000E+01 0.  1.
         11    1    6    6    0    0  0.17091748528E+02  0.12000691123E+02 -0.95597187765E+01  0.22968079551E+02  0.00000000000E+00 0. -1.
        -12    1    6    6    0    0 -0.67540369544E+02 -0.37009523220E+02 -0.43611017626E+02  0.88506085584E+02  0.00000000000E+00 0.  1.
</event>
<event>
12    1  0.8747122E-002  0.1726024E+03  0.7818608E-02  0.1175331E+00
         21   -1    0    0  501  502  0.00000000000E+00  0.00000000000E+00  0.31585338480E+03  0.31585338480E+03  0.00000000000E+00 0. -1.
         21   -1    0    0  502  503 -0.00000000000E+00 -0.00000000000E+00 -0.17259704219E+03  0.17259704219E+03  0.00000000000E+00 0. -1.
         -6    2    1    2    0  503  0.14914160466E+01 -0.35895207894E+01 -0.93296934252E+02  0.19562108167E+03  0.17189584250E+03 0.  0.
        -24    2    3    3    0    0 -0.45072477969E+02 -0.32190522209E+02 -0.11402857691E+02  0.97056669814E+02  0.78881011667E+02 0.  0.
          6    2    1    2  501    0 -0.14914160466E+01  0.35895207894E+01  0.23655327686E+03  0.29282934533E+03  0.17255858052E+03 0.  0.
         24    2    5    5    0    0  0.21077120710E+02  0.96823188254E+01  0.30213349818E+02  0.85116282350E+02  0.76117952538E+02 0.  0.
          5    1    5    5  501    0 -0.22568536756E+02 -0.60927980360E+01  0.20633992704E+03  0.20771306298E+03  0.47000000000E+01 0. -1.
        -13    1    6    6    0    0 -0.99134595855E+01 -0.16852733307E+02  0.38778027641E+02  0.43428409234E+02  0.00000000000E+00 0.  1.
         14    1    6    6    0    0  0.30990580295E+02  0.26535052132E+02 -0.85646778233E+01  0.41687873116E+02  0.00000000000E+00 0. -1.
         -5    1    3    3    0  503  0.46563894015E+02  0.28601001420E+02 -0.81894076561E+02  0.98564411853E+02  0.47000000000E+01 0.  1.
         11    1    4    4    0    0 -0.49379635165E+02  0.12540081977E+02 -0.10981833345E+02  0.52117201465E+02  0.00000000000E+00 0. -1.
        -12    1    4    4    0    0  0.43071571959E+01 -0.44730604186E+02 -0.42102434600E+00  0.44939468349E+02  0.00000000000E+00 0.  1.
</event>
<event>
12    1  0.8747122E-002  0.2534462E+03  0.7818608E-02  0.1111202E+00
         21   -1    0    0  501  502  0.00000000000E+00  0.00000000000E+00  0.61394438027E+03  0.61394438027E+03  0.00000000000E+00 0.  1.
         21   -1    0    0  502  503 -0.00000000000E+00 -0.00000000000E+00 -0.15753602597E+03  0.15753602597E+03  0.00000000000E+00 0. -1.
         -6    2    1    2    0  503 -0.14370960942E+03 -0.11686541208E+03  0.44498209969E+01  0.25348521276E+03  0.17298836897E+03 0.  0.
        -24    2    3    3    0    0 -0.11409029115E+03 -0.11772767396E+02  0.14916784619E+02  0.14369716555E+03  0.85271169439E+02 0.  0.
          6    2    1    2  501    0  0.14370960942E+03  0.11686541208E+03  0.45195853330E+03  0.51799519348E+03  0.17246022226E+03 0.  0.
         24    2    5    5    0    0  0.10408598853E+02  0.21048645204E+02  0.12152581942E+03  0.14899942028E+03  0.82951299349E+02 0.  0.
          5    1    5    5  501    0  0.13330101057E+03  0.95816766880E+02  0.33043271388E+03  0.36899577320E+03  0.47000000000E+01 0. -1.
        -11    1    6    6    0    0  0.35817416245E+02  0.87556461590E+01  0.11396016474E+03  0.11977674146E+03  0.00000000000E+00 0.  1.
         12    1    6    6    0    0 -0.25408817392E+02  0.12292999045E+02  0.75656546724E+01  0.29222678820E+02  0.00000000000E+00 0. -1.
         -5    1    3    3    0  503 -0.29619318275E+02 -0.10509264469E+03 -0.10466963622E+02  0.10978804721E+03  0.47000000000E+01 0.  1.
         11    1    4    4    0    0  0.29447930648E+01  0.44162893117E+01 -0.19842927228E+02  0.20540622641E+02  0.00000000000E+00 0. -1.
        -12    1    4    4    0    0 -0.11703508421E+03 -0.16189056708E+02  0.34759711848E+02  0.12315654291E+03  0.00000000000E+00 0.  1.
</event>
<event>
12    1  0.8747122E-002  0.1841788E+03  0.7818608E-02  0.1166738E+00
         21   -1    0    0  501  502  0.00000000000E+00  0.00000000000E+00  0.62986801740E+02  0.62986801740E+02  0.00000000000E+00 0. -1.
         21   -1    0    0  502  503 -0.00000000000E+00 -0.00000000000E+00 -0.63991296817E+03  0.63991296817E+03  0.00000000000E+00 0. -1.
         -6    2    1    2    0  503  0.25396696379E+02  0.56641573540E+02 -0.45796856117E+03  0.49361626576E+03  0.17340286839E+03 0.  0.
        -24    2    3    3    0    0 -0.38737717478E+02  0.44645540837E+02 -0.36956638241E+03  0.38364280055E+03  0.84312824260E+02 0.  0.
          6    2    1    2  501    0 -0.25396696379E+02 -0.56641573540E+02 -0.11895760526E+03  0.20928350414E+03  0.16060950538E+03 0.  0.
         24    2    5    5    0    0 -0.45485522623E+02 -0.28193196090E+02 -0.14070031534E+03  0.16795909778E+03  0.74497588655E+02 0.  0.
          5    1    5    5  501    0  0.20088826244E+02 -0.28448377450E+02  0.21742710086E+02  0.41324406364E+02  0.47000000000E+01 0. -1.
        -11    1    6    6    0    0  0.19039475117E+02  0.37221976382E+01 -0.24251959517E+02  0.31056624228E+02  0.00000000000E+00 0.  1.
         12    1    6    6    0    0 -0.64524997740E+02 -0.31915393728E+02 -0.11644835583E+03  0.13690247355E+03  0.00000000000E+00 0. -1.
         -5    1    3    3    0  503  0.64134413857E+02  0.11996032703E+02 -0.88402178761E+02  0.10997346521E+03  0.47000000000E+01 0.  1.
         11    1    4    4    0    0 -0.19090569744E+02  0.68175032767E+02 -0.22555040675E+03  0.23640065763E+03  0.00000000000E+00 0. -1.
        -12    1    4    4    0    0 -0.19647147734E+02 -0.23529491930E+02 -0.14401597566E+03  0.14724214292E+03  0.00000000000E+00 0.  1.
</event>
<event>
12    1  0.8747122E-002  0.1909196E+03  0.7818608E-02  0.1157759E+00
         21   -1    0    0  501  502  0.00000000000E+00  0.00000000000E+00  0.66174238455E+03  0.66174238455E+03  0.00000000000E+00 0. -1.
         21   -1    0    0  502  503 -0.00000000000E+00 -0.00000000000E+00 -0.58921505985E+02  0.58921505985E+02  0.00000000000E+00 0.  1.
         -6    2    1    2    0  503  0.73497591514E+02  0.38223724106E+02  0.39569168090E+03  0.43934293505E+03  0.17200976485E+03 0.  0.
        -24    2    3    3    0    0  0.93268921381E+02  0.65592150060E+02  0.37338700557E+03  0.39860566998E+03  0.80418917978E+02 0.  0.
          6    2    1    2  501    0 -0.73497591514E+02 -0.38223724106E+02  0.20712919766E+03  0.28132095548E+03  0.17139435937E+03 0.  0.
         24    2    5    5    0    0 -0.11226932229E+03 -0.18410624680E+02  0.18561217068E+03  0.23252670924E+03  0.81691130338E+02 0.  0.
          5    1    5    5  501    0  0.38771730774E+02 -0.19813099426E+02  0.21517026976E+02  0.48794246238E+02  0.47000000000E+01 0. -1.
        -13    1    6    6    0    0 -0.66667831418E+01  0.85417416019E+01 -0.57783264866E+01  0.12279918731E+02  0.00000000000E+00 0.  1.
         14    1    6    6    0    0 -0.10560253915E+03 -0.26952366282E+02  0.19139049717E+03  0.22024679051E+03  0.00000000000E+00 0. -1.
         -5    1    3    3    0  503 -0.19771329867E+02 -0.27368425954E+02  0.22304675336E+02  0.40737265075E+02  0.47000000000E+01 0.  1.
         13    1    4    4    0    0  0.36510321321E+02  0.50418688181E+02  0.28996303424E+03  0.29656973701E+03  0.00000000000E+00 0. -1.
        -14    1    4    4    0    0  0.56758600060E+02  0.15173461879E+02  0.83423971322E+02  0.10203593297E+03  0.00000000000E+00 0.  1.
</event>
<event>
12    1  0.8747122E-002  0.2562942E+03  0.7818608E-02  0.1109639E+00
         21   -1    0    0  501  502  0.00000000000E+00  0.00000000000E+00  0.17454709365E+03  0.17454709365E+03  0.00000000000E+00 0. -1.
         21   -1    0    0  502  503 -0.00000000000E+00 -0.00000000000E+00 -0.38985349412E+03  0.38985349412E+03  0.00000000000E+00 0.  1.
         -6    2    1    2    0  503 -0.76163616818E+02 -0.17415653407E+03 -0.50327762172E+02  0.25959792770E+03  0.16948983903E+03 0.  0.
        -24    2    3    3    0    0 -0.58674048210E+02 -0.10698516622E+03 -0.97956249411E+02  0.17528635990E+03  0.79002604021E+02 0.  0.
          6    2    1    2  501    0  0.76163616818E+02  0.17415653407E+03 -0.16497863830E+03  0.30480266007E+03  0.17191659489E+03 0.  0.
         24    2    5    5    0    0  0.24630969594E+01  0.28521039934E+02 -0.23665692386E+02  0.88856133204E+02  0.80720696517E+02 0.  0.
          5    1    5    5  501    0  0.73700519859E+02  0.14563549414E+03 -0.14131294592E+03  0.21594652686E+03  0.47000000000E+01 0. -1.
        -13    1    6    6    0    0 -0.18231953829E+02  0.30976329208E+02  0.19522182693E+02  0.40902967236E+02  0.00000000000E+00 0.  1.
         14    1    6    6    0    0  0.20695050788E+02 -0.24552892733E+01 -0.43187875079E+02  0.47953165968E+02  0.00000000000E+00 0. -1.
         -5    1    3    3    0  503 -0.17489568608E+02 -0.67171367851E+02  0.47628487239E+02  0.84311567805E+02  0.47000000000E+01 0.  1.
         13    1    4    4    0    0 -0.39379358323E+02 -0.28833921127E+01 -0.26982798892E+02  0.47823835564E+02  0.00000000000E+00 0. -1.
        -14    1    4    4    0    0 -0.19294689887E+02 -0.10410177411E+03 -0.70973450519E+02  0.12746252433E+03  0.00000000000E+00 0.  1.
</event>
<event>
12    1  0.8747122E-002  0.1935707E+03  0.7818608E-02  0.1155795E+00
         21   -1    0    0  503  502  0.00000000000E+00  0.00000000000E+00  0.19601952616E+03  0.19601952616E+03  0.00000000000E+00 0. -1.
         21   -1    0    0  501  503 -0.00000000000E+00 -0.00000000000E+00 -0.18929631874E+03  0.18929631874E+03  0.00000000000E+00 0. -1.
          6    2    1    2  501    0  0.11700320480E+02 -0.82603713234E+02 -0.58760721800E+01  0.19133553305E+03  0.17208860231E+03 0.  0.
         24    2    3    3    0    0 -0.42259135158E+02 -0.14460481800E+02  0.31927250740E+02  0.96433983715E+02  0.79279403612E+02 0.  0.
         -6    2    1    2    0  502 -0.11700320480E+02  0.82603713234E+02  0.12599279597E+02  0.19398031185E+03  0.17466925488E+03 0.  0.
        -24    2    5    5    0    0  0.46431140264E+02  0.85043659922E+02 -0.22743274974E+02  0.12574244676E+03  0.76848106560E+02 0.  0.
          5    1    3    3  501    0  0.53959455638E+02 -0.68143231434E+02 -0.37803322920E+02  0.94901549338E+02  0.47000000000E+01 0. -1.
        -13    1    4    4    0    0  0.12111705064E+02  0.10822953419E+02  0.32650549011E+02  0.36467630455E+02  0.00000000000E+00 0.  1.
         14    1    4    4    0    0 -0.54370840223E+02 -0.25283435219E+02 -0.72329827095E+00  0.59966353260E+02  0.00000000000E+00 0. -1.
         -5    1    5    5    0  502 -0.58131460744E+02 -0.24399466884E+01  0.35342554571E+02  0.68237865087E+02  0.47000000000E+01 0.  1.
         13    1    6    6    0    0  0.73875592181E+01  0.48570840285E+02  0.24067498381E+02  0.54707833401E+02  0.00000000000E+00 0. -1.
        -14    1    6    6    0    0  0.39043581046E+02  0.36472819637E+02 -0.46810773355E+02  0.71034613360E+02  0.00000000000E+00 0.  1.
</event>
<event>
12    1  0.8747122E-002  0.1917816E+03  0.7818608E-02  0.1157033E+00
         21   -1    0    0  503  502  0.00000000000E+00  0.00000000000E+00  0.17295177498E+04  0.17295177498E+04  0.00000000000E+00 0.  1.
         21   -1    0    0  501  503 -0.00000000000E+00 -0.00000000000E+00 -0.22041701466E+02  0.22041701466E+02  0.00000000000E+00 0.  1.
          6    2    1    2  501    0 -0.75840513144E+02 -0.36608710080E+02  0.67919685205E+03  0.70554879986E+03  0.17146067791E+03 0.  0.
         24    2    3    3    0    0 -0.30207199270E+02 -0.37858584480E+02  0.63490590191E+03  0.64176996493E+03  0.80108902777E+02 0.  0.
         -6    2    1    2    0  502  0.75840513144E+02  0.36608710080E+02  0.10282791963E+04  0.10460106514E+04  0.17230262982E+03 0.  0.
        -24    2    5    5    0    0  0.92086330943E+02  0.32799207682E+01  0.42463703744E+03  0.44121260186E+03  0.76559102971E+02 0.  0.
          5    1    3    3  501    0 -0.45633313875E+02  0.12498744001E+01  0.44290950142E+02  0.63778834935E+02  0.47000000000E+01 0. -1.
        -13    1    4    4    0    0 -0.49792679569E+02 -0.48958859386E+01  0.45987210778E+03  0.46258581490E+03  0.00000000000E+00 0.  1.
         14    1    4    4    0    0  0.19585480300E+02 -0.32962698541E+02  0.17503379413E+03  0.17918415003E+03  0.00000000000E+00 0. -1.
         -5    1    5    5    0  502 -0.16245817798E+02  0.33328789312E+02  0.60364215882E+03  0.60479804951E+03  0.47000000000E+01 0.  1.
         13    1    6    6    0    0  0.21801010818E+02 -0.26322407574E+02  0.63532877867E+02  0.72142773604E+02  0.00000000000E+00 0. -1.
        -14    1    6    6    0    0  0.70285320125E+02  0.29602328343E+02  0.36110415957E+03  0.36906982825E+03  0.00000000000E+00 0.  1.
</event>
<event>
12    1  0.8747122E-002  0.1828555E+03  0.7818608E-02  0.1166663E+00
         21   -1    0    0  503  502  0.00000000000E+00  0.00000000000E+00  0.12842238423E+04  0.12842238423E+04  0.00000000000E+00 0.  1.
         21   -1    0    0  501  503 -0.00000000000E+00 -0.00000000000E+00 -0.54057808842E+02  0.54057808842E+02  0.00000000000E+00 0.  1.
          6    2    1    2  501    0  0.35751190549E+02  0.22699024619E+02  0.13066593901E+03  0.22474367637E+03  0.17788406085E+03 0.  0.
         24    2    3    3    0    0  0.46348628398E+02 -0.45056716073E+02  0.42399801837E+02  0.11286808896E+03  0.82238429534E+02 0.  0.
         -6    2    1    2    0  502 -0.35751190549E+02 -0.22699024619E+02  0.10995000944E+04  0.11135379747E+04  0.17109345468E+03 0.  0.
        -24    2    5    5    0    0 -0.85130396402E+02 -0.16112350427E+02  0.91772855393E+03  0.92500502490E+03  0.76823207164E+02 0.  0.
          5    1    3    3  501    0 -0.10597437849E+02  0.67755740691E+02  0.88266137176E+02  0.11187558741E+03  0.47000000000E+01 0. -1.
        -13    1    4    4    0    0 -0.66740654012E+01 -0.43923348938E+02 -0.84735088503E+00  0.44435590853E+02  0.00000000000E+00 0.  1.
         14    1    4    4    0    0  0.53022693799E+02 -0.11333671346E+01  0.43247152722E+02  0.68432498108E+02  0.00000000000E+00 0. -1.
         -5    1    5    5    0  502  0.49379205852E+02 -0.65866741919E+01  0.18177154048E+03  0.18853294985E+03  0.47000000000E+01 0.  1.
         11    1    6    6    0    0 -0.70263997478E+02 -0.27028098297E+02  0.40454935908E+03  0.41149450953E+03  0.00000000000E+00 0. -1.
        -12    1    6    6    0    0 -0.14866398924E+02  0.10915747870E+02  0.51317919485E+03  0.51351051537E+03  0.00000000000E+00 0.  1.
</event>
<event>
12    1  0.8747122E-002  0.1725048E+03  0.7818608E-02  0.1176893E+00
         21   -1    0    0  503  502  0.00000000000E+00  0.00000000000E+00  0.51560495194E+03  0.51560495194E+03  0.00000000000E+00 0. -1.
         21   -1    0    0  501  503 -0.00000000000E+00 -0.00000000000E+00 -0.68018689436E+02  0.68018689436E+02  0.00000000000E+00 0. -1.
          6    2    1    2  501    0  0.65964926390E+01 -0.14350341098E+02  0.10270435318E+03  0.20076378810E+03  0.17178029120E+03 0.  0.
         24    2    3    3    0    0  0.50242227082E+02 -0.25439648162E+02  0.91978868187E+01  0.96872151675E+02  0.78282536797E+02 0.  0.
         -6    2    1    2    0  502 -0.65964926390E+01  0.14350341098E+02  0.34488190932E+03  0.38285985328E+03  0.16549528656E+03 0.  0.
        -24    2    5    5    0    0  0.60699859877E+01  0.16218254530E+02  0.35658350270E+03  0.36488915298E+03  0.75448148106E+02 0.  0.
          5    1    3    3  501    0 -0.43645734443E+02  0.11089307064E+02  0.93506466366E+02  0.10389163642E+03  0.47000000000E+01 0. -1.
        -13    1    4    4    0    0 -0.78185408164E+01 -0.24083830490E+02  0.26121659776E+02  0.36379961256E+02  0.00000000000E+00 0.  1.
         14    1    4    4    0    0  0.58060767898E+02 -0.13558176719E+01 -0.16923772957E+02  0.60492190418E+02  0.00000000000E+00 0. -1.
         -5    1    5    5    0  502 -0.12666478627E+02 -0.18679134316E+01 -0.11701593386E+02  0.17970700297E+02  0.47000000000E+01 0.  1.
         13    1    6    6    0    0 -0.29251645321E+02 -0.89647003321E+01  0.20316409151E+03  0.20545479475E+03  0.00000000000E+00 0. -1.
        -14    1    6    6    0    0  0.35321631309E+02  0.25182954862E+02  0.15341941120E+03  0.15943435823E+03  0.00000000000E+00 0.  1.
</event>
<event>
12    1  0.8747122E-002  0.2613030E+03  0.7818608E-02  0.1106465E+00
         21   -1    0    0  503  502  0.00000000000E+00  0.00000000000E+00  0.28642553932E+03  0.28642553932E+03  0.00000000000E+00 0. -1.
         21   -1    0    0  501  503 -0.00000000000E+00 -0.00000000000E+00 -0.26453815511E+03  0.26453815511E+03  0.00000000000E+00 0. -1.
          6    2    1    2  501    0  0.17545570517E+03 -0.89877796815E+02 -0.76686505264E+02  0.27232346622E+03  0.17151246989E+03 0.  0.
         24    2    3    3    0    0  0.11176939840E+03 -0.99197289036E+02 -0.10857544041E+03  0.20033879570E+03  0.77553247709E+02 0.  0.
         -6    2    1    2    0  502 -0.17545570517E+03  0.89877796815E+02  0.98573889476E+02  0.27864022820E+03  0.17047240905E+03 0.  0.
        -24    2    5    5    0    0 -0.17277185975E+03  0.67478379527E+02  0.12975141642E+03  0.23987084456E+03  0.79367151771E+02 0.  0.
          5    1    3    3  501    0  0.63686306774E+02  0.93194922207E+01  0.31888935151E+02  0.71984670527E+02  0.47000000000E+01 0. -1.
        -11    1    4    4    0    0  0.72411401870E+02 -0.30007845353E+02 -0.88549843608E+02  0.11825800906E+03  0.00000000000E+00 0.  1.
         12    1    4    4    0    0  0.39357996525E+02 -0.69189443683E+02 -0.20025596807E+02  0.82080786638E+02  0.00000000000E+00 0. -1.
         -5    1    5    5    0  502 -0.26838454152E+01  0.22399417288E+02 -0.31177526949E+02  0.38769383638E+02  0.47000000000E+01 0.  1.
         11    1    6    6    0    0 -0.45996388991E+02  0.55933095363E+02  0.31065593423E+02  0.78798794736E+02  0.00000000000E+00 0. -1.
        -12    1    6    6    0    0 -0.12677547076E+03  0.11545284163E+02  0.98685823001E+02  0.16107204983E+03  0.00000000000E+00 0.  1.
</event>
<event>
12    1  0.8747122E-002  0.2027932E+03  0.7818608E-02  0.1147978E+00
         21   -1    0    0  501  502  0.00000000000E+00  0.00000000000E+00  0.80916282462E+02  0.80916282462E+02  0.00000000000E+00 0. -1.
         21   -1    0    0  502  503 -0.00000000000E+00 -0.00000000000E+00 -0.58064055296E+03  0.58064055296E+03  0.00000000000E+00 0.  1.
         -6    2    1    2    0  503  0.25831464226E+02  0.10013487143E+03 -0.37060789371E+03  0.42114856568E+03  0.17123564605E+03 0.  0.
        -24    2    3    3    0    0  0.70449162030E+02  0.10488899112E+03 -0.23248942531E+03  0.27584838700E+03  0.77950079165E+02 0.  0.
          6    2    1    2  501    0 -0.25831464226E+02 -0.10013487143E+03 -0.12911637679E+03  0.24040826974E+03  0.17444437619E+03 0.  0.
         24    2    5    5    0    0 -0.40335695633E+02 -0.13304952932E+03 -0.79150504892E+02  0.17866342553E+03  0.79540377188E+02 0.  0.
          5    1    5    5  501    0  0.14504231407E+02  0.32914657886E+02 -0.49965871899E+02  0.61744844215E+02  0.47000000000E+01 0. -1.
        -11    1    6    6    0    0  0.24206872126E+02 -0.41953727275E+02 -0.26790863209E+02  0.55351948853E+02  0.00000000000E+00 0.  1.
         12    1    6    6    0    0 -0.64542567759E+02 -0.91095802040E+02 -0.52359641683E+02  0.12331147667E+03  0.00000000000E+00 0. -1.
         -5    1    3    3    0  503 -0.44617697804E+02 -0.47541196947E+01 -0.13811846840E+03  0.14530017868E+03  0.47000000000E+01 0.  1.
         11    1    4    4    0    0  0.20438796484E+02 -0.93937637268E+01 -0.24038267439E+02  0.32921505131E+02  0.00000000000E+00 0. -1.
        -12    1    4    4    0    0  0.50010365546E+02  0.11428275485E+03 -0.20845115787E+03  0.24292688187E+03  0.00000000000E+00 0.  1.
</event>
<event>
12    1  0.8747122E-002  0.2209163E+03  0.7818608E-02  0.1133294E+00
         21   -1    0    0  501  502  0.00000000000E+00  0.00000000000E+00  0.74968633428E+02  0.74968633428E+02  0.00000000000E+00 0.  1.
         21   -1    0    0  502  503 -0.00000000000E+00 -0.00000000000E+00 -0.77625974745E+03  0.77625974745E+03  0.00000000000E+00 0.  1.
         -6    2    1    2    0  503 -0.78477791287E+02  0.11123416958E+03 -0.52294151650E+03  0.56768992539E+03  0.17398913040E+03 0.  0.
        -24    2    3    3    0    0 -0.11016484098E+03  0.12608031027E+03 -0.41786737976E+03  0.45684254733E+03  0.77842335206E+02 0.  0.
          6    2    1    2  501    0  0.78477791287E+02 -0.11123416958E+03 -0.17834959752E+03  0.28353845549E+03  0.17335995096E+03 0.  0.
         24    2    5    5    0    0  0.82654700754E+02 -0.29925063350E+02 -0.43094200713E+02  0.12559944924E+03  0.78681653148E+02 0.  0.
          5    1    5    5  501    0 -0.41769094672E+01 -0.81309106233E+02 -0.13525539680E+03  0.15793900624E+03  0.47000000000E+01 0. -1.
        -11    1    6    6    0    0  0.36242597380E+02  0.11705095835E+02  0.14469912223E+02  0.40742035947E+02  0.00000000000E+00 0.  1.
         12    1    6    6    0    0  0.46412103374E+02 -0.41630159185E+02 -0.57564112936E+02  0.84857413297E+02  0.00000000000E+00 0. -1.
         -5    1    3    3    0  503  0.31687049696E+02 -0.14846140685E+02 -0.10507413674E+03  0.11084737806E+03  0.47000000000E+01 0.  1.
         13    1    4    4    0    0 -0.11807767858E+02 -0.99619274561E+01 -0.22311345878E+02  0.27137787959E+02  0.00000000000E+00 0. -1.
        -14    1    4    4    0    0 -0.98357073124E+02  0.13604223772E+03 -0.39555603389E+03  0.42970475937E+03  0.00000000000E+00 0.  1.
</event>
<event>
12    1  0.8747122E-002  0.2021891E+03  0.7818608E-02  0.1148295E+00
         21   -1    0    0  503  502  0.00000000000E+00  0.00000000000E+00  0.14376756989E+03  0.14376756989E+03  0.00000000000E+00 0.  1.
         21   -1    0    0  501  503 -0.00000000000E+00 -0.00000000000E+00 -0.28666515927E+03  0.28666515927E+03  0.00000000000E+00 0.  1.
          6    2    1    2  501    0  0.56349531080E+02 -0.89376177991E+02 -0.10000350670E+03  0.22556847875E+03  0.17238638695E+03 0.  0.
         24    2    3    3    0    0  0.61837206598E+02 -0.10844466946E+03 -0.12396618495E+03  0.19410386531E+03  0.82003713713E+02 0.  0.
         -6    2    1    2    0  502 -0.56349531080E+02  0.89376177991E+02 -0.42894082677E+02  0.20486425041E+03  0.17019426525E+03 0.  0.
        -24    2    5    5    0    0  0.96417172296E+01  0.10036945088E+02 -0.60920544661E+02  0.99999565876E+02  0.78069824105E+02 0.  0.
          5    1    3    3  501    0 -0.54876755179E+01  0.19068491471E+02  0.23962678254E+02  0.31464613436E+02  0.47000000000E+01 0. -1.
        -11    1    4    4    0    0  0.19390307062E+02 -0.38864583176E+02 -0.10019331877E+03  0.10920229374E+03  0.00000000000E+00 0.  1.
         12    1    4    4    0    0  0.42446899536E+02 -0.69580086286E+02 -0.23772866183E+02  0.84901571565E+02  0.00000000000E+00 0. -1.
         -5    1    5    5    0  502 -0.65991248309E+02  0.79339232902E+02  0.18026461984E+02  0.10486468453E+03  0.47000000000E+01 0.  1.
         13    1    6    6    0    0  0.41394853791E+02  0.19868989789E+02 -0.38291943837E+02  0.59787821824E+02  0.00000000000E+00 0. -1.
        -14    1    6    6    0    0 -0.31753136561E+02 -0.98320447010E+01 -0.22628600824E+02  0.40211744052E+02  0.00000000000E+00 0.  1.
</event>
<event>
12    1  0.8747122E-002  0.2111901E+03  0.7818608E-02  0.1140966E+00
         21   -1    0    0  503  502  0.00000000000E+00  0.00000000000E+00  0.11156807080E+04  0.11156807080E+04  0.00000000000E+00 0. -1.
         21   -1    0    0  501  503 -0.00000000000E+00 -0.00000000000E+00 -0.41967196490E+02  0.41967196490E+02  0.00000000000E+00 0.  1.
          6    2    1    2  501    0  0.11932751631E+03 -0.26031977046E+02  0.39885756576E+03  0.45051864367E+03  0.17018510674E+03 0.  0.
         24    2    3    3    0    0  0.87323292021E+02 -0.66312555100E+02  0.36251697981E+03  0.38735596856E+03  0.81261143446E+02 0.  0.
         -6    2    1    2    0  502 -0.11932751631E+03  0.26031977046E+02  0.67485594577E+03  0.70712926084E+03  0.17229197315E+03 0.  0.
        -24    2    5    5    0    0 -0.57996861257E+02 -0.35173443767E+02  0.42081279298E+03  0.43867523076E+03  0.10369061810E+03 0.  0.
          5    1    3    3  501    0  0.32004224288E+02  0.40280578054E+02  0.36340585950E+02  0.63162675116E+02  0.47000000000E+01 0. -1.
        -13    1    4    4    0    0  0.24984903985E+02  0.17153672851E+02  0.56844078899E+02  0.64418500645E+02  0.00000000000E+00 0.  1.
         14    1    4    4    0    0  0.62338388036E+02 -0.83466227951E+02  0.30567290091E+03  0.32293746791E+03  0.00000000000E+00 0. -1.
         -5    1    5    5    0  502 -0.61330655052E+02  0.61205420813E+02  0.25404315279E+03  0.26845403008E+03  0.47000000000E+01 0.  1.
         13    1    6    6    0    0  0.28957810759E+02  0.15632798998E+01  0.82943405389E+02  0.87866985527E+02  0.00000000000E+00 0. -1.
        -14    1    6    6    0    0 -0.86954672016E+02 -0.36736723667E+02  0.33786938759E+03  0.35080824523E+03  0.00000000000E+00 0.  1.
</event>
<event>
12    1  0.8747122E-002  0.2482059E+03  0.7818608E-02  0.1114596E+00
         21   -1    0    0  503  502  0.00000000000E+00  0.00000000000E+00  0.32432794871E+03  0.32432794871E+03  0.00000000000E+00 0.  1.
         21   -1    0    0  501  503 -0.00000000000E+00 -0.00000000000E+00 -0.24158605076E+03  0.24158605076E+03  0.00000000000E+00 0. -1.
          6    2    1    2  501    0  0.15763706330E+03  0.82075614782E+02 -0.90300602240E+02  0.26412184491E+03  0.17326367168E+03 0.  0.
         24    2    3    3    0    0  0.10968460893E+03  0.39967272368E+02  0.13249710679E+02  0.14239548093E+03  0.80453849254E+02 0.  0.
         -6    2    1    2    0  502 -0.15763706330E+03 -0.82075614782E+02  0.17304250019E+03  0.30179215457E+03  0.17189807276E+03 0.  0.
        -24    2    5    5    0    0 -0.14836153716E+02 -0.55464277149E+02  0.50380941992E+02  0.11161273684E+03  0.81380379772E+02 0.  0.
          5    1    3    3  501    0  0.47952454372E+02  0.42108342414E+02 -0.10355031292E+03  0.12172636398E+03  0.47000000000E+01 0. -1.
        -11    1    4    4    0    0  0.50544374769E+02 -0.20624011252E+02 -0.78113768282E+01  0.55146180909E+02  0.00000000000E+00 0.  1.
         12    1    4    4    0    0  0.59140234159E+02  0.60591283620E+02  0.21061087507E+02  0.87249300021E+02  0.00000000000E+00 0. -1.
         -5    1    5    5    0  502 -0.14280090958E+03 -0.26611337633E+02  0.12266155820E+03  0.19017941773E+03  0.47000000000E+01 0.  1.
         13    1    6    6    0    0 -0.33964125598E+02 -0.85480510737E+01 -0.63029547158E+01  0.35585927597E+02  0.00000000000E+00 0. -1.
        -14    1    6    6    0    0  0.19127971882E+02 -0.46916226075E+02  0.56683896708E+02  0.76026809241E+02  0.00000000000E+00 0.  1.
</event>
<event>
12    1  0.8747122E-002  0.1895068E+03  0.7818608E-02  0.1159975E+00
         21   -1    0    0  501  502  0.00000000000E+00  0.00000000000E+00  0.54724646329E+02  0.54724646329E+02  0.00000000000E+00 0.  1.
         21   -1    0    0  502  503 -0.00000000000E+00 -0.00000000000E+00 -0.99467784476E+03  0.99467784476E+03  0.00000000000E+00 0.  1.
         -6    2    1    2    0  503  0.43456070957E+02  0.52170529628E+02 -0.78695235876E+03  0.80944848042E+03  0.17692550196E+03 0.  0.
        -24    2    3    3    0    0 -0.35671678238E+02  0.40315919714E+02 -0.54106212062E+03  0.55082552769E+03  0.88106194884E+02 0.  0.
          6    2    1    2  501    0 -0.43456070957E+02 -0.52170529628E+02 -0.15300083967E+03  0.23995401066E+03  0.17192578640E+03 0.  0.
         24    2    5    5    0    0 -0.14926716610E+02 -0.74765834018E+02 -0.34860806946E+02  0.11624617270E+03  0.80530491132E+02 0.  0.
          5    1    5    5  501    0 -0.28529354347E+02  0.22595304390E+02 -0.11814003272E+03  0.12370783796E+03  0.47000000000E+01 0. -1.
        -13    1    6    6    0    0 -0.42910604264E+01 -0.20478994051E+02  0.26412220024E+02  0.33695812255E+02  0.00000000000E+00 0.  1.
         14    1    6    6    0    0 -0.10635656184E+02 -0.54286839967E+02 -0.61273026970E+02  0.82550360449E+02  0.00000000000E+00 0. -1.
         -5    1    3    3    0  503  0.79127749195E+02  0.11854609914E+02 -0.24589023814E+03  0.25862295273E+03  0.47000000000E+01 0.  1.
         11    1    4    4    0    0  0.87489486053E+01 -0.19059917579E+02 -0.23394413640E+03  0.23488227587E+03  0.00000000000E+00 0. -1.
        -12    1    4    4    0    0 -0.44420626844E+02  0.59375837293E+02 -0.30711798421E+03  0.31594325182E+03  0.00000000000E+00 0.  1.
</event>
<event>
12    1  0.8747122E-002  0.1791738E+03  0.7818608E-02  0.1169408E+00
         21   -1    0    0  501  502  0.00000000000E+00  0.00000000000E+00  0.12920304863E+03  0.12920304863E+03  0.00000000000E+00 0.  1.
         21   -1    0    0  502  503 -0.00000000000E+00 -0.00000000000E+00 -0.39754529592E+03  0.39754529592E+03  0.00000000000E+00 0.  1.
         -6    2    1    2    0  503  0.51471102618E+01 -0.48197368701E+02 -0.29862379920E+03  0.34825194322E+03  0.17249279235E+03 0.  0.
        -24    2    3    3    0    0  0.12048113111E+02 -0.94938498865E+02 -0.17095102257E+03  0.21203599341E+03  0.81095837050E+02 0.  0.
          6    2    1    2  501    0 -0.51471102618E+01  0.48197368701E+02  0.30281551903E+02  0.17849640134E+03  0.16909912421E+03 0.  0.
         24    2    5    5    0    0 -0.45827229947E+02  0.73676357312E+02 -0.26264422935E+01  0.12010909895E+03  0.83011787230E+02 0.  0.
          5    1    5    5  501    0  0.40680119685E+02 -0.25478988611E+02  0.32907994197E+02  0.58387302389E+02  0.47000000000E+01 0. -1.
        -13    1    6    6    0    0 -0.28318893925E+02  0.77963216894E+02  0.25433029997E+02  0.86758641970E+02  0.00000000000E+00 0.  1.
         14    1    6    6    0    0 -0.17508336022E+02 -0.42868595822E+01 -0.28059472290E+02  0.33350456976E+02  0.00000000000E+00 0. -1.
         -5    1    3    3    0  503 -0.69010028491E+01  0.46741130164E+02 -0.12767277663E+03  0.13621594981E+03  0.47000000000E+01 0.  1.
         13    1    4    4    0    0  0.52463917300E+01 -0.16649008418E+02  0.59689130526E+01  0.18448361188E+02  0.00000000000E+00 0. -1.
        -14    1    4    4    0    0  0.68017213810E+01 -0.78289490447E+02 -0.17691993562E+03  0.19358763222E+03  0.00000000000E+00 0.  1.
</event>
<event>
12    1  0.8747122E-002  0.2361010E+03  0.7818608E-02  0.1122666E+00
         21   -1    0    0  503  502  0.00000000000E+00  0.00000000000E+00  0.59344429686E+02  0.59344429686E+02  0.00000000000E+00 0. -1.
         21   -1    0    0  501  503 -0.00000000000E+00 -0.00000000000E+00 -0.93452785223E+03  0.93452785223E+03  0.00000000000E+00 0.  1.
          6    2    1    2  501    0  0.29517922587E+02  0.15936387520E+03 -0.45227334591E+03  0.50952052491E+03  0.16968156475E+03 0.  0.
         24    2    3    3    0    0  0.81755436753E+02  0.90184372570E+02 -0.24450714575E+03  0.28434626928E+03  0.79068856306E+02 0.  0.
         -6    2    1    2    0  502 -0.29517922587E+02 -0.15936387520E+03 -0.42291007663E+03  0.48435175700E+03  0.17168441723E+03 0.  0.
        -24    2    5    5    0    0 -0.20513756520E+01 -0.13573590534E+03 -0.17683120755E+03  0.23557556850E+03  0.76145442197E+02 0.  0.
          5    1    3    3  501    0 -0.52237514166E+02  0.69179502631E+02 -0.20776620016E+03  0.22517425563E+03  0.47000000000E+01 0. -1.
        -13    1    4    4    0    0  0.52585617432E+02  0.68719216319E+02 -0.22926871257E+03  0.24505452539E+03  0.00000000000E+00 0.  1.
         14    1    4    4    0    0  0.29169819321E+02  0.21465156250E+02 -0.15238433181E+02  0.39291743890E+02  0.00000000000E+00 0. -1.
         -5    1    5    5    0  502 -0.27466546935E+02 -0.23627969864E+02 -0.24607886908E+03  0.24877618850E+03  0.47000000000E+01 0.  1.
         13    1    6    6    0    0  0.36489263525E+02 -0.76144284820E+02 -0.10262692615E+03  0.13289734548E+03  0.00000000000E+00 0. -1.
        -14    1    6    6    0    0 -0.38540639177E+02 -0.59591620516E+02 -0.74204281401E+02  0.10267822302E+03  0.00000000000E+00 0.  1.
</event>
<event>
12    1  0.8747122E-002  0.1804979E+03  0.7818608E-02  0.1167854E+00
         21   -1    0    0  501  502  0.00000000000E+00  0.00000000000E+00  0.13496596361E+04  0.13496596361E+04  0.00000000000E+00 0. -1.
         21   -1    0    0  502  503 -0.00000000000E+00 -0.00000000000E+00 -0.68342960193E+02  0.68342960193E+02  0.00000000000E+00 0. -1.
         -6    2    1    2    0  503 -0.40691525734E+02 -0.30763147703E+02  0.12113751432E+04  0.12244275503E+04  0.17085349528E+03 0.  0.
        -24    2    3    3    0    0 -0.57622462897E+02 -0.75703645001E+02  0.57987831505E+03  0.59108985294E+03  0.63851107201E+02 0.  0.
          6    2    1    2  501    0  0.40691525734E+02  0.30763147703E+02  0.69941532685E+02  0.19357504597E+03  0.17313956482E+03 0.  0.
         24    2    5    5    0    0  0.30597376038E+02  0.19836005785E+02  0.11617161596E+03  0.14478360319E+03  0.78337608158E+02 0.  0.
          5    1    5    5  501    0  0.10094149696E+02  0.10927141918E+02 -0.46230083278E+02  0.48791442779E+02  0.47000000000E+01 0. -1.
        -13    1    6    6    0    0  0.48784923683E+02 -0.65127055117E+01  0.93138037120E+02  0.10534266975E+03  0.00000000000E+00 0.  1.
         14    1    6    6    0    0 -0.18187547645E+02  0.26348711297E+02  0.23033578843E+02  0.39440933440E+02  0.00000000000E+00 0. -1.
         -5    1    3    3    0  503  0.16930937163E+02  0.44940497299E+02  0.63149682815E+03  0.63333769736E+03  0.47000000000E+01 0.  1.
         13    1    4    4    0    0 -0.57645436109E+02 -0.43174774498E+02  0.49463606220E+03  0.49985186954E+03  0.00000000000E+00 0. -1.
        -14    1    4    4    0    0  0.22973212260E-01 -0.32528870503E+02  0.85242252849E+02  0.91237983400E+02  0.00000000000E+00 0.  1.
</event>
<event>
12    1  0.8747122E-002  0.2350433E+03  0.7818608E-02  0.1123649E+00
         21   -1    0    0  503  502  0.00000000000E+00  0.00000000000E+00  0.27287185673E+03  0.27287185673E+03  0.00000000000E+00 0.  1.
         21   -1    0    0  501  503 -0.00000000000E+00 -0.00000000000E+00 -0.25087160217E+03  0.25087160217E+03  0.00000000000E+00 0.  1.
          6    2    1    2  501    0  0.36114888211E+02  0.15477874353E+03 -0.10706829190E+03  0.25559419779E+03  0.16912726041E+03 0.  0.
         24    2    3    3    0    0  0.43203158799E+02  0.17563978677E+03 -0.65431240254E+02  0.20825329819E+03  0.79826946438E+02 0.  0.
         -6    2    1    2    0  502 -0.36114888211E+02 -0.15477874353E+03  0.12906854646E+03  0.26814926112E+03  0.17316059585E+03 0.  0.
        -24    2    5    5    0    0 -0.56143625641E+01 -0.17588956796E+03  0.86915331652E+02  0.21180272181E+03  0.79608145969E+02 0.  0.
          5    1    3    3  501    0 -0.70882705877E+01 -0.20861043244E+02 -0.41637051645E+02  0.47340899599E+02  0.47000000000E+01 0. -1.
        -13    1    4    4    0    0  0.27996079112E+02  0.18979115159E+02 -0.33588936323E+02  0.47667639979E+02  0.00000000000E+00 0.  1.
         14    1    4    4    0    0  0.15207079687E+02  0.15666067161E+03 -0.31842303932E+02  0.16058565821E+03  0.00000000000E+00 0. -1.
         -5    1    5    5    0  502 -0.30500525647E+02  0.21110824436E+02  0.42153214810E+02  0.56346539308E+02  0.47000000000E+01 0.  1.
         13    1    6    6    0    0  0.14331581937E+02 -0.10244703138E+03  0.10533430148E+02  0.10397952505E+03  0.00000000000E+00 0. -1.
        -14    1    6    6    0    0 -0.19945944502E+02 -0.73442536585E+02  0.76381901503E+02  0.10782319676E+03  0.00000000000E+00 0.  1.
</event>
<event>
12    1  0.8747122E-002  0.2283627E+03  0.7818608E-02  0.1128118E+00
         21   -1    0    0  503  502  0.00000000000E+00  0.00000000000E+00  0.45270808569E+03  0.45270808569E+03  0.00000000000E+00 0. -1.
         21   -1    0    0  501  503 -0.00000000000E+00 -0.00000000000E+00 -0.22761232400E+03  0.22761232400E+03  0.00000000000E+00 0.  1.
          6    2    1    2  501    0  0.46995887023E+02  0.14287086456E+03  0.35234134466E+03  0.41889933334E+03  0.16944477265E+03 0.  0.
         24    2    3    3    0    0  0.44320698693E+01  0.13541377990E+03  0.33765139159E+03  0.37301718688E+03  0.82321470082E+02 0.  0.
         -6    2    1    2    0  502 -0.46995887023E+02 -0.14287086456E+03 -0.12724558297E+03  0.26142107635E+03  0.17183958635E+03 0.  0.
        -24    2    5    5    0    0 -0.23727213722E+02 -0.32805002227E+02 -0.12016949047E+03  0.14860225570E+03  0.77477578148E+02 0.  0.
          5    1    3    3  501    0  0.42563817154E+02  0.74570846633E+01  0.14689953064E+02  0.45882146456E+02  0.47000000000E+01 0. -1.
        -11    1    4    4    0    0  0.18175521616E+02  0.54188628819E+01  0.12881089665E+02  0.22926755808E+02  0.00000000000E+00 0.  1.
         12    1    4    4    0    0 -0.13743451747E+02  0.12999491702E+03  0.32477030193E+03  0.35009043108E+03  0.00000000000E+00 0. -1.
         -5    1    5    5    0  502 -0.23268673301E+02 -0.11006586234E+03 -0.70760924973E+01  0.11281882065E+03  0.47000000000E+01 0.  1.
         13    1    6    6    0    0 -0.24252559889E+01  0.24847151341E+02 -0.45422175599E+02  0.51830848271E+02  0.00000000000E+00 0. -1.
        -14    1    6    6    0    0 -0.21301957733E+02 -0.57652153569E+02 -0.74747314874E+02  0.96771407426E+02  0.00000000000E+00 0.  1.
</event>
<event>
12    1  0.8747122E-002  0.2244916E+03  0.7818608E-02  0.1130727E+00
         21   -1    0    0  503  502  0.00000000000E+00  0.00000000000E+00  0.20273256917E+04  0.20273256917E+04  0.00000000000E+00 0. -1.
         21   -1    0    0  501  503 -0.00000000000E+00 -0.00000000000E+00 -0.25490673848E+02  0.25490673848E+02  0.00000000000E+00 0. -1.
          6    2    1    2  501    0 -0.11138838454E+03 -0.86102780944E+02  0.82987007896E+03  0.85969810430E+03  0.17485828977E+03 0.  0.
         24    2    3    3    0    0 -0.97730187858E+02 -0.12689776668E+03  0.71047238832E+03  0.73269938098E+03  0.80144466517E+02 0.  0.
         -6    2    1    2    0  502  0.11138838454E+03  0.86102780944E+02  0.11719649389E+04  0.11931182613E+04  0.17380536878E+03 0.  0.
        -24    2    5    5    0    0  0.12857105120E+03  0.72618027432E+02  0.65991867559E+03  0.68058480051E+03  0.76805723558E+02 0.  0.
          5    1    3    3  501    0 -0.13658196685E+02  0.40794985731E+02  0.11939769064E+03  0.12699872333E+03  0.47000000000E+01 0. -1.
        -13    1    4    4    0    0 -0.12360147542E+02  0.11093623202E+02  0.77480981729E+02  0.79241051562E+02  0.00000000000E+00 0.  1.
         14    1    4    4    0    0 -0.85370040316E+02 -0.13799138988E+03  0.63299140659E+03  0.65345832942E+03  0.00000000000E+00 0. -1.
         -5    1    5    5    0  502 -0.17182666658E+02  0.13484753512E+02  0.51204626335E+03  0.51253346078E+03  0.47000000000E+01 0.  1.
         13    1    6    6    0    0  0.39197430004E+02  0.48382946334E+02  0.39659182396E+03  0.40145039898E+03  0.00000000000E+00 0. -1.
        -14    1    6    6    0    0  0.89373621198E+02  0.24235081098E+02  0.26332685164E+03  0.27913440153E+03  0.00000000000E+00 0.  1.
</event>
<event>
12    1  0.8747122E-002  0.1906775E+03  0.7818608E-02  0.1158009E+00
         21   -1    0    0  503  502  0.00000000000E+00  0.00000000000E+00  0.25658172337E+03  0.25658172337E+03  0.00000000000E+00 0.  1.
         21   -1    0    0  501  503 -0.00000000000E+00 -0.00000000000E+00 -0.33181949370E+03  0.33181949370E+03  0.00000000000E+00 0. -1.
          6    2    1    2  501    0 -0.56386726636E+02  0.58633165819E+02 -0.26064443163E+03  0.32294495685E+03  0.17245467329E+03 0.  0.
         24    2    3    3    0    0  0.30099037092E+02 -0.13692841210E+01 -0.10505830705E+03  0.13503749694E+03  0.79309840045E+02 0.  0.
         -6    2    1    2    0  502  0.56386726636E+02 -0.58633165819E+02  0.18540666130E+03  0.26545626022E+03  0.17168018220E+03 0.  0.
        -24    2    5    5    0    0  0.50022960307E+02 -0.26377962948E+00  0.29095742151E+02  0.98415318499E+02  0.79603056263E+02 0.  0.
          5    1    3    3  501    0 -0.86485763728E+02  0.60002449940E+02 -0.15558612458E+03  0.18790745990E+03  0.47000000000E+01 0. -1.
        -11    1    4    4    0    0  0.16439237183E+02  0.19938342888E+02  0.11381065258E+01  0.25866606325E+02  0.00000000000E+00 0.  1.
         12    1    4    4    0    0  0.13659799909E+02 -0.21307627009E+02 -0.10619641358E+03  0.10917089062E+03  0.00000000000E+00 0. -1.
         -5    1    5    5    0  502  0.63637663289E+01 -0.58369386190E+02  0.15631091915E+03  0.16704094172E+03  0.47000000000E+01 0.  1.
         11    1    6    6    0    0  0.40922888892E+02 -0.27183400513E+02 -0.99479902659E+01  0.50125668166E+02  0.00000000000E+00 0. -1.
        -12    1    6    6    0    0  0.91000714149E+01  0.26919620883E+02  0.39043732417E+02  0.48289650333E+02  0.00000000000E+00 0.  1.
</event>
<event>
12    1  0.8747122E-002  0.1843879E+03  0.7818608E-02  0.1163899E+00
         21   -1    0    0  503  502  0.00000000000E+00  0.00000000000E+00  0.65892694240E+02  0.65892694240E+02  0.00000000000E+00 0.  1.
         21   -1    0    0  501  503 -0.00000000000E+00 -0.00000000000E+00 -0.21129614650E+04  0.21129614650E+04  0.00000000000E+00 0.  1.
          6    2    1    2  501    0  0.51851864882E+02 -0.28536774980E+02 -0.19708284855E+04  0.19793260504E+04  0.17338895915E+03 0.  0.
         24    2    3    3    0    0  0.80690597539E+01 -0.25853951532E+02 -0.36893015465E+03  0.37682036120E+03  0.71767604602E+02 0.  0.
         -6    2    1    2    0  502 -0.51851864882E+02  0.28536774980E+02 -0.76240285336E+02  0.19952810891E+03  0.17463081549E+03 0.  0.
        -24    2    5    5    0    0 -0.32385278260E+02 -0.48351832933E+02 -0.68162332204E+02  0.11966479224E+03  0.79289677610E+02 0.  0.
          5    1    3    3  501    0  0.43782805128E+02 -0.26828234473E+01 -0.16018983308E+04  0.16025056892E+04  0.47000000000E+01 0. -1.
        -11    1    4    4    0    0  0.17229531203E+02 -0.13613358342E+02 -0.35633700796E+03  0.35701294587E+03  0.00000000000E+00 0.  1.
         12    1    4    4    0    0 -0.91604714494E+01 -0.12240593191E+02 -0.12593146688E+02  0.19807415337E+02  0.00000000000E+00 0. -1.
         -5    1    5    5    0  502 -0.19466586622E+02  0.76888607913E+02 -0.80779531321E+01  0.79863316662E+02  0.47000000000E+01 0.  1.
         13    1    6    6    0    0  0.18224485829E+02 -0.15627876895E+02 -0.51989235846E+02  0.57264675533E+02  0.00000000000E+00 0. -1.
        -14    1    6    6    0    0 -0.50609764089E+02 -0.32723956038E+02 -0.16173096358E+02  0.62400116712E+02  0.00000000000E+00 0.  1.
</event>
<event>
12    1  0.8747122E-002  0.2730701E+03  0.7818608E-02  0.1099666E+00
         21   -1    0    0  503  502  0.00000000000E+00  0.00000000000E+00  0.10418343199E+03  0.10418343199E+03  0.00000000000E+00 0. -1.
         21   -1    0    0  501  503 -0.00000000000E+00 -0.00000000000E+00 -0.12431351897E+04  0.12431351897E+04  0.00000000000E+00 0.  1.
          6    2    1    2  501    0  0.21129829445E+03 -0.15728135264E+02 -0.10098175366E+04  0.10460873361E+04  0.17225827745E+03 0.  0.
         24    2    3    3    0    0  0.16805473118E+03 -0.60565312841E+02 -0.58155196065E+03  0.61328960996E+03  0.77530077707E+02 0.  0.
         -6    2    1    2    0  502 -0.21129829445E+03  0.15728135264E+02 -0.12913422113E+03  0.30123128557E+03  0.17079314057E+03 0.  0.
        -24    2    5    5    0    0 -0.19469703099E+03  0.92445851098E+01 -0.45361511241E+02  0.21545485936E+03  0.79816874718E+02 0.  0.
          5    1    3    3  501    0  0.43243563269E+02  0.44837177578E+02 -0.42826557592E+03  0.43279772616E+03  0.47000000000E+01 0. -1.
        -13    1    4    4    0    0  0.84999217146E+02 -0.54075820341E+02 -0.41514812075E+03  0.42719670343E+03  0.00000000000E+00 0.  1.
         14    1    4    4    0    0  0.83055514031E+02 -0.64894925005E+01 -0.16640383990E+03  0.18609290652E+03  0.00000000000E+00 0. -1.
         -5    1    5    5    0  502 -0.16601263452E+02  0.64835501540E+01 -0.83772709886E+02  0.85776426205E+02  0.47000000000E+01 0.  1.
         13    1    6    6    0    0 -0.69660159183E+01  0.20720441495E+02 -0.10167719103E+02  0.24109014606E+02  0.00000000000E+00 0. -1.
        -14    1    6    6    0    0 -0.18773101507E+03 -0.11475856385E+02 -0.35193792138E+02  0.19134584476E+03  0.00000000000E+00 0.  1.
</event>
<event>
12    1  0.8747122E-002  0.2218740E+03  0.7818608E-02  0.1132519E+00
         21   -1    0    0  503  502  0.00000000000E+00  0.00000000000E+00  0.46380522587E+03  0.46380522587E+03  0.00000000000E+00 0. -1.
         21   -1    0    0  501  503 -0.00000000000E+00 -0.00000000000E+00 -0.13576831980E+03  0.13576831980E+03  0.00000000000E+00 0. -1.
          6    2    1    2  501    0  0.51814004077E+02 -0.13061602378E+03  0.23854785327E+02  0.22315268360E+03  0.17170565724E+03 0.  0.
         24    2    3    3    0    0 -0.32179768233E+02 -0.34892302663E+02  0.21415257069E+02  0.95692784533E+02  0.80283781099E+02 0.  0.
         -6    2    1    2    0  502 -0.51814004077E+02  0.13061602378E+03  0.30418212075E+03  0.37642086207E+03  0.17152453507E+03 0.  0.
        -24    2    5    5    0    0 -0.70528250306E+02  0.95795358587E+02  0.30242552344E+03  0.33657268306E+03  0.87572763642E+02 0.  0.
          5    1    3    3  501    0  0.83993772310E+02 -0.95723721119E+02  0.24395282577E+01  0.12745989907E+03  0.47000000000E+01 0. -1.
        -13    1    4    4    0    0  0.16189403349E+01 -0.14565032359E+02 -0.28517369842E+02  0.32062462758E+02  0.00000000000E+00 0.  1.
         14    1    4    4    0    0 -0.33798708568E+02 -0.20327270304E+02  0.49932626911E+02  0.63630321775E+02  0.00000000000E+00 0. -1.
         -5    1    5    5    0  502  0.18714246229E+02  0.34820665195E+02  0.17565973054E+01  0.39848179012E+02  0.47000000000E+01 0.  1.
         11    1    6    6    0    0 -0.18488005151E+02  0.44071647966E+02  0.22453844138E+03  0.22956835180E+03  0.00000000000E+00 0. -1.
        -12    1    6    6    0    0 -0.52040245154E+02  0.51723710622E+02  0.77887082062E+02  0.10700433126E+03  0.00000000000E+00 0.  1.
</event>
<event>
12    1  0.8747122E-002  0.2616614E+03  0.7818608E-02  0.1106422E+00
         21   -1    0    0  503  502  0.00000000000E+00  0.00000000000E+00  0.26505903713E+03  0.26505903713E+03  0.00000000000E+00 0.  1.
         21   -1    0    0  501  503 -0.00000000000E+00 -0.00000000000E+00 -0.10622288973E+04  0.10622288973E+04  0.00000000000E+00 0. -1.
          6    2    1    2  501    0 -0.16165168367E+03 -0.10935946815E+03 -0.97690959462E+03  0.10113451571E+04  0.17428686327E+03 0.  0.
         24    2    3    3    0    0 -0.17209155719E+03 -0.73235572601E+02 -0.61824531961E+03  0.65068454250E+03  0.78639337973E+02 0.  0.
         -6    2    1    2    0  502  0.16165168367E+03  0.10935946815E+03  0.17973973449E+03  0.31594277725E+03  0.17153048194E+03 0.  0.
        -24    2    5    5    0    0  0.10888232556E+03 -0.23197564130E+01  0.10670439060E+03  0.17237012731E+03  0.80404550405E+02 0.  0.
          5    1    3    3  501    0  0.10439873513E+02 -0.36123895546E+02 -0.35866427501E+03  0.36066061464E+03  0.47000000000E+01 0. -1.
        -13    1    4    4    0    0 -0.50247619057E+02 -0.10638512475E+02 -0.78362681304E+02  0.93694775680E+02  0.00000000000E+00 0.  1.
         14    1    4    4    0    0 -0.12184393813E+03 -0.62597060125E+02 -0.53988263831E+03  0.55698976682E+03  0.00000000000E+00 0. -1.
         -5    1    5    5    0  502  0.52769358112E+02  0.11167922456E+03  0.73035343884E+02  0.14357264994E+03  0.47000000000E+01 0.  1.
         11    1    6    6    0    0  0.25039753216E+02 -0.36498261118E+02  0.27771726828E+02  0.52253048875E+02  0.00000000000E+00 0. -1.
        -12    1    6    6    0    0  0.83842572345E+02  0.34178504705E+02  0.78932663777E+02  0.12011707844E+03  0.00000000000E+00 0.  1.
</event>
<event>
12    1  0.8747122E-002  0.2749717E+03  0.7818608E-02  0.1098753E+00
         21   -1    0    0  501  502  0.00000000000E+00  0.00000000000E+00  0.33084054390E+04  0.33084054390E+04  0.00000000000E+00 0. -1.
         21   -1    0    0  502  503 -0.00000000000E+00 -0.00000000000E+00 -0.37490723741E+02  0.37490723741E+02  0.00000000000E+00 0. -1.
         -6    2    1    2    0  503 -0.18755899436E+03  0.99894843605E+02  0.58046645452E+03  0.64143294471E+03  0.17128211115E+03 0.  0.
        -24    2    3    3    0    0 -0.20350426452E+03  0.61310649637E+02  0.44433957829E+03  0.49897028961E+03  0.79754044732E+02 0.  0.
          6    2    1    2  501    0  0.18755899436E+03 -0.99894843605E+02  0.26904482607E+04  0.27044632180E+04  0.17450529448E+03 0.  0.
         24    2    5    5    0    0  0.73513563071E+02 -0.41430819043E+02  0.19122275186E+04  0.19157465287E+04  0.79686401095E+02 0.  0.
          5    1    5    5  501    0  0.11404543128E+03 -0.58464024562E+02  0.77822074214E+03  0.78871668936E+03  0.47000000000E+01 0. -1.
        -11    1    6    6    0    0  0.14362999717E+02  0.90134890209E+01  0.10193864857E+04  0.10195275111E+04  0.00000000000E+00 0.  1.
         12    1    6    6    0    0  0.59150563354E+02 -0.50444308064E+02  0.89284103292E+03  0.89621901755E+03  0.00000000000E+00 0. -1.
         -5    1    3    3    0  503  0.15945270164E+02  0.38584193968E+02  0.13612687623E+03  0.14246265510E+03  0.47000000000E+01 0.  1.
         11    1    4    4    0    0 -0.91342694358E+02  0.54015681825E+02  0.14867626884E+03  0.18266311782E+03  0.00000000000E+00 0. -1.
        -12    1    4    4    0    0 -0.11216157016E+03  0.72949678124E+01  0.29566330945E+03  0.31630717180E+03  0.00000000000E+00 0.  1.
</event>
<event>
12    1  0.8747122E-002  0.1918404E+03  0.7818608E-02  0.1157266E+00
         21   -1    0    0  503  502  0.00000000000E+00  0.00000000000E+00  0.12627515256E+04  0.12627515256E+04  0.00000000000E+00 0.  1.
         21   -1    0    0  501  503 -0.00000000000E+00 -0.00000000000E+00 -0.30786156134E+02  0.30786156134E+02  0.00000000000E+00 0.  1.
          6    2    1    2  501    0  0.83373333539E+02 -0.18447585365E+02  0.45633387587E+03  0.49501851902E+03  0.17178853788E+03 0.  0.
         24    2    3    3    0    0  0.62747681208E+01 -0.51439811778E+02  0.32664768091E+03  0.34050872982E+03  0.81006547198E+02 0.  0.
         -6    2    1    2    0  502 -0.83373333539E+02  0.18447585365E+02  0.77563149356E+03  0.79851916268E+03  0.16952053923E+03 0.  0.
        -24    2    5    5    0    0 -0.40439510406E+01 -0.23666916139E+02  0.21168216088E+03  0.22744322904E+03  0.79653052293E+02 0.  0.
          5    1    3    3  501    0  0.77098565418E+02  0.32992226413E+02  0.12968619497E+03  0.15450978920E+03  0.47000000000E+01 0. -1.
        -11    1    4    4    0    0 -0.26231089584E+02  0.30109013192E+01  0.16074492846E+03  0.16289894909E+03  0.00000000000E+00 0.  1.
         12    1    4    4    0    0  0.32505857705E+02 -0.54450713097E+02  0.16590275244E+03  0.17760978073E+03  0.00000000000E+00 0. -1.
         -5    1    5    5    0  502 -0.79329382498E+02  0.42114501504E+02  0.56394933267E+03  0.57107593364E+03  0.47000000000E+01 0.  1.
         11    1    6    6    0    0 -0.36714408426E+02  0.81221620514E+01  0.94225689051E+02  0.10145145529E+03  0.00000000000E+00 0. -1.
        -12    1    6    6    0    0  0.32670457386E+02 -0.31789078190E+02  0.11745647183E+03  0.12599177375E+03  0.00000000000E+00 0.  1.
</event>
<event>
12    1  0.8747122E-002  0.1809408E+03  0.7818608E-02  0.1167567E+00
         21   -1    0    0  501  502  0.00000000000E+00  0.00000000000E+00  0.88427981476E+02  0.88427981476E+02  0.00000000000E+00 0.  1.
         21   -1    0    0  502  503 -0.00000000000E+00 -0.00000000000E+00 -0.45518377961E+03  0.45518377961E+03  0.00000000000E+00 0.  1.
         -6    2    1    2    0  503  0.12102998948E+02 -0.55402034063E+02 -0.30576376228E+03  0.35529011944E+03  0.17182468591E+03 0.  0.
        -24    2    3    3    0    0  0.72704695096E+02 -0.36908865975E+02 -0.16095687839E+03  0.19715825528E+03  0.79473415976E+02 0.  0.
          6    2    1    2  501    0 -0.12102998948E+02  0.55402034063E+02 -0.60992035848E+02  0.18832164164E+03  0.16890572610E+03 0.  0.
         24    2    5    5    0    0  0.51117255083E+02  0.53763510785E+02 -0.61116211299E+02  0.12490562869E+03  0.79766759596E+02 0.  0.
          5    1    5    5  501    0 -0.63220254031E+02  0.16385232784E+01  0.12417545086E+00  0.63416012944E+02  0.47000000000E+01 0. -1.
        -13    1    6    6    0    0  0.80694689963E+01  0.11603736426E+02  0.19609572704E+02  0.24172264490E+02  0.00000000000E+00 0.  1.
         14    1    6    6    0    0  0.43047786087E+02  0.42159774358E+02 -0.80725784002E+02  0.10073336420E+03  0.00000000000E+00 0. -1.
         -5    1    3    3    0  503 -0.60601696148E+02 -0.18493168089E+02 -0.14480688389E+03  0.15813186417E+03  0.47000000000E+01 0.  1.
         13    1    4    4    0    0  0.10361317601E+02  0.18989180029E+02 -0.85426387507E+01  0.23257741451E+02  0.00000000000E+00 0. -1.
        -14    1    4    4    0    0  0.62343377495E+02 -0.55898046004E+02 -0.15241423964E+03  0.17390051383E+03  0.00000000000E+00 0.  1.
</event>
<event>
12    1  0.8747122E-002  0.2569930E+03  0.7818608E-02  0.1110186E+00
         21   -1    0    0  503  502  0.00000000000E+00  0.00000000000E+00  0.56656012653E+03  0.56656012653E+03  0.00000000000E+00 0. -1.
         21   -1    0    0  501  503 -0.00000000000E+00 -0.00000000000E+00 -0.12018055748E+03  0.12018055748E+03  0.00000000000E+00 0. -1.
          6    2    1    2  501    0  0.47291104425E+01  0.19071307471E+03  0.30371210186E+03  0.39280291899E+03  0.16018505235E+03 0.  0.
         24    2    3    3    0    0  0.11126515349E+02  0.20863218679E+03  0.24750327251E+03  0.33327524589E+03  0.78506884496E+02 0.  0.
         -6    2    1    2    0  502 -0.47291104425E+01 -0.19071307471E+03  0.14266746719E+03  0.29393776502E+03  0.17219628963E+03 0.  0.
        -24    2    5    5    0    0  0.63555750961E+02 -0.13069235543E+03  0.95384020919E+02  0.19135548911E+03  0.79993665489E+02 0.  0.
          5    1    3    3  501    0 -0.63974049066E+01 -0.17919112076E+02  0.56208829350E+02  0.59527673094E+02  0.47000000000E+01 0. -1.
        -13    1    4    4    0    0 -0.11467255234E+02  0.51776703759E+02  0.11524892650E+03  0.12686465250E+03  0.00000000000E+00 0.  1.
         14    1    4    4    0    0  0.22593770583E+02  0.15685548303E+03  0.13225434601E+03  0.20641059339E+03  0.00000000000E+00 0. -1.
         -5    1    5    5    0  502 -0.68284861404E+02 -0.60020719282E+02  0.47283446271E+02  0.10258227591E+03  0.47000000000E+01 0.  1.
         13    1    6    6    0    0  0.61732444620E+02 -0.94750506200E+02  0.30447935570E+02  0.11711374780E+03  0.00000000000E+00 0. -1.
        -14    1    6    6    0    0  0.18233063414E+01 -0.35941849229E+02  0.64936085349E+02  0.74241741308E+02  0.00000000000E+00 0.  1.
</event>
<event>
12    1  0.8747122E-002  0.1973326E+03  0.7818608E-02  0.1152203E+00
         21   -1    0    0  503  502  0.00000000000E+00  0.00000000000E+00  0.55986730397E+03  0.55986730397E+03  0.00000000000E+00 0.  1.
         21   -1    0    0  501  503 -0.00000000000E+00 -0.00000000000E+00 -0.92722346431E+02  0.92722346431E+02  0.00000000000E+00 0.  1.
          6    2    1    2  501    0 -0.68963699209E+02 -0.70149753434E+02  0.69748424781E+02  0.20929647682E+03  0.17106487873E+03 0.  0.
         24    2    3    3    0    0 -0.33969204845E+02 -0.73930908983E+02 -0.17760929238E+02  0.11485660805E+03  0.79100591807E+02 0.  0.
         -6    2    1    2    0  502  0.68963699209E+02  0.70149753434E+02  0.39739653276E+03  0.44329317358E+03  0.17002309778E+03 0.  0.
        -24    2    5    5    0    0  0.44471319400E+02  0.50618535844E+02  0.10244146972E+03  0.14664199063E+03  0.80434347630E+02 0.  0.
          5    1    3    3  501    0 -0.34994494364E+02  0.37811555493E+01  0.87509354019E+02  0.94439868773E+02  0.47000000000E+01 0. -1.
        -11    1    4    4    0    0 -0.17346493357E+02 -0.74014705480E+02  0.15581100683E+02  0.77600568023E+02  0.00000000000E+00 0.  1.
         12    1    4    4    0    0 -0.16622711488E+02  0.83796496622E-01 -0.33342029922E+02  0.37256040025E+02  0.00000000000E+00 0. -1.
         -5    1    5    5    0  502  0.24492379809E+02  0.19531217589E+02  0.29495506305E+03  0.29665118295E+03  0.47000000000E+01 0.  1.
         11    1    6    6    0    0  0.29857862676E+02 -0.16212017576E+02  0.49970958692E+02  0.60426965752E+02  0.00000000000E+00 0. -1.
        -12    1    6    6    0    0  0.14613456725E+02  0.66830553420E+02  0.52470511025E+02  0.86215024880E+02  0.00000000000E+00 0.  1.
</event>
<event>
12    1  0.8747122E-002  0.2917669E+03  0.7818608E-02  0.1089540E+00
         21   -1    0    0  501  502  0.00000000000E+00  0.00000000000E+00  0.51719201719E+03  0.51719201719E+03  0.00000000000E+00 0.  1.
         21   -1    0    0  502  503 -0.00000000000E+00 -0.00000000000E+00 -0.36205136399E+03  0.36205136399E+03  0.00000000000E+00 0. -1.
         -6    2    1    2    0  503  0.23557549193E+03  0.10287124189E+02 -0.24753387317E+03  0.38197614433E+03  0.17038520813E+03 0.  0.
        -24    2    3    3    0    0  0.56357163070E+02  0.26815153532E+02 -0.65585691449E+02  0.12600814636E+03  0.87643526503E+02 0.  0.
          6    2    1    2  501    0 -0.23557549193E+03 -0.10287124189E+02  0.40267452637E+03  0.49726723685E+03  0.17183216620E+03 0.  0.
         24    2    5    5    0    0 -0.24511615541E+03 -0.32522729358E+02  0.39359845465E+03  0.47100107088E+03  0.76043459291E+02 0.  0.
          5    1    5    5  501    0  0.95406634855E+01  0.22235605169E+02  0.90760717203E+01  0.26266165971E+02  0.47000000000E+01 0. -1.
        -11    1    6    6    0    0 -0.15675251961E+03  0.92349525566E+01  0.20138516017E+03  0.25536761637E+03  0.00000000000E+00 0.  1.
         12    1    6    6    0    0 -0.88363635800E+02 -0.41757681914E+02  0.19221329448E+03  0.21563345451E+03  0.00000000000E+00 0. -1.
         -5    1    3    3    0  503  0.17921832886E+03 -0.16528029343E+02 -0.18194818172E+03  0.25596799797E+03  0.47000000000E+01 0.  1.
         13    1    4    4    0    0  0.48411589578E+02  0.48102989523E+02 -0.75008640262E+02  0.10140944591E+03  0.00000000000E+00 0. -1.
        -14    1    4    4    0    0  0.79455734916E+01 -0.21287835990E+02  0.94229488136E+01  0.24598700446E+02  0.00000000000E+00 0.  1.
</event>
<event>
12    1  0.8747122E-002  0.2329364E+03  0.7818608E-02  0.1124673E+00
         21   -1    0    0  501  502  0.00000000000E+00  0.00000000000E+00  0.56514884260E+03  0.56514884260E+03  0.00000000000E+00 0.  1.
         21   -1    0    0  502  503 -0.00000000000E+00 -0.00000000000E+00 -0.16152299239E+03  0.16152299239E+03  0.00000000000E+00 0.  1.
         -6    2    1    2    0  503  0.10151652669E+03  0.12001439242E+03 -0.30056197178E+02  0.23439196809E+03  0.17125174492E+03 0.  0.
        -24    2    3    3    0    0  0.16678821312E+02  0.55087008794E+02  0.42817541622E+02  0.10498689398E+03  0.76656013587E+02 0.  0.
          6    2    1    2  501    0 -0.10151652669E+03 -0.12001439242E+03  0.43368204739E+03  0.49227986689E+03  0.17190197654E+03 0.  0.
         24    2    5    5    0    0 -0.21429241235E+02 -0.12382001022E+03  0.28003953080E+03  0.31891156263E+03  0.86555408010E+02 0.  0.
          5    1    5    5  501    0 -0.80087285458E+02  0.38056178002E+01  0.15364251659E+03  0.17336830426E+03  0.47000000000E+01 0. -1.
        -13    1    6    6    0    0 -0.25129425613E+02 -0.53390538321E+02  0.21507880597E+03  0.22302674815E+03  0.00000000000E+00 0.  1.
         14    1    6    6    0    0  0.37001843777E+01 -0.70429471903E+02  0.64960724834E+02  0.95884814480E+02  0.00000000000E+00 0. -1.
         -5    1    3    3    0  503  0.84837705381E+02  0.64927383630E+02 -0.72873738800E+02  0.12940507411E+03  0.47000000000E+01 0.  1.
         13    1    4    4    0    0  0.37596292064E+02  0.31529543297E+02  0.52664314816E+02  0.71980020370E+02  0.00000000000E+00 0. -1.
        -14    1    4    4    0    0 -0.20917470751E+02  0.23557465497E+02 -0.98467731937E+01  0.33006873611E+02  0.00000000000E+00 0.  1.
</event>
<event>
12    1  0.8747122E-002  0.1900598E+03  0.7818608E-02  0.1159852E+00
         21   -1    0    0  503  502  0.00000000000E+00  0.00000000000E+00  0.55609869573E+03  0.55609869573E+03  0.00000000000E+00 0. -1.
         21   -1    0    0  501  503 -0.00000000000E+00 -0.00000000000E+00 -0.67387987765E+02  0.67387987765E+02  0.00000000000E+00 0. -1.
          6    2    1    2  501    0 -0.36152883564E+02 -0.51831479823E+02  0.16707010383E+03  0.25305163452E+03  0.17924613483E+03 0.  0.
         24    2    3    3    0    0  0.42241393064E+02 -0.57561848069E+02  0.12147509209E+03  0.16205990510E+03  0.80059435426E+02 0.  0.
         -6    2    1    2    0  502  0.36152883564E+02  0.51831479823E+02  0.32164060413E+03  0.37043504897E+03  0.17255698765E+03 0.  0.
        -24    2    5    5    0    0 -0.45429834168E+01  0.94342201285E+02  0.23816193543E+03  0.26818978914E+03  0.79268946449E+02 0.  0.
          5    1    3    3  501    0 -0.78394276628E+02  0.57303682467E+01  0.45595011734E+02  0.90991729422E+02  0.47000000000E+01 0. -1.
        -13    1    4    4    0    0  0.41473958570E+02  0.52859387675E+01  0.31693128720E+02  0.52464128661E+02  0.00000000000E+00 0.  1.
         14    1    4    4    0    0  0.76743449405E+00 -0.62847786837E+02  0.89781963371E+02  0.10959577644E+03  0.00000000000E+00 0. -1.
         -5    1    5    5    0  502  0.40695866981E+02 -0.42510721462E+02  0.83478668705E+02  0.10224525983E+03  0.47000000000E+01 0.  1.
         11    1    6    6    0    0 -0.99954481795E+00  0.29194582536E+02  0.99893183341E+01  0.30872467023E+02  0.00000000000E+00 0. -1.
        -12    1    6    6    0    0 -0.35434385988E+01  0.65147618749E+02  0.22817261710E+03  0.23731732212E+03  0.00000000000E+00 0.  1.
</event>
<event>
12    1  0.8747122E-002  0.1922429E+03  0.7818608E-02  0.1156652E+00
         21   -1    0    0  501  502  0.00000000000E+00  0.00000000000E+00  0.14986910933E+03  0.14986910933E+03  0.00000000000E+00 0. -1.
         21   -1    0    0  502  503 -0.00000000000E+00 -0.00000000000E+00 -0.27606277555E+03  0.27606277555E+03  0.00000000000E+00 0. -1.
         -6    2    1    2    0  503  0.84629480043E+02 -0.18407153279E+02  0.76808817495E+01  0.19239628896E+03  0.17162856369E+03 0.  0.
        -24    2    3    3    0    0  0.72978444486E+02 -0.55885779487E+02 -0.42490767738E+02  0.12852392823E+03  0.79144558102E+02 0.  0.
          6    2    1    2  501    0 -0.84629480043E+02  0.18407153279E+02 -0.13387454797E+03  0.23353559592E+03  0.17063266915E+03 0.  0.
         24    2    5    5    0    0 -0.10115277506E+01 -0.18697023997E+02 -0.11429671140E+03  0.13986562420E+03  0.78409519195E+02 0.  0.
          5    1    5    5  501    0 -0.83617952292E+02  0.37104177276E+02 -0.19577836563E+02  0.93669971717E+02  0.47000000000E+01 0. -1.
        -13    1    6    6    0    0  0.30759729506E+02 -0.13844228309E+02 -0.17764194117E+02  0.38123355170E+02  0.00000000000E+00 0.  1.
         14    1    6    6    0    0 -0.31771257257E+02 -0.48527956881E+01 -0.96532517288E+02  0.10174226903E+03  0.00000000000E+00 0. -1.
         -5    1    3    3    0  503  0.11651035557E+02  0.37478626208E+02  0.50171649487E+02  0.63872360722E+02  0.47000000000E+01 0.  1.
         13    1    4    4    0    0  0.48922342238E+02 -0.49584978720E+02 -0.64784115613E+02  0.95126480648E+02  0.00000000000E+00 0. -1.
        -14    1    4    4    0    0  0.24056102248E+02 -0.63008007669E+01  0.22293347876E+02  0.33397447585E+02  0.00000000000E+00 0.  1.
</event>
<event>
12    1  0.8747122E-002  0.1930864E+03  0.7818608E-02  0.1155926E+00
         21   -1    0    0  501  502  0.00000000000E+00  0.00000000000E+00  0.80145736295E+02  0.80145736295E+02  0.00000000000E+00 0.  1.
         21   -1    0    0  502  503 -0.00000000000E+00 -0.00000000000E+00 -0.47460613071E+03  0.47460613071E+03  0.00000000000E+00 0.  1.
         -6    2    1    2    0  503 -0.82407611326E+02 -0.22654902686E+02 -0.24147484948E+03  0.30918032029E+03  0.17314187392E+03 0.  0.
        -24    2    3    3    0    0 -0.33793414527E+02 -0.20594726001E+02 -0.24537327706E+03  0.26014082400E+03  0.76805374911E+02 0.  0.
          6    2    1    2  501    0  0.82407611326E+02  0.22654902686E+02 -0.15298554494E+03  0.24557154672E+03  0.17203647455E+03 0.  0.
         24    2    5    5    0    0  0.56335627917E+02  0.62880935708E+02 -0.41255144276E+02  0.12390127720E+03  0.80757813955E+02 0.  0.
          5    1    5    5  501    0  0.26071983409E+02 -0.40226033023E+02 -0.11173040066E+03  0.12167026951E+03  0.47000000000E+01 0. -1.
        -13    1    6    6    0    0 -0.14148449914E+01  0.55473330055E+02 -0.34367038069E+02  0.65271628135E+02  0.00000000000E+00 0.  1.
         14    1    6    6    0    0  0.57750472908E+02  0.74076056537E+01 -0.68881062063E+01  0.58629649067E+02  0.00000000000E+00 0. -1.
         -5    1    3    3    0  503 -0.48614196799E+02 -0.20601766842E+01  0.38984275783E+01  0.49039496286E+02  0.47000000000E+01 0.  1.
         13    1    4    4    0    0 -0.51703086157E+02  0.64780965134E+01 -0.12403732668E+03  0.13453785067E+03  0.00000000000E+00 0. -1.
        -14    1    4    4    0    0  0.17909671630E+02 -0.27072822515E+02 -0.12133595037E+03  0.12560297333E+03  0.00000000000E+00 0.  1.
</event>
<event>
12    1  0.8747122E-002  0.1960283E+03  0.7818608E-02  0.1153152E+00
         21   -1    0    0  501  502  0.00000000000E+00  0.00000000000E+00  0.26710154822E+03  0.26710154822E+03  0.00000000000E+00 0.  1.
         21   -1    0    0  502  503 -0.00000000000E+00 -0.00000000000E+00 -0.55556873134E+03  0.55556873134E+03  0.00000000000E+00 0.  1.
         -6    2    1    2    0  503  0.76581982534E+02 -0.55603263934E+02 -0.49834628160E+03  0.53548338523E+03  0.17157189880E+03 0.  0.
        -24    2    3    3    0    0  0.96929003378E+02 -0.50188657896E+02 -0.49561206235E+03  0.51373746215E+03  0.79879475410E+02 0.  0.
          6    2    1    2  501    0 -0.76581982534E+02  0.55603263934E+02  0.20987909848E+03  0.28718689433E+03  0.17166989628E+03 0.  0.
         24    2    5    5    0    0 -0.25556410990E+02  0.62353233167E+02  0.21504373283E+03  0.23524524934E+03  0.67494181070E+02 0.  0.
          5    1    5    5  501    0 -0.51025571544E+02 -0.67499692329E+01 -0.51646343557E+01  0.51941644988E+02  0.47000000000E+01 0. -1.
        -13    1    6    6    0    0  0.22910446520E+02  0.13994727205E+02  0.64483912042E+02  0.69849236656E+02  0.00000000000E+00 0.  1.
         14    1    6    6    0    0 -0.48466857510E+02  0.48358505962E+02  0.15055982079E+03  0.16539601269E+03  0.00000000000E+00 0. -1.
         -5    1    3    3    0  503 -0.20347020844E+02 -0.54146060384E+01 -0.27342192566E+01  0.21745923083E+02  0.47000000000E+01 0.  1.
         13    1    4    4    0    0  0.46584114309E+00  0.17426249446E+02 -0.60601052942E+02  0.63058534676E+02  0.00000000000E+00 0. -1.
        -14    1    4    4    0    0  0.96463162235E+02 -0.67614907342E+02 -0.43501100940E+03  0.45067892747E+03  0.00000000000E+00 0.  1.
</event>
<event>
12    1  0.8747122E-002  0.2049017E+03  0.7818608E-02  0.1145950E+00
         21   -1    0    0  503  502  0.00000000000E+00  0.00000000000E+00  0.57770719981E+02  0.57770719981E+02  0.00000000000E+00 0. -1.
         21   -1    0    0  501  503 -0.00000000000E+00 -0.00000000000E+00 -0.95940027314E+03  0.95940027314E+03  0.00000000000E+00 0.  1.
          6    2    1    2  501    0  0.61112277610E+02 -0.92790003568E+02 -0.19890421270E+03  0.28556538220E+03  0.17216273244E+03 0.  0.
         24    2    3    3    0    0 -0.65706356355E+01 -0.58141712868E+02 -0.36964759274E+02  0.10660181783E+03  0.81079726867E+02 0.  0.
         -6    2    1    2    0  502 -0.61112277610E+02  0.92790003568E+02 -0.70272534046E+03  0.73160561093E+03  0.17052615805E+03 0.  0.
        -24    2    5    5    0    0 -0.52929299302E+02  0.13054608190E+03 -0.60463310570E+03  0.62607524039E+03  0.80902558051E+02 0.  0.
          5    1    3    3  501    0  0.67682913245E+02 -0.34648290699E+02 -0.16193945343E+03  0.17896356437E+03  0.47000000000E+01 0. -1.
        -11    1    4    4    0    0  0.92031572528E+01 -0.64326469798E+01  0.23164792500E+02  0.25742662297E+02  0.00000000000E+00 0.  1.
         12    1    4    4    0    0 -0.15773792888E+02 -0.51709065889E+02 -0.60129551774E+02  0.80859155534E+02  0.00000000000E+00 0. -1.
         -5    1    5    5    0  502 -0.81829783076E+01 -0.37756078335E+02 -0.98092234761E+02  0.10553037054E+03  0.47000000000E+01 0.  1.
         13    1    6    6    0    0  0.15981701563E+02  0.82871598782E+01 -0.12637878165E+03  0.12765456614E+03  0.00000000000E+00 0. -1.
        -14    1    6    6    0    0 -0.68911000865E+02  0.12225892202E+03 -0.47825432404E+03  0.49842067425E+03  0.00000000000E+00 0.  1.
</event>
<event>
12    1  0.8747122E-002  0.2063161E+03  0.7818608E-02  0.1144941E+00
         21   -1    0    0  501  502  0.00000000000E+00  0.00000000000E+00  0.98744866445E+03  0.98744866445E+03  0.00000000000E+00 0.  1.
         21   -1    0    0  502  503 -0.00000000000E+00 -0.00000000000E+00 -0.48330214615E+02  0.48330214615E+02  0.00000000000E+00 0. -1.
         -6    2    1    2    0  503 -0.67921739345E+02  0.89233032077E+02  0.29027862495E+03  0.35492685983E+03  0.17069123889E+03 0.  0.
        -24    2    3    3    0    0 -0.74740325431E+02  0.12463569522E+03  0.21602975918E+03  0.27225385491E+03  0.79580976956E+02 0.  0.
          6    2    1    2  501    0  0.67921739345E+02 -0.89233032077E+02  0.64883982489E+03  0.68085201924E+03  0.17317753045E+03 0.  0.
         24    2    5    5    0    0  0.77455362866E+02  0.39172206928E+01  0.39363011592E+03  0.40896611464E+03  0.79334336264E+02 0.  0.
          5    1    5    5  501    0 -0.95336235208E+01 -0.93150252770E+02  0.25520970897E+03  0.27188590460E+03  0.47000000000E+01 0. -1.
        -13    1    6    6    0    0  0.74683274520E+02 -0.29499402458E+01  0.17603363459E+03  0.19124365126E+03  0.00000000000E+00 0.  1.
         14    1    6    6    0    0  0.27720883460E+01  0.68671609386E+01  0.21759648133E+03  0.21772246338E+03  0.00000000000E+00 0. -1.
         -5    1    3    3    0  503  0.68185860865E+01 -0.35402663144E+02  0.74248865771E+02  0.82673004919E+02  0.47000000000E+01 0.  1.
         13    1    4    4    0    0 -0.55016966980E+02  0.11686886738E+03  0.21526049977E+03  0.25104239001E+03  0.00000000000E+00 0. -1.
        -14    1    4    4    0    0 -0.19723358452E+02  0.77668278392E+01  0.76925940907E+00  0.21211464903E+02  0.00000000000E+00 0.  1.
</event>
<event>
12    1  0.8747122E-002  0.1897606E+03  0.7818608E-02  0.1158877E+00
         21   -1    0    0  503  502  0.00000000000E+00  0.00000000000E+00  0.70086561299E+02  0.70086561299E+02  0.00000000000E+00 0.  1.
         21   -1    0    0  501  503 -0.00000000000E+00 -0.00000000000E+00 -0.13787749588E+04  0.13787749588E+04  0.00000000000E+00 0.  1.
          6    2    1    2  501    0  0.49045849732E+02 -0.64279184363E+02 -0.12294951223E+04  0.12440527818E+04  0.17167340853E+03 0.  0.
         24    2    3    3    0    0 -0.33227808885E+01 -0.53318168723E+02 -0.10970963402E+04  0.11011747049E+04  0.78175975664E+02 0.  0.
         -6    2    1    2    0  502 -0.49045849732E+02  0.64279184363E+02 -0.79193275254E+02  0.20480873836E+03  0.17069779010E+03 0.  0.
        -24    2    5    5    0    0 -0.60904362914E+02  0.39918625223E+02  0.13248936641E+02  0.10836334596E+03  0.79146966859E+02 0.  0.
          5    1    3    3  501    0  0.52368630620E+02 -0.10961015640E+02 -0.13239878210E+03  0.14287807683E+03  0.47000000000E+01 0. -1.
        -13    1    4    4    0    0 -0.20316763457E+02 -0.51702197625E+02 -0.39672135590E+03  0.40059171527E+03  0.00000000000E+00 0.  1.
         14    1    4    4    0    0  0.16993982568E+02 -0.16159710980E+01 -0.70037498429E+03  0.70058298968E+03  0.00000000000E+00 0. -1.
         -5    1    5    5    0  502  0.11858513183E+02  0.24360559140E+02 -0.92442211895E+02  0.96445392407E+02  0.47000000000E+01 0.  1.
         13    1    6    6    0    0 -0.33690211228E+02  0.49524317416E+02 -0.21095258537E+02  0.63503529673E+02  0.00000000000E+00 0. -1.
        -14    1    6    6    0    0 -0.27214151686E+02 -0.96056921934E+01  0.34344195179E+02  0.44859816283E+02  0.00000000000E+00 0.  1.
</event>
<event>
12    1  0.8747122E-002  0.2307227E+03  0.7818608E-02  0.1126429E+00
         21   -1    0    0  503  502  0.00000000000E+00  0.00000000000E+00  0.10939112150E+04  0.10939112150E+04  0.00000000000E+00 0.  1.
         21   -1    0    0  501  503 -0.00000000000E+00 -0.00000000000E+00 -0.10980941105E+03  0.10980941105E+03  0.00000000000E+00 0.  1.
          6    2    1    2  501    0  0.11963610351E+03 -0.88120674960E+02  0.40835270451E+02  0.23264662040E+03  0.17429538161E+03 0.  0.
         24    2    3    3    0    0  0.58118511432E+02 -0.25932358397E+02 -0.44538538363E+02  0.11032500300E+03  0.78343323291E+02 0.  0.
         -6    2    1    2    0  502 -0.11963610351E+03  0.88120674960E+02  0.94326653351E+03  0.97107400566E+03  0.17650756532E+03 0.  0.
        -24    2    5    5    0    0 -0.66417028152E+02  0.10544268251E+02  0.23881803953E+03  0.26035596064E+03  0.78922538039E+02 0.  0.
          5    1    3    3  501    0  0.61517592078E+02 -0.62188316563E+02  0.85373808814E+02  0.12232161740E+03  0.47000000000E+01 0. -1.
        -13    1    4    4    0    0  0.44895770873E+02  0.22858323054E+02 -0.21700379723E+02  0.54854714066E+02  0.00000000000E+00 0.  1.
         14    1    4    4    0    0  0.13222740559E+02 -0.48790681451E+02 -0.22838158639E+02  0.55470288934E+02  0.00000000000E+00 0. -1.
         -5    1    5    5    0  502 -0.53219075357E+02  0.77576406709E+02  0.70444849398E+03  0.71071804502E+03  0.47000000000E+01 0.  1.
         11    1    6    6    0    0 -0.99395957238E+01 -0.19775154110E+02  0.14531146460E+03  0.14698732607E+03  0.00000000000E+00 0. -1.
        -12    1    6    6    0    0 -0.56477432429E+02  0.30319422361E+02  0.93506574939E+02  0.11336863456E+03  0.00000000000E+00 0.  1.
</event>
<event>
12    1  0.8747122E-002  0.2314724E+03  0.7818608E-02  0.1125739E+00
         21   -1    0    0  501  502  0.00000000000E+00  0.00000000000E+00  0.60072246951E+03  0.60072246951E+03  0.00000000000E+00 0. -1.
         21   -1    0    0  502  503 -0.00000000000E+00 -0.00000000000E+00 -0.89719560071E+02  0.89719560071E+02  0.00000000000E+00 0. -1.
         -6    2    1    2    0  503 -0.64463256774E+02 -0.14012905512E+03  0.22296801565E+03  0.32139417172E+03  0.17259146574E+03 0.  0.
        -24    2    3    3    0    0 -0.84289247340E+02 -0.14368723474E+03  0.12951567340E+03  0.22568021862E+03  0.80040944385E+02 0.  0.
          6    2    1    2  501    0  0.64463256774E+02  0.14012905512E+03  0.28803489378E+03  0.36904785786E+03  0.17158251016E+03 0.  0.
         24    2    5    5    0    0  0.10329912521E+03  0.94789665095E+02  0.16030647832E+03  0.22797864406E+03  0.81365258419E+02 0.  0.
          5    1    5    5  501    0 -0.38835868439E+02  0.45339390025E+02  0.12772841546E+03  0.14106921380E+03  0.47000000000E+01 0. -1.
        -11    1    6    6    0    0  0.10366052834E+03  0.64135292510E+02  0.15446661147E+03  0.19677086914E+03  0.00000000000E+00 0.  1.
         12    1    6    6    0    0 -0.36140312899E+00  0.30654372586E+02  0.58398668484E+01  0.31207774923E+02  0.00000000000E+00 0. -1.
         -5    1    3    3    0  503  0.19825990566E+02  0.35581796192E+01  0.93452342254E+02  0.95713953094E+02  0.47000000000E+01 0.  1.
         11    1    4    4    0    0 -0.23078405501E+02 -0.54587405361E+02  0.95427003485E+02  0.11233303441E+03  0.00000000000E+00 0. -1.
        -12    1    4    4    0    0 -0.61210841839E+02 -0.89099829379E+02  0.34088669913E+02  0.11334718422E+03  0.00000000000E+00 0.  1.
</event>
<event>
12    1  0.8747122E-002  0.1834004E+03  0.7818608E-02  0.1166068E+00
         21   -1    0    0  503  502  0.00000000000E+00  0.00000000000E+00  0.21407644406E+02  0.21407644406E+02  0.00000000000E+00 0.  1.
         21   -1    0    0  501  503 -0.00000000000E+00 -0.00000000000E+00 -0.15455485617E+04  0.15455485617E+04  0.00000000000E+00 0.  1.
          6    2    1    2  501    0  0.64062579935E+02 -0.83779913327E+01 -0.85416557902E+03  0.87233209040E+03  0.16489461684E+03 0.  0.
         24    2    3    3    0    0  0.34391902778E+02 -0.54512545623E+02 -0.33920721982E+03  0.35443929464E+03  0.80070312862E+02 0.  0.
         -6    2    1    2    0  502 -0.64062579935E+02  0.83779913327E+01 -0.66997533824E+03  0.69462411568E+03  0.17164353568E+03 0.  0.
        -24    2    5    5    0    0 -0.32580991370E+02 -0.19435025206E+02 -0.63115924951E+03  0.63723567562E+03  0.79171123775E+02 0.  0.
          5    1    3    3  501    0  0.29670677157E+02  0.46134554290E+02 -0.51495835921E+03  0.51789279576E+03  0.47000000000E+01 0. -1.
        -11    1    4    4    0    0  0.10658043099E+02  0.42446072155E+01 -0.21211249632E+03  0.21242250745E+03  0.00000000000E+00 0.  1.
         12    1    4    4    0    0  0.23733859679E+02 -0.58757152838E+02 -0.12709472349E+03  0.14201678719E+03  0.00000000000E+00 0. -1.
         -5    1    5    5    0  502 -0.31481588566E+02  0.27813016539E+02 -0.38816088731E+02  0.57388440056E+02  0.47000000000E+01 0.  1.
         13    1    6    6    0    0 -0.17747810536E+01  0.14713205830E+02 -0.45279960326E+03  0.45304206095E+03  0.00000000000E+00 0. -1.
        -14    1    6    6    0    0 -0.30806210316E+02 -0.34148231037E+02 -0.17835964625E+03  0.18419361467E+03  0.00000000000E+00 0.  1.
</event>
<event>
12    1  0.8747122E-002  0.2344634E+03  0.7818608E-02  0.1123681E+00
         21   -1    0    0  503  502  0.00000000000E+00  0.00000000000E+00  0.13937866577E+03  0.13937866577E+03  0.00000000000E+00 0.  1.
         21   -1    0    0  501  503 -0.00000000000E+00 -0.00000000000E+00 -0.54959011608E+03  0.54959011608E+03  0.00000000000E+00 0.  1.
          6    2    1    2  501    0  0.97581695700E+02 -0.12661693477E+03 -0.38871755748E+03  0.45352219415E+03  0.17037313636E+03 0.  0.
         24    2    3    3    0    0  0.13769864825E+02 -0.36912433682E+02 -0.26598741103E+03  0.27986707803E+03  0.77615343845E+02 0.  0.
         -6    2    1    2    0  502 -0.97581695700E+02  0.12661693477E+03 -0.21493892829E+02  0.23544658770E+03  0.17151989017E+03 0.  0.
        -24    2    5    5    0    0  0.73338908893E+01  0.59309560837E+02 -0.38509468771E+02  0.10955305046E+03  0.83351554978E+02 0.  0.
          5    1    3    3  501    0  0.83811830875E+02 -0.89704501085E+02 -0.12273014645E+03  0.17365511613E+03  0.47000000000E+01 0. -1.
        -11    1    4    4    0    0  0.37582307230E+02 -0.19517810423E+02 -0.22735815028E+03  0.23126846573E+03  0.00000000000E+00 0.  1.
         12    1    4    4    0    0 -0.23812442405E+02 -0.17394623259E+02 -0.38629260746E+02  0.48598612299E+02  0.00000000000E+00 0. -1.
         -5    1    5    5    0  502 -0.10491558659E+03  0.67307373930E+02  0.17015575942E+02  0.12589353724E+03  0.47000000000E+01 0.  1.
         13    1    6    6    0    0  0.43174611995E+02  0.18394594804E+02 -0.94048146744E+01  0.47862916522E+02  0.00000000000E+00 0. -1.
        -14    1    6    6    0    0 -0.35840721106E+02  0.40914966033E+02 -0.29104654097E+02  0.61690133935E+02  0.00000000000E+00 0.  1.
</event>
<event>
12    1  0.8747122E-002  0.2357569E+03  0.7818608E-02  0.1122945E+00
         21   -1    0    0  503  502  0.00000000000E+00  0.00000000000E+00  0.26176731786E+03  0.26176731786E+03  0.00000000000E+00 0. -1.
         21   -1    0    0  501  503 -0.00000000000E+00 -0.00000000000E+00 -0.29836941403E+03  0.29836941403E+03  0.00000000000E+00 0. -1.
          6    2    1    2  501    0 -0.73561165833E+02  0.14257342842E+03 -0.16998608708E+03  0.28926294563E+03  0.17040937270E+03 0.  0.
         24    2    3    3    0    0  0.22885256018E+02  0.82119924493E+02 -0.11125720697E+03  0.16109231801E+03  0.79404986486E+02 0.  0.
         -6    2    1    2    0  502  0.73561165833E+02 -0.14257342842E+03  0.13338399091E+03  0.27087378625E+03  0.17275095206E+03 0.  0.
        -24    2    5    5    0    0  0.36602857157E+02 -0.15797645995E+03  0.14154091975E+03  0.22974234513E+03  0.80320496329E+02 0.  0.
          5    1    3    3  501    0 -0.96446421851E+02  0.60453503925E+02 -0.58728880113E+02  0.12817062762E+03  0.47000000000E+01 0. -1.
        -11    1    4    4    0    0 -0.22209442638E+02  0.22381733371E+01 -0.36374734069E+02  0.42677746435E+02  0.00000000000E+00 0.  1.
         12    1    4    4    0    0  0.45094698656E+02  0.79881751156E+02 -0.74882472898E+02  0.11841457158E+03  0.00000000000E+00 0. -1.
         -5    1    5    5    0  502  0.36958308675E+02  0.15403031534E+02 -0.81569288403E+01  0.41131441121E+02  0.47000000000E+01 0.  1.
         11    1    6    6    0    0  0.42682697308E+02 -0.67512291979E+02  0.10514364444E+03  0.13204131242E+03  0.00000000000E+00 0. -1.
        -12    1    6    6    0    0 -0.60798401507E+01 -0.90464167972E+02  0.36397275306E+02  0.97701032712E+02  0.00000000000E+00 0.  1.
</event>
<event>
12    1  0.8747122E-002  0.2016832E+03  0.7818608E-02  0.1148886E+00
         21   -1    0    0  503  502  0.00000000000E+00  0.00000000000E+00  0.75305546028E+02  0.75305546028E+02  0.00000000000E+00 0. -1.
         21   -1    0    0  501  503 -0.00000000000E+00 -0.00000000000E+00 -0.16996195264E+04  0.16996195264E+04  0.00000000000E+00 0.  1.
          6    2    1    2  501    0 -0.41965120259E+02 -0.94746141653E+02 -0.15490845119E+04  0.15621584277E+04  0.17302666164E+03 0.  0.
         24    2    3    3    0    0 -0.25484755150E+02 -0.91300542027E+02 -0.15343205486E+04  0.15392774487E+04  0.79058562997E+02 0.  0.
         -6    2    1    2    0  502  0.41965120259E+02  0.94746141653E+02 -0.75229468488E+02  0.21276664471E+03  0.16991842012E+03 0.  0.
        -24    2    5    5    0    0  0.45451108387E+02  0.44347237322E+02  0.21347892282E+02  0.10367274807E+03  0.79119058871E+02 0.  0.
          5    1    3    3  501    0 -0.16480365109E+02 -0.34455996259E+01 -0.14763963311E+02  0.22880979078E+02  0.47000000000E+01 0. -1.
        -11    1    4    4    0    0 -0.37480995163E+02 -0.95527202473E+02 -0.11013932702E+04  0.11061633726E+04  0.00000000000E+00 0.  1.
         12    1    4    4    0    0  0.11996240013E+02  0.42266604465E+01 -0.43292727845E+03  0.43311407604E+03  0.00000000000E+00 0. -1.
         -5    1    5    5    0  502 -0.34859881275E+01  0.50398904330E+02 -0.96577360770E+02  0.10909389664E+03  0.47000000000E+01 0.  1.
         11    1    6    6    0    0  0.14228712798E+02  0.46168590161E+02  0.43769723337E+02  0.65190364827E+02  0.00000000000E+00 0. -1.
        -12    1    6    6    0    0  0.31222395589E+02 -0.18213528386E+01 -0.22421831055E+02  0.38482383247E+02  0.00000000000E+00 0.  1.
</event>
<event>
12    1  0.8747122E-002  0.1846469E+03  0.7818608E-02  0.1163649E+00
         21   -1    0    0  501  502  0.00000000000E+00  0.00000000000E+00  0.12417818476E+03  0.12417818476E+03  0.00000000000E+00 0.  1.
         21   -1    0    0  502  503 -0.00000000000E+00 -0.00000000000E+00 -0.32436603976E+03  0.32436603976E+03  0.00000000000E+00 0. -1.
         -6    2    1    2    0  503  0.41305589993E+02 -0.49395155509E+02 -0.18919991499E+03  0.26357070506E+03  0.17183386040E+03 0.  0.
        -24    2    3    3    0    0  0.78531048173E+02 -0.23882004130E+02 -0.18502738276E+03  0.21800585396E+03  0.80956434839E+02 0.  0.
          6    2    1    2  501    0 -0.41305589993E+02  0.49395155509E+02 -0.10987940008E+02  0.18497351946E+03  0.17305616119E+03 0.  0.
         24    2    5    5    0    0 -0.16219364928E+02 -0.23309693822E+02  0.38972729164E+02  0.93139580922E+02  0.79684994140E+02 0.  0.
          5    1    5    5  501    0 -0.25086225066E+02  0.72704849331E+02 -0.49960669172E+02  0.91833938543E+02  0.47000000000E+01 0. -1.
        -11    1    6    6    0    0  0.10445506650E+02  0.14399882305E+02 -0.14162114173E+02  0.22738309027E+02  0.00000000000E+00 0.  1.
         12    1    6    6    0    0 -0.26664871578E+02 -0.37709576127E+02  0.53134843337E+02  0.70401271894E+02  0.00000000000E+00 0. -1.
         -5    1    3    3    0  503 -0.37225458180E+02 -0.25513151379E+02 -0.41725322270E+01  0.45564851094E+02  0.47000000000E+01 0.  1.
         11    1    4    4    0    0  0.18780910704E+01  0.27627326136E+01 -0.10147518576E+03  0.10153015928E+03  0.00000000000E+00 0. -1.
        -12    1    4    4    0    0  0.76652957103E+02 -0.26644736743E+02 -0.83552197001E+02  0.11647569469E+03  0.00000000000E+00 0.  1.
</event>
<event>
12    1  0.8747122E-002  0.1983559E+03  0.7818608E-02  0.1151476E+00
         21   -1    0    0  503  502  0.00000000000E+00  0.00000000000E+00  0.20818812544E+04  0.20818812544E+04  0.00000000000E+00 0. -1.
         21   -1    0    0  501  503 -0.00000000000E+00 -0.00000000000E+00 -0.95214635670E+02  0.95214635670E+02  0.00000000000E+00 0.  1.
          6    2    1    2  501    0  0.97442393376E+02  0.82101293579E+01  0.18608405310E+02  0.19922686733E+03  0.17257649222E+03 0.  0.
         24    2    3    3    0    0  0.79034977865E+02  0.16653785834E+02 -0.52256742234E+02  0.12537507373E+03  0.80400657310E+02 0.  0.
         -6    2    1    2    0  502 -0.97442393376E+02 -0.82101293579E+01  0.19680582134E+04  0.19778690227E+04  0.17073462879E+03 0.  0.
        -24    2    5    5    0    0 -0.12014325846E+03 -0.23378135402E+02  0.18694612460E+04  0.18754539376E+04  0.86378133477E+02 0.  0.
          5    1    3    3  501    0  0.18407415510E+02 -0.84436564766E+01  0.70865147544E+02  0.73851793593E+02  0.47000000000E+01 0. -1.
        -11    1    4    4    0    0  0.59156156184E+02  0.46678067829E+02 -0.22442049072E+02  0.78625303797E+02  0.00000000000E+00 0.  1.
         12    1    4    4    0    0  0.19878821682E+02 -0.30024281995E+02 -0.29814693162E+02  0.46749769936E+02  0.00000000000E+00 0. -1.
         -5    1    5    5    0  502  0.22700865086E+02  0.15168006044E+02  0.98596967373E+02  0.10241508511E+03  0.47000000000E+01 0.  1.
         11    1    6    6    0    0 -0.80981334203E+02  0.21053180474E+02  0.80255328158E+03  0.80690332920E+03  0.00000000000E+00 0. -1.
        -12    1    6    6    0    0 -0.39161924259E+02 -0.44431315876E+02  0.10669079644E+04  0.10685506084E+04  0.00000000000E+00 0.  1.
</event>
<event>
12    1  0.8747122E-002  0.1894970E+03  0.7818608E-02  0.1159336E+00
         21   -1    0    0  501  502  0.00000000000E+00  0.00000000000E+00  0.39913659003E+03  0.39913659003E+03  0.00000000000E+00 0.  1.
         21   -1    0    0  502  503 -0.00000000000E+00 -0.00000000000E+00 -0.18410608959E+03  0.18410608959E+03  0.00000000000E+00 0.  1.
         -6    2    1    2    0  503 -0.70182818013E+02 -0.27496557133E+02 -0.10172627238E+03  0.21507525570E+03  0.17386041102E+03 0.  0.
        -24    2    3    3    0    0 -0.86659245663E+02 -0.73691600457E+02 -0.85118538801E+02  0.16308139538E+03  0.80063094084E+02 0.  0.
          6    2    1    2  501    0  0.70182818013E+02  0.27496557133E+02  0.31675677282E+03  0.36816742392E+03  0.17184501829E+03 0.  0.
         24    2    5    5    0    0  0.77159769978E+02  0.47812483045E+02  0.12019541136E+03  0.17037997861E+03  0.79641299342E+02 0.  0.
          5    1    5    5  501    0 -0.69769519658E+01 -0.20315925913E+02  0.19656136146E+03  0.19778744531E+03  0.47000000000E+01 0. -1.
        -13    1    6    6    0    0  0.41176012776E+02  0.54325538008E+01  0.10474280034E+03  0.11267666525E+03  0.00000000000E+00 0.  1.
         14    1    6    6    0    0  0.35983757202E+02  0.42379929245E+02  0.15452611019E+02  0.57703313358E+02  0.00000000000E+00 0. -1.
         -5    1    3    3    0  503  0.16476427650E+02  0.46195043324E+02 -0.16607733583E+02  0.51993860316E+02  0.47000000000E+01 0.  1.
         13    1    4    4    0    0  0.56632695367E+00 -0.48155823709E+02 -0.27216174628E+02  0.55317485886E+02  0.00000000000E+00 0. -1.
        -14    1    4    4    0    0 -0.87225572616E+02 -0.25535776748E+02 -0.57902364173E+02  0.10776390949E+03  0.00000000000E+00 0.  1.
</event>
<event>
12    1  0.8747122E-002  0.1971626E+03  0.7818608E-02  0.1152434E+00
         21   -1    0    0  501  502  0.00000000000E+00  0.00000000000E+00  0.15075124415E+03  0.15075124415E+03  0.00000000000E+00 0. -1.
         21   -1    0    0  502  503 -0.00000000000E+00 -0.00000000000E+00 -0.25732905985E+03  0.25732905985E+03  0.00000000000E+00 0. -1.
         -6    2    1    2    0  503 -0.32062358607E+02  0.90427025712E+02 -0.66795792576E+02  0.20694426605E+03  0.17076067910E+03 0.  0.
        -24    2    3    3    0    0  0.30079805267E+02  0.87908845135E+02 -0.21219330802E+02  0.12969600632E+03  0.87966097546E+02 0.  0.
          6    2    1    2  501    0  0.32062358607E+02 -0.90427025712E+02 -0.39782023129E+02  0.20113603795E+03  0.17224417139E+03 0.  0.
         24    2    5    5    0    0  0.82892114959E+02 -0.85333946858E+02 -0.39699270788E+02  0.14983593628E+03  0.81986526278E+02 0.  0.
          5    1    5    5  501    0 -0.50829756352E+02 -0.50930788539E+01 -0.82752340852E-01  0.51300101666E+02  0.47000000000E+01 0. -1.
        -11    1    6    6    0    0  0.81674970666E+02 -0.99200640736E+02 -0.27679858952E+02  0.13144482701E+03  0.00000000000E+00 0.  1.
         12    1    6    6    0    0  0.12171442920E+01  0.13866693878E+02 -0.12019411836E+02  0.18391109271E+02  0.00000000000E+00 0. -1.
         -5    1    3    3    0  503 -0.62142163873E+02  0.25181805775E+01 -0.45576461774E+02  0.77248259735E+02  0.47000000000E+01 0.  1.
         13    1    4    4    0    0  0.49589851931E+01  0.65639189990E+02 -0.52202338511E+02  0.84012968897E+02  0.00000000000E+00 0. -1.
        -14    1    4    4    0    0  0.25120820074E+02  0.22269655144E+02  0.30983007709E+02  0.45683037422E+02  0.00000000000E+00 0.  1.
</event>
<event>
12    1  0.8747122E-002  0.2512860E+03  0.7818608E-02  0.1113046E+00
         21   -1    0    0  503  502  0.00000000000E+00  0.00000000000E+00  0.38752537841E+02  0.38752537841E+02  0.00000000000E+00 0.  1.
         21   -1    0    0  501  503 -0.00000000000E+00 -0.00000000000E+00 -0.16388036282E+04  0.16388036282E+04  0.00000000000E+00 0.  1.
          6    2    1    2  501    0 -0.17596084707E+03  0.50441081320E+02 -0.68846639861E+03  0.73289196286E+03  0.17215726772E+03 0.  0.
         24    2    3    3    0    0 -0.13488161290E+03 -0.13722503936E+02 -0.32158871114E+03  0.35815766137E+03  0.80475180357E+02 0.  0.
         -6    2    1    2    0  502  0.17596084707E+03 -0.50441081320E+02 -0.91158469172E+03  0.94466420314E+03  0.16702480098E+03 0.  0.
        -24    2    5    5    0    0  0.11045088664E+03  0.34917967973E+00 -0.75398014595E+03  0.76652805192E+03  0.82943797840E+02 0.  0.
          5    1    3    3  501    0 -0.41079234177E+02  0.64163585256E+02 -0.36687768746E+03  0.37473430149E+03  0.47000000000E+01 0. -1.
        -11    1    4    4    0    0 -0.43776979434E+02  0.20493897036E+02 -0.49487311570E+02  0.69176713932E+02  0.00000000000E+00 0.  1.
         12    1    4    4    0    0 -0.91104633464E+02 -0.34216400972E+02 -0.27210139957E+03  0.28898094744E+03  0.00000000000E+00 0. -1.
         -5    1    5    5    0  502  0.65509960430E+02 -0.50790261000E+02 -0.15760454576E+03  0.17813615122E+03  0.47000000000E+01 0.  1.
         13    1    6    6    0    0  0.77968307895E+02 -0.37856584964E+02 -0.42500982363E+03  0.43375745325E+03  0.00000000000E+00 0. -1.
        -14    1    6    6    0    0  0.32482578749E+02  0.38205764644E+02 -0.32897032232E+03  0.33277059867E+03  0.00000000000E+00 0.  1.
</event>
<event>
12    1  0.8747122E-002  0.2736385E+03  0.7818608E-02  0.1099276E+00
         21   -1    0    0  503  502  0.00000000000E+00  0.00000000000E+00  0.34311371113E+03  0.34311371113E+03  0.00000000000E+00 0.  1.
         21   -1    0    0  501  503 -0.00000000000E+00 -0.00000000000E+00 -0.24792462332E+03  0.24792462332E+03  0.00000000000E+00 0.  1.
          6    2    1    2  501    0 -0.21082957845E+03 -0.21185316520E+02 -0.55306237805E+02  0.27874542457E+03  0.17245956915E+03 0.  0.
         24    2    3    3    0    0 -0.19009575332E+03  0.25463913641E+02 -0.77752524261E+02  0.22278143655E+03  0.82470037685E+02 0.  0.
         -6    2    1    2    0  502  0.21082957845E+03  0.21185316520E+02  0.15049532562E+03  0.31229290988E+03  0.17314759526E+03 0.  0.
        -24    2    5    5    0    0  0.17435595240E+03  0.77513830206E+02  0.11554000040E+03  0.23648267566E+03  0.78524978097E+02 0.  0.
          5    1    3    3  501    0 -0.20733825135E+02 -0.46649230161E+02  0.22446286456E+02  0.55963988019E+02  0.47000000000E+01 0. -1.
        -11    1    4    4    0    0 -0.15909649853E+02 -0.30477135261E+01 -0.38778000364E+02  0.42025454529E+02  0.00000000000E+00 0.  1.
         12    1    4    4    0    0 -0.17418610346E+03  0.28511627167E+02 -0.38974523897E+02  0.18075598202E+03  0.00000000000E+00 0. -1.
         -5    1    5    5    0  502  0.36473626057E+02 -0.56328513686E+02  0.34955325221E+02  0.75810234224E+02  0.47000000000E+01 0.  1.
         11    1    6    6    0    0  0.45249645911E+02  0.52759200197E+02  0.15307509960E+02  0.71171507794E+02  0.00000000000E+00 0. -1.
        -12    1    6    6    0    0  0.12910630648E+03  0.24754630009E+02  0.10023249044E+03  0.16531116786E+03  0.00000000000E+00 0.  1.
</event>
<event>
12    1  0.8747122E-002  0.3387107E+03  0.7818608E-02  0.1067353E+00
         21   -1    0    0  503  502  0.00000000000E+00  0.00000000000E+00  0.43216579915E+03  0.43216579915E+03  0.00000000000E+00 0. -1.
         21   -1    0    0  501  503 -0.00000000000E+00 -0.00000000000E+00 -0.58796502790E+03  0.58796502790E+03  0.00000000000E+00 0.  1.
          6    2    1    2  501    0  0.15706085301E+03  0.24617242278E+03 -0.45569049141E+03  0.56778406310E+03  0.17162734359E+03 0.  0.
         24    2    3    3    0    0  0.83751201827E+02  0.45835456980E+02 -0.14514292493E+03  0.19099355649E+03  0.79353116146E+02 0.  0.
         -6    2    1    2    0  502 -0.15706085301E+03 -0.24617242278E+03  0.29989126265E+03  0.45234676395E+03  0.17150467095E+03 0.  0.
        -24    2    5    5    0    0 -0.17260737386E+03 -0.24452560091E+03  0.30560402318E+03  0.43505133202E+03  0.79308054436E+02 0.  0.
          5    1    3    3  501    0  0.73309651180E+02  0.20033696580E+03 -0.31054756648E+03  0.37679050661E+03  0.47000000000E+01 0. -1.
        -13    1    4    4    0    0  0.10269102745E+01  0.40070048296E+02 -0.35653030586E+02  0.53645148011E+02  0.00000000000E+00 0.  1.
         14    1    4    4    0    0  0.82724291553E+02  0.57654086835E+01 -0.10948989434E+03  0.13734840848E+03  0.00000000000E+00 0. -1.
         -5    1    5    5    0  502  0.15546520851E+02 -0.16468218699E+01 -0.57127605299E+01  0.17295431932E+02  0.47000000000E+01 0.  1.
         11    1    6    6    0    0 -0.11816631518E+03 -0.11296561145E+03  0.19690446443E+03  0.25592161989E+03  0.00000000000E+00 0. -1.
        -12    1    6    6    0    0 -0.54441058678E+02 -0.13155998946E+03  0.10869955876E+03  0.17912971214E+03  0.00000000000E+00 0.  1.
</event>
<event>
12    1  0.8747122E-002  0.2634440E+03  0.7818608E-02  0.1105118E+00
         21   -1    0    0  501  502  0.00000000000E+00  0.00000000000E+00  0.34123101476E+03  0.34123101476E+03  0.00000000000E+00 0. -1.
         21   -1    0    0  502  503 -0.00000000000E+00 -0.00000000000E+00 -0.61520617072E+03  0.61520617072E+03  0.00000000000E+00 0. -1.
         -6    2    1    2    0  503 -0.10115231372E+03 -0.17135084611E+03 -0.52830068865E+03  0.59026206066E+03  0.17237975402E+03 0.  0.
        -24    2    3    3    0    0 -0.88523795993E+02 -0.15528935133E+03 -0.28223197812E+03  0.34330183841E+03  0.79057053358E+02 0.  0.
          6    2    1    2  501    0  0.10115231372E+03  0.17135084611E+03  0.25432553269E+03  0.36617512483E+03  0.17265527051E+03 0.  0.
         24    2    5    5    0    0  0.64479155466E+02  0.11773271130E+03  0.70544371353E+02  0.17119453560E+03  0.79451292549E+02 0.  0.
          5    1    5    5  501    0  0.36673158253E+02  0.53618134807E+02  0.18378116133E+03  0.19498058923E+03  0.47000000000E+01 0. -1.
        -13    1    6    6    0    0 -0.97831102251E+01  0.26720679458E+02  0.41282787271E+02  0.50139530126E+02  0.00000000000E+00 0.  1.
         14    1    6    6    0    0  0.74262265691E+02  0.91012031847E+02  0.29261584081E+02  0.12105500547E+03  0.00000000000E+00 0. -1.
         -5    1    3    3    0  503 -0.12628517727E+02 -0.16061494778E+02 -0.24606871052E+03  0.24696022225E+03  0.47000000000E+01 0.  1.
         11    1    4    4    0    0 -0.30187371494E+02 -0.20195513556E+02 -0.11473950112E+03  0.12035069291E+03  0.00000000000E+00 0. -1.
        -12    1    4    4    0    0 -0.58336424499E+02 -0.13509383778E+03 -0.16749247700E+03  0.22295114550E+03  0.00000000000E+00 0.  1.
</event>
<event>
12    1  0.8747122E-002  0.1761832E+03  0.7818608E-02  0.1171779E+00
         21   -1    0    0  501  502  0.00000000000E+00  0.00000000000E+00  0.34335455785E+02  0.34335455785E+02  0.00000000000E+00 0.  1.
         21   -1    0    0  502  503 -0.00000000000E+00 -0.00000000000E+00 -0.11396990639E+04  0.11396990639E+04  0.00000000000E+00 0.  1.
         -6    2    1    2    0  503 -0.96048862321E+01  0.34557821768E+02 -0.82112982183E+03  0.83962554173E+03  0.17155281735E+03 0.  0.
        -24    2    3    3    0    0  0.59946460323E+02  0.19277438234E+02 -0.54396324450E+03  0.55341883056E+03  0.80069925214E+02 0.  0.
          6    2    1    2  501    0  0.96048862321E+01 -0.34557821768E+02 -0.28423378630E+03  0.33440897797E+03  0.17249354303E+03 0.  0.
         24    2    5    5    0    0 -0.36731725847E+02  0.13472598011E+02 -0.81361296653E+02  0.12078936300E+03  0.80247610811E+02 0.  0.
          5    1    5    5  501    0  0.46336612079E+02 -0.48030419779E+02 -0.20287248965E+03  0.21361961497E+03  0.47000000000E+01 0. -1.
        -11    1    6    6    0    0 -0.48788471616E+02 -0.20447225030E+02 -0.53802961001E+02  0.75453048888E+02  0.00000000000E+00 0.  1.
         12    1    6    6    0    0  0.12056745769E+02  0.33919823040E+02 -0.27558335652E+02  0.45336314115E+02  0.00000000000E+00 0. -1.
         -5    1    3    3    0  503 -0.69551346555E+02  0.15280383535E+02 -0.27716657732E+03  0.28620671116E+03  0.47000000000E+01 0.  1.
         13    1    4    4    0    0 -0.11721605218E+02  0.77935204692E+01 -0.20026519130E+02  0.24478489713E+02  0.00000000000E+00 0. -1.
        -14    1    4    4    0    0  0.71668065541E+02  0.11483917764E+02 -0.52393672537E+03  0.52894034085E+03  0.00000000000E+00 0.  1.
</event>
<event>
12    1  0.8747122E-002  0.2400442E+03  0.7818608E-02  0.1119823E+00
         21   -1    0    0  503  502  0.00000000000E+00  0.00000000000E+00  0.28999008529E+03  0.28999008529E+03  0.00000000000E+00 0. -1.
         21   -1    0    0  501  503 -0.00000000000E+00 -0.00000000000E+00 -0.21641903772E+03  0.21641903772E+03  0.00000000000E+00 0.  1.
          6    2    1    2  501    0 -0.13685604363E+03 -0.97319897954E+02 -0.36287694524E+02  0.24242014350E+03  0.17102628449E+03 0.  0.
         24    2    3    3    0    0 -0.14098549978E+03 -0.21327494702E+02 -0.20257460127E+02  0.16450380263E+03  0.79494422516E+02 0.  0.
         -6    2    1    2    0  502  0.13685604363E+03  0.97319897954E+02  0.10985874209E+03  0.26398897950E+03  0.17152404750E+03 0.  0.
        -24    2    5    5    0    0  0.44318152925E+02  0.57304525786E+02  0.12188938576E+03  0.16234589016E+03  0.79064899512E+02 0.  0.
          5    1    3    3  501    0  0.41294561501E+01 -0.75992403252E+02 -0.16030234397E+02  0.77916340872E+02  0.47000000000E+01 0. -1.
        -11    1    4    4    0    0 -0.10057365695E+03 -0.47115359448E+02  0.32528601911E+01  0.11111029956E+03  0.00000000000E+00 0.  1.
         12    1    4    4    0    0 -0.40411842821E+02  0.25787864746E+02 -0.23510320318E+02  0.53393503067E+02  0.00000000000E+00 0. -1.
         -5    1    5    5    0  502  0.92537890700E+02  0.40015372168E+02 -0.12030643668E+02  0.10164308935E+03  0.47000000000E+01 0.  1.
         11    1    6    6    0    0  0.19961690195E+02  0.59860811351E+02  0.35182527904E+02  0.72246772113E+02  0.00000000000E+00 0. -1.
        -12    1    6    6    0    0  0.24356462731E+02 -0.25562855647E+01  0.86706857857E+02  0.90099118043E+02  0.00000000000E+00 0.  1.
</event>
<event>
12    1  0.8747122E-002  0.2345766E+03  0.7818608E-02  0.1123547E+00
         21   -1    0    0  501  502  0.00000000000E+00  0.00000000000E+00  0.12994157420E+04  0.12994157420E+04  0.00000000000E+00 0. -1.
         21   -1    0    0  502  503 -0.00000000000E+00 -0.00000000000E+00 -0.42539490033E+02  0.42539490033E+02  0.00000000000E+00 0.  1.
         -6    2    1    2    0  503  0.56136423258E+02  0.14736422648E+03  0.57427351635E+03  0.62033560261E+03  0.17366253200E+03 0.  0.
        -24    2    3    3    0    0  0.68055368166E+02  0.14243492060E+03  0.32255311555E+03  0.36824115704E+03  0.81497224794E+02 0.  0.
          6    2    1    2  501    0 -0.56136423258E+02 -0.14736422648E+03  0.68260273561E+03  0.72161962942E+03  0.17297653491E+03 0.  0.
         24    2    5    5    0    0 -0.75322681175E+02 -0.12690168588E+03  0.35832105681E+03  0.39609309399E+03  0.81964719080E+02 0.  0.
          5    1    5    5  501    0  0.19186257917E+02 -0.20462540607E+02  0.32428167881E+03  0.32552653543E+03  0.47000000000E+01 0. -1.
        -13    1    6    6    0    0  0.34070853512E+01 -0.51493132164E+02  0.63896758211E+02  0.82133711717E+02  0.00000000000E+00 0.  1.
         14    1    6    6    0    0 -0.78729766526E+02 -0.75408553714E+02  0.29442429860E+03  0.31395938227E+03  0.00000000000E+00 0. -1.
         -5    1    3    3    0  503 -0.11918944908E+02  0.49293058802E+01  0.25172040081E+03  0.25209444557E+03  0.47000000000E+01 0.  1.
         13    1    4    4    0    0  0.49449279864E+02  0.14121027147E+03  0.31379794829E+03  0.34764166091E+03  0.00000000000E+00 0. -1.
        -14    1    4    4    0    0  0.18606088302E+02  0.12246491321E+01  0.87551672571E+01  0.20599496137E+02  0.00000000000E+00 0.  1.
</event>
<event>
12    1  0.8747122E-002  0.2201185E+03  0.7818608E-02  0.1134084E+00
         21   -1    0    0  501  502  0.00000000000E+00  0.00000000000E+00  0.43399416830E+03  0.43399416830E+03  0.00000000000E+00 0. -1.
         21   -1    0    0  502  503 -0.00000000000E+00 -0.00000000000E+00 -0.14463101670E+03  0.14463101670E+03  0.00000000000E+00 0. -1.
         -6    2    1    2    0  503 -0.73928271935E+02  0.11448588303E+03  0.44863687888E+01  0.21861555058E+03  0.17088073222E+03 0.  0.
        -24    2    3    3    0    0  0.17338721524E+02  0.34528240208E+02 -0.29903258902E+02  0.92410854807E+02  0.78439343171E+02 0.  0.
          6    2    1    2  501    0  0.73928271935E+02 -0.11448588303E+03  0.28487678281E+03  0.36000963442E+03  0.17285759655E+03 0.  0.
         24    2    5    5    0    0  0.68699395657E+02 -0.22355196396E+01  0.16413819815E+03  0.19500241925E+03  0.79749551176E+02 0.  0.
          5    1    5    5  501    0  0.52288762779E+01 -0.11225036339E+03  0.12073858467E+03  0.16500721517E+03  0.47000000000E+01 0. -1.
        -11    1    6    6    0    0  0.43495387449E+02  0.15482159001E+02  0.25017262152E+02  0.52511040575E+02  0.00000000000E+00 0.  1.
         12    1    6    6    0    0  0.25204008209E+02 -0.17717678641E+02  0.13912093599E+03  0.14249137868E+03  0.00000000000E+00 0. -1.
         -5    1    3    3    0  503 -0.91266993460E+02  0.79957642826E+02  0.34389627691E+02  0.12620469577E+03  0.47000000000E+01 0.  1.
         13    1    4    4    0    0  0.34921840858E+02  0.27561963407E+02  0.12305416252E+02  0.46158640198E+02  0.00000000000E+00 0. -1.
        -14    1    4    4    0    0 -0.17583119333E+02  0.69662768006E+01 -0.42208675154E+02  0.46252214609E+02  0.00000000000E+00 0.  1.
</event>
<event>
12    1  0.8747122E-002  0.2262096E+03  0.7818608E-02  0.1129997E+00
         21   -1    0    0  501  502  0.00000000000E+00  0.00000000000E+00  0.57527949894E+03  0.57527949894E+03  0.00000000000E+00 0.  1.
         21   -1    0    0  502  503 -0.00000000000E+00 -0.00000000000E+00 -0.90938526034E+02  0.90938526034E+02  0.00000000000E+00 0. -1.
         -6    2    1    2    0  503  0.18474305827E+02  0.14173618586E+03  0.17571199168E+03  0.28356592420E+03  0.17060036047E+03 0.  0.
        -24    2    3    3    0    0  0.55762653326E+02  0.24676305915E+02  0.81808809172E+02  0.12886190345E+03  0.78703972731E+02 0.  0.
          6    2    1    2  501    0 -0.18474305827E+02 -0.14173618586E+03  0.30862898123E+03  0.38265210078E+03  0.17532922123E+03 0.  0.
         24    2    5    5    0    0 -0.48790966239E+02 -0.11026465895E+03  0.30630708439E+03  0.33864030566E+03  0.79463030852E+02 0.  0.
          5    1    5    5  501    0  0.30316660412E+02 -0.31471526908E+02  0.23218968455E+01  0.44011795117E+02  0.47000000000E+01 0. -1.
        -13    1    6    6    0    0 -0.44430543646E+02 -0.40839619397E+02  0.21815140673E+03  0.22634483423E+03  0.00000000000E+00 0.  1.
         14    1    6    6    0    0 -0.43604225926E+01 -0.69425039551E+02  0.88155677652E+02  0.11229547143E+03  0.00000000000E+00 0. -1.
         -5    1    3    3    0  503 -0.37288347499E+02  0.11705987994E+03  0.93903182504E+02  0.15470402075E+03  0.47000000000E+01 0.  1.
         13    1    4    4    0    0  0.54547410788E+01  0.12049035951E+02 -0.14405983079E+02  0.19556733266E+02  0.00000000000E+00 0. -1.
        -14    1    4    4    0    0  0.50307912247E+02  0.12627269964E+02  0.96214792251E+02  0.10930517019E+03  0.00000000000E+00 0.  1.
</event>
<event>
12    1  0.8747122E-002  0.1806418E+03  0.7818608E-02  0.1167440E+00
         21   -1    0    0  503  502  0.00000000000E+00  0.00000000000E+00  0.14689132817E+04  0.14689132817E+04  0.00000000000E+00 0.  1.
         21   -1    0    0  501  503 -0.00000000000E+00 -0.00000000000E+00 -0.22093730201E+02  0.22093730201E+02  0.00000000000E+00 0.  1.
          6    2    1    2  501    0 -0.52990665878E+02  0.15685711778E+02  0.71004138741E+03  0.73265970283E+03  0.17198085968E+03 0.  0.
         24    2    3    3    0    0 -0.55542581154E+02  0.70008301938E+02  0.40277948326E+03  0.42058691674E+03  0.81706191585E+02 0.  0.
         -6    2    1    2    0  502  0.52990665878E+02 -0.15685711778E+02  0.73677816411E+03  0.75834730909E+03  0.17086405669E+03 0.  0.
        -24    2    5    5    0    0  0.45015688203E+00 -0.65317434090E+02  0.36206707135E+03  0.37670047499E+03  0.80895697409E+02 0.  0.
          5    1    3    3  501    0  0.25519152766E+01 -0.54322590160E+02  0.30726190415E+03  0.31207278609E+03  0.47000000000E+01 0. -1.
        -13    1    4    4    0    0 -0.36032512871E+02  0.37932118974E+02  0.35952397199E+03  0.36331071285E+03  0.00000000000E+00 0.  1.
         14    1    4    4    0    0 -0.19510068284E+02  0.32076182964E+02  0.43255511262E+02  0.57276203894E+02  0.00000000000E+00 0. -1.
         -5    1    5    5    0  502  0.52540508996E+02  0.49631722312E+02  0.37471109276E+03  0.38164683410E+03  0.47000000000E+01 0.  1.
         13    1    6    6    0    0 -0.22380267214E+01 -0.20023573824E+02  0.29523221141E+03  0.29591892627E+03  0.00000000000E+00 0. -1.
        -14    1    6    6    0    0  0.26881836034E+01 -0.45293860267E+02  0.66834859942E+02  0.80781548713E+02  0.00000000000E+00 0.  1.
</event>
<event>
12    1  0.8747122E-002  0.2093237E+03  0.7818608E-02  0.1142377E+00
         21   -1    0    0  501  502  0.00000000000E+00  0.00000000000E+00  0.15993828493E+03  0.15993828493E+03  0.00000000000E+00 0.  1.
         21   -1    0    0  502  503 -0.00000000000E+00 -0.00000000000E+00 -0.49709117776E+03  0.49709117776E+03  0.00000000000E+00 0.  1.
         -6    2    1    2    0  503  0.22542555431E+02  0.11699800466E+03 -0.38925618964E+03  0.44131864494E+03  0.17042612857E+03 0.  0.
        -24    2    3    3    0    0  0.13071773230E+01  0.10393603615E+02 -0.85467193737E+02  0.11863414944E+03  0.81606890021E+02 0.  0.
          6    2    1    2  501    0 -0.22542555431E+02 -0.11699800466E+03  0.52103296811E+02  0.21571081774E+03  0.17210375782E+03 0.  0.
         24    2    5    5    0    0  0.37737638760E+02 -0.11733185408E+02  0.18349872306E+02  0.89711739776E+02  0.78419904495E+02 0.  0.
          5    1    5    5  501    0 -0.60280194191E+02 -0.10526481925E+03  0.33753424504E+02  0.12599907797E+03  0.47000000000E+01 0. -1.
        -13    1    6    6    0    0  0.18318125257E+02  0.29664573153E+02  0.25813155363E+02  0.43380405751E+02  0.00000000000E+00 0.  1.
         14    1    6    6    0    0  0.19419513503E+02 -0.41397758561E+02 -0.74632830568E+01  0.46331334025E+02  0.00000000000E+00 0. -1.
         -5    1    3    3    0  503  0.21235378108E+02  0.10660440104E+03 -0.30378899591E+03  0.32268449550E+03  0.47000000000E+01 0.  1.
         13    1    4    4    0    0  0.83382707772E+01  0.24569543916E+02  0.53137360473E+01  0.26484430116E+02  0.00000000000E+00 0. -1.
        -14    1    4    4    0    0 -0.70310934542E+01 -0.14175940301E+02 -0.90780929784E+02  0.92149719322E+02  0.00000000000E+00 0.  1.
</event>
<event>
12    1  0.8747122E-002  0.2040074E+03  0.7818608E-02  0.1146471E+00
         21   -1    0    0  503  502  0.00000000000E+00  0.00000000000E+00  0.46600854129E+03  0.46600854129E+03  0.00000000000E+00 0. -1.
         21   -1    0    0  501  503 -0.00000000000E+00 -0.00000000000E+00 -0.98380900518E+02  0.98380900518E+02  0.00000000000E+00 0.  1.
          6    2    1    2  501    0  0.51595057073E+02  0.96055548518E+02  0.97568908994E+02  0.22613871890E+03  0.17242479481E+03 0.  0.
         24    2    3    3    0    0  0.70065197897E+02  0.86669214255E+02  0.13589707162E+02  0.13951397813E+03  0.82817783697E+02 0.  0.
         -6    2    1    2    0  502 -0.51595057073E+02 -0.96055548518E+02  0.27005873177E+03  0.33825072291E+03  0.17202649396E+03 0.  0.
        -24    2    5    5    0    0 -0.52269503405E+02  0.10340017372E+02  0.14778275683E+03  0.17609655131E+03  0.79569059438E+02 0.  0.
          5    1    3    3  501    0 -0.18470140824E+02  0.93863342631E+01  0.83979201832E+02  0.86624740769E+02  0.47000000000E+01 0. -1.
        -13    1    4    4    0    0 -0.16860074363E+02  0.27471521327E+02 -0.52917267357E+01  0.32664184719E+02  0.00000000000E+00 0.  1.
         14    1    4    4    0    0  0.86925272260E+02  0.59197692928E+02  0.18881433897E+02  0.10684979341E+03  0.00000000000E+00 0. -1.
         -5    1    5    5    0  502  0.67444633128E+00 -0.10639556589E+03  0.12227597494E+03  0.16215417160E+03  0.47000000000E+01 0.  1.
         11    1    6    6    0    0 -0.17247718664E+01 -0.96876001230E+01  0.10868631192E+03  0.10913083356E+03  0.00000000000E+00 0. -1.
        -12    1    6    6    0    0 -0.50544731538E+02  0.20027617495E+02  0.39096444909E+02  0.66965717747E+02  0.00000000000E+00 0.  1.
</event>
<event>
12    1  0.8747122E-002  0.1761572E+03  0.7818608E-02  0.1171670E+00
         21   -1    0    0  503  502  0.00000000000E+00  0.00000000000E+00  0.11435388386E+03  0.11435388386E+03  0.00000000000E+00 0.  1.
         21   -1    0    0  501  503 -0.00000000000E+00 -0.00000000000E+00 -0.74958451716E+03  0.74958451716E+03  0.00000000000E+00 0.  1.
          6    2    1    2  501    0 -0.27581321353E+02  0.24091491371E+02 -0.66298371864E+03  0.68598743760E+03  0.17230851437E+03 0.  0.
         24    2    3    3    0    0  0.49434349013E+02 -0.99156221637E+01 -0.39144167191E+03  0.40165476204E+03  0.74551263793E+02 0.  0.
         -6    2    1    2    0  502  0.27581321353E+02 -0.24091491371E+02  0.27753085341E+02  0.17795096342E+03  0.17191620747E+03 0.  0.
        -24    2    5    5    0    0  0.71630533203E+02 -0.50869217182E+02  0.30808881328E+02  0.12609725040E+03  0.85045392863E+02 0.  0.
          5    1    3    3  501    0 -0.77015670366E+02  0.34007113535E+02 -0.27154204673E+03  0.28433267556E+03  0.47000000000E+01 0. -1.
        -11    1    4    4    0    0 -0.15119820940E+01  0.26217131914E+02 -0.87218072479E+02  0.91085763227E+02  0.00000000000E+00 0.  1.
         12    1    4    4    0    0  0.50946331107E+02 -0.36132754078E+02 -0.30422359943E+03  0.31056899881E+03  0.00000000000E+00 0. -1.
         -5    1    5    5    0  502 -0.44049211850E+02  0.26777725811E+02 -0.30557959873E+01  0.51853713014E+02  0.47000000000E+01 0.  1.
         11    1    6    6    0    0  0.18355504053E+02 -0.40983099744E+02 -0.22376321028E+02  0.50172091210E+02  0.00000000000E+00 0. -1.
        -12    1    6    6    0    0  0.53275029150E+02 -0.98861174385E+01  0.53185202356E+02  0.75925159194E+02  0.00000000000E+00 0.  1.
</event>
<event>
12    1  0.8747122E-002  0.1797064E+03  0.7818608E-02  0.1168409E+00
         21   -1    0    0  503  502  0.00000000000E+00  0.00000000000E+00  0.30768524351E+03  0.30768524351E+03  0.00000000000E+00 0.  1.
         21   -1    0    0  501  503 -0.00000000000E+00 -0.00000000000E+00 -0.20846501393E+03  0.20846501393E+03  0.00000000000E+00 0.  1.
          6    2    1    2  501    0 -0.39060410938E+02 -0.30400514744E+02 -0.13300426659E+03  0.22251340037E+03  0.17138311297E+03 0.  0.
         24    2    3    3    0    0 -0.33506582028E+02 -0.79315435609E+02 -0.53206106576E+02  0.12863395192E+03  0.79386235861E+02 0.  0.
         -6    2    1    2    0  502  0.39060410938E+02  0.30400514744E+02  0.23222449618E+03  0.29363685707E+03  0.17275555044E+03 0.  0.
        -24    2    5    5    0    0  0.54405246512E+02 -0.92880676257E+01  0.23127069225E+03  0.25081574906E+03  0.79851160530E+02 0.  0.
          5    1    3    3  501    0 -0.55538289107E+01  0.48914920865E+02 -0.79798160016E+02  0.93879448448E+02  0.47000000000E+01 0. -1.
        -13    1    4    4    0    0 -0.12492046883E+02 -0.32389583458E+02 -0.66947575091E+02  0.75412957524E+02  0.00000000000E+00 0.  1.
         14    1    4    4    0    0 -0.21014535145E+02 -0.46925852151E+02  0.13741468515E+02  0.53220994395E+02  0.00000000000E+00 0. -1.
         -5    1    5    5    0  502 -0.15344835574E+02  0.39688582370E+02  0.95380393052E+00  0.42821108010E+02  0.47000000000E+01 0.  1.
         13    1    6    6    0    0  0.53053383287E+02 -0.16288328718E+02  0.69736776646E+02  0.89124570954E+02  0.00000000000E+00 0. -1.
        -14    1    6    6    0    0  0.13518632249E+01  0.70002610922E+01  0.16153391560E+03  0.16169117811E+03  0.00000000000E+00 0.  1.
</event>
<event>
12    1  0.8747122E-002  0.2328254E+03  0.7818608E-02  0.1125203E+00
         21   -1    0    0  503  502  0.00000000000E+00  0.00000000000E+00  0.32542817114E+03  0.32542817114E+03  0.00000000000E+00 0. -1.
         21   -1    0    0  501  503 -0.00000000000E+00 -0.00000000000E+00 -0.19326566128E+03  0.19326566128E+03  0.00000000000E+00 0. -1.
          6    2    1    2  501    0 -0.69138292977E+02 -0.14028682060E+03 -0.33803557793E+02  0.23526654235E+03  0.17247367868E+03 0.  0.
         24    2    3    3    0    0  0.32421525526E+02 -0.34796796982E+02 -0.28318965932E+02  0.88655790470E+02  0.69252530313E+02 0.  0.
         -6    2    1    2    0  502  0.69138292977E+02  0.14028682060E+03  0.16596606765E+03  0.28342729007E+03  0.16830269622E+03 0.  0.
        -24    2    5    5    0    0  0.60733507206E+02  0.31164012782E+02  0.27429721341E+02  0.10681235056E+03  0.77438582300E+02 0.  0.
          5    1    3    3  501    0 -0.10155981850E+03 -0.10549002362E+03 -0.54845918610E+01  0.14661075188E+03  0.47000000000E+01 0. -1.
        -11    1    4    4    0    0  0.22912262871E+02 -0.24466418960E+02  0.19526580349E+02  0.38792586749E+02  0.00000000000E+00 0.  1.
         12    1    4    4    0    0  0.95092626554E+01 -0.10330378023E+02 -0.47845546281E+02  0.49863203721E+02  0.00000000000E+00 0. -1.
         -5    1    5    5    0  502  0.84047857716E+01  0.10912280782E+03  0.13853634631E+03  0.17661493951E+03  0.47000000000E+01 0.  1.
         13    1    6    6    0    0 -0.11826550618E+02  0.24830024699E+02  0.19137531555E+02  0.33505858296E+02  0.00000000000E+00 0. -1.
        -14    1    6    6    0    0  0.72560057823E+02  0.63339880832E+01  0.82921897852E+01  0.73306492262E+02  0.00000000000E+00 0.  1.
</event>
<event>
12    1  0.8747122E-002  0.1762808E+03  0.7818608E-02  0.1171913E+00
         21   -1    0    0  503  502  0.00000000000E+00  0.00000000000E+00  0.31839118421E+03  0.31839118421E+03  0.00000000000E+00 0. -1.
         21   -1    0    0  501  503 -0.00000000000E+00 -0.00000000000E+00 -0.38798894936E+03  0.38798894936E+03  0.00000000000E+00 0. -1.
          6    2    1    2  501    0  0.31465906213E+02 -0.18765796437E+02 -0.34093285918E+03  0.38381002519E+03  0.17243161718E+03 0.  0.
         24    2    3    3    0    0 -0.34350820921E+02 -0.10308406525E+02 -0.27971021101E+03  0.29340166461E+03  0.80996867283E+02 0.  0.
         -6    2    1    2    0  502 -0.31465906213E+02  0.18765796437E+02  0.27133509402E+03  0.32257010837E+03  0.17054759804E+03 0.  0.
        -24    2    5    5    0    0 -0.48093145469E+02  0.43294116345E+02  0.79680402143E+02  0.12858115384E+03  0.77439108241E+02 0.  0.
          5    1    3    3  501    0  0.65816727134E+02 -0.84573899114E+01 -0.61222648161E+02  0.90408360579E+02  0.47000000000E+01 0. -1.
        -13    1    4    4    0    0 -0.84403759888E+01  0.32879742402E+02 -0.70956672435E+02  0.78658545437E+02  0.00000000000E+00 0.  1.
         14    1    4    4    0    0 -0.25910444932E+02 -0.43188148928E+02 -0.20875353858E+03  0.21474311918E+03  0.00000000000E+00 0. -1.
         -5    1    5    5    0  502  0.16627239256E+02 -0.24528319908E+02  0.19165469188E+03  0.19398895454E+03  0.47000000000E+01 0.  1.
         11    1    6    6    0    0 -0.41593365869E+02 -0.41108489228E+01  0.67190417245E+02  0.79129383498E+02  0.00000000000E+00 0. -1.
        -12    1    6    6    0    0 -0.64997795997E+01  0.47404965268E+02  0.12489984898E+02  0.49451770339E+02  0.00000000000E+00 0.  1.
</event>
<event>
12    1  0.8747122E-002  0.4112442E+03  0.7818608E-02  0.1040210E+00
         21   -1    0    0  503  502  0.00000000000E+00  0.00000000000E+00  0.71616447614E+03  0.71616447614E+03  0.00000000000E+00 0. -1.
         21   -1    0    0  501  503 -0.00000000000E+00 -0.00000000000E+00 -0.25217665417E+03  0.25217665417E+03  0.00000000000E+00 0.  1.
          6    2    1    2  501    0 -0.27621160613E+03 -0.24595070304E+03  0.36133971078E+03  0.54743785787E+03  0.17982553201E+03 0.  0.
         24    2    3    3    0    0 -0.46306700291E+02 -0.76938149330E+02  0.15358585079E+03  0.19444314774E+03  0.78458491109E+02 0.  0.
         -6    2    1    2    0  502  0.27621160613E+03  0.24595070304E+03  0.10264811120E+03  0.42090327244E+03  0.17273775016E+03 0.  0.
        -24    2    5    5    0    0  0.16326169134E+03  0.59091326400E+02  0.57589213836E+02  0.19790886865E+03  0.75533026062E+02 0.  0.
          5    1    3    3  501    0 -0.22990490584E+03 -0.16901255371E+03  0.20775385999E+03  0.35299471013E+03  0.47000000000E+01 0. -1.
        -11    1    4    4    0    0  0.12052646242E+02 -0.30260363616E+02  0.12692645320E+02  0.34957962366E+02  0.00000000000E+00 0.  1.
         12    1    4    4    0    0 -0.58359346533E+02 -0.46677785714E+02  0.14089320547E+03  0.15948518538E+03  0.00000000000E+00 0. -1.
         -5    1    5    5    0  502  0.11294991480E+03  0.18685937664E+03  0.45058897360E+02  0.22299440379E+03  0.47000000000E+01 0.  1.
         11    1    6    6    0    0 -0.45874562504E+01 -0.69930948672E+01  0.59803861024E+01  0.10281689968E+02  0.00000000000E+00 0. -1.
        -12    1    6    6    0    0  0.16784914759E+03  0.66084421267E+02  0.51608827734E+02  0.18762717868E+03  0.00000000000E+00 0.  1.
</event>
<event>
12    1  0.8747122E-002  0.1968992E+03  0.7818608E-02  0.1152443E+00
         21   -1    0    0  501  502  0.00000000000E+00  0.00000000000E+00  0.10763692202E+04  0.10763692202E+04  0.00000000000E+00 0.  1.
         21   -1    0    0  502  503 -0.00000000000E+00 -0.00000000000E+00 -0.35980464676E+02  0.35980464676E+02  0.00000000000E+00 0.  1.
         -6    2    1    2    0  503 -0.14617616578E+02 -0.94684561439E+02  0.53155702592E+03  0.56685285246E+03  0.17201873049E+03 0.  0.
        -24    2    3    3    0    0  0.41959590467E+01 -0.13222117135E+03  0.41972555969E+03  0.44730656623E+03  0.80084795717E+02 0.  0.
          6    2    1    2  501    0  0.14617616578E+02  0.94684561439E+02  0.50883172958E+03  0.54549683240E+03  0.17169223699E+03 0.  0.
         24    2    5    5    0    0  0.70147476085E+02  0.84437436070E+02  0.39415866084E+03  0.41758838245E+03  0.83478489622E+02 0.  0.
          5    1    5    5  501    0 -0.55529859506E+02  0.10247125369E+02  0.11467306874E+03  0.12790844995E+03  0.47000000000E+01 0. -1.
        -13    1    6    6    0    0  0.90085118636E+01  0.71387386991E+02  0.16399658068E+03  0.17908710389E+03  0.00000000000E+00 0.  1.
         14    1    6    6    0    0  0.61138964221E+02  0.13050049079E+02  0.23016208017E+03  0.23850127856E+03  0.00000000000E+00 0. -1.
         -5    1    3    3    0  503 -0.18813575625E+02  0.37536609912E+02  0.11183146623E+03  0.11954628623E+03  0.47000000000E+01 0.  1.
         13    1    4    4    0    0 -0.30598482420E+02 -0.24620661259E+02  0.14479220220E+03  0.15002408442E+03  0.00000000000E+00 0. -1.
        -14    1    4    4    0    0  0.34794441467E+02 -0.10760051009E+03  0.27493335749E+03  0.29728248181E+03  0.00000000000E+00 0.  1.
</event>
<event>
12    1  0.8747122E-002  0.2572814E+03  0.7818608E-02  0.1108812E+00
         21   -1    0    0  503  502  0.00000000000E+00  0.00000000000E+00  0.24703321191E+03  0.24703321191E+03  0.00000000000E+00 0.  1.
         21   -1    0    0  501  503 -0.00000000000E+00 -0.00000000000E+00 -0.42233553994E+03  0.42233553994E+03  0.00000000000E+00 0. -1.
          6    2    1    2  501    0 -0.13962410271E+03 -0.12877356209E+03 -0.29009121429E+03  0.38764159202E+03  0.17330773469E+03 0.  0.
         24    2    3    3    0    0 -0.75056291445E+02 -0.67758313357E+02 -0.26460802017E+03  0.29510324315E+03  0.82727769593E+02 0.  0.
         -6    2    1    2    0  502  0.13962410271E+03  0.12877356209E+03  0.11478888627E+03  0.28172715983E+03  0.17354015047E+03 0.  0.
        -24    2    5    5    0    0  0.19838238934E+02  0.73442782974E+02  0.44811389004E+01  0.10968054578E+03  0.78881832009E+02 0.  0.
          5    1    3    3  501    0 -0.64567811265E+02 -0.61015248733E+02 -0.25483194120E+02  0.92538348873E+02  0.47000000000E+01 0. -1.
        -11    1    4    4    0    0 -0.53066557402E+02 -0.39820487077E+02 -0.66884660447E+02  0.94208749639E+02  0.00000000000E+00 0.  1.
         12    1    4    4    0    0 -0.21989734044E+02 -0.27937826281E+02 -0.19772335973E+03  0.20089449351E+03  0.00000000000E+00 0. -1.
         -5    1    5    5    0  502  0.11978586378E+03  0.55330779117E+02  0.11030774737E+03  0.17204661405E+03  0.47000000000E+01 0.  1.
         11    1    6    6    0    0 -0.21693925311E+02  0.15018182243E+02  0.23700197306E+02  0.35466484822E+02  0.00000000000E+00 0. -1.
        -12    1    6    6    0    0  0.41532164245E+02  0.58424600730E+02 -0.19219058406E+02  0.74214060955E+02  0.00000000000E+00 0.  1.
</event>
<event>
12    1  0.8747122E-002  0.2055572E+03  0.7818608E-02  0.1145173E+00
         21   -1    0    0  503  502  0.00000000000E+00  0.00000000000E+00  0.16807700018E+03  0.16807700018E+03  0.00000000000E+00 0. -1.
         21   -1    0    0  501  503 -0.00000000000E+00 -0.00000000000E+00 -0.31334328760E+03  0.31334328760E+03  0.00000000000E+00 0. -1.
          6    2    1    2  501    0 -0.92918383531E+01 -0.11507073151E+03 -0.17983783377E+03  0.27297618969E+03  0.16984328710E+03 0.  0.
         24    2    3    3    0    0 -0.13252157021E+02 -0.12628933025E+02 -0.14178759593E+03  0.16352338342E+03  0.79379247606E+02 0.  0.
         -6    2    1    2    0  502  0.92918383531E+01  0.11507073151E+03  0.34571546340E+02  0.20844409809E+03  0.17007686116E+03 0.  0.
        -24    2    5    5    0    0 -0.49765789152E+02  0.89522570875E+02 -0.92608740385E+01  0.13044484839E+03  0.80244440408E+02 0.  0.
          5    1    3    3  501    0  0.39603186682E+01 -0.10244179848E+03 -0.38050237833E+02  0.10945280626E+03  0.47000000000E+01 0. -1.
        -11    1    4    4    0    0  0.30193379172E+02  0.10612262637E+02 -0.61316351751E+02  0.69166142412E+02  0.00000000000E+00 0.  1.
         12    1    4    4    0    0 -0.43445536193E+02 -0.23241195662E+02 -0.80471244182E+02  0.94357241010E+02  0.00000000000E+00 0. -1.
         -5    1    5    5    0  502  0.59057627505E+02  0.25548160631E+02  0.43832420379E+02  0.77999249704E+02  0.47000000000E+01 0.  1.
         11    1    6    6    0    0 -0.10242194179E+02  0.70558012121E+02  0.24203627260E+02  0.75293765934E+02  0.00000000000E+00 0. -1.
        -12    1    6    6    0    0 -0.39523594974E+02  0.18964558754E+02 -0.33464501299E+02  0.55151082451E+02  0.00000000000E+00 0.  1.
</event>
<event>
12    1  0.8747122E-002  0.2268792E+03  0.7818608E-02  0.1129060E+00
         21   -1    0    0  503  502  0.00000000000E+00  0.00000000000E+00  0.55794105165E+02  0.55794105165E+02  0.00000000000E+00 0. -1.
         21   -1    0    0  501  503 -0.00000000000E+00 -0.00000000000E+00 -0.11605181459E+04  0.11605181459E+04  0.00000000000E+00 0. -1.
          6    2    1    2  501    0  0.88495020882E+01 -0.14633235172E+03 -0.83148593117E+03  0.86188341638E+03  0.17315512945E+03 0.  0.
         24    2    3    3    0    0  0.14177064559E+02 -0.66002231020E+02 -0.19776844739E+03  0.22305538752E+03  0.78000406787E+02 0.  0.
         -6    2    1    2    0  502 -0.88495020882E+01  0.14633235172E+03 -0.27323810957E+03  0.35442883469E+03  0.17166613961E+03 0.  0.
        -24    2    5    5    0    0 -0.18909490731E+02  0.10508916746E+03 -0.11685501349E+03  0.19231786541E+03  0.10922346461E+03 0.  0.
          5    1    3    3  501    0 -0.53275624710E+01 -0.80330120699E+02 -0.63371748378E+03  0.63882802887E+03  0.47000000000E+01 0. -1.
        -13    1    4    4    0    0  0.26906502842E+02 -0.31112122532E+02 -0.17437836072E+03  0.17916399401E+03  0.00000000000E+00 0.  1.
         14    1    4    4    0    0 -0.12729438282E+02 -0.34890108488E+02 -0.23390086667E+02  0.43891393502E+02  0.00000000000E+00 0. -1.
         -5    1    5    5    0  502  0.10059988643E+02  0.41243184255E+02 -0.15638309609E+03  0.16211096928E+03  0.47000000000E+01 0.  1.
         13    1    6    6    0    0  0.34081683722E+02  0.92042885850E+02 -0.76637213695E+02  0.12452596727E+03  0.00000000000E+00 0. -1.
        -14    1    6    6    0    0 -0.52991174453E+02  0.13046281615E+02 -0.40217799791E+02  0.67791898143E+02  0.00000000000E+00 0.  1.
</event>
<event>
12    1  0.8747122E-002  0.1740044E+03  0.7818608E-02  0.1175753E+00
         21   -1    0    0  503  502  0.00000000000E+00  0.00000000000E+00  0.12893785888E+04  0.12893785888E+04  0.00000000000E+00 0. -1.
         21   -1    0    0  501  503 -0.00000000000E+00 -0.00000000000E+00 -0.43941877751E+02  0.43941877751E+02  0.00000000000E+00 0. -1.
          6    2    1    2  501    0 -0.21955368191E+02  0.55083665590E+01  0.14919760286E+03  0.22335753596E+03  0.16467022766E+03 0.  0.
         24    2    3    3    0    0  0.96924833018E+01  0.36541334835E+02  0.26587027253E+02  0.92896526941E+02  0.80583381137E+02 0.  0.
         -6    2    1    2    0  502  0.21955368191E+02 -0.55083665590E+01  0.10962391082E+04  0.11099629306E+04  0.17252577970E+03 0.  0.
        -24    2    5    5    0    0  0.45786380859E+02  0.47186496201E+02  0.42695226215E+03  0.43816561145E+03  0.73334240315E+02 0.  0.
          5    1    3    3  501    0 -0.31647851493E+02 -0.31032968276E+02  0.12261057561E+03  0.13046100902E+03  0.47000000000E+01 0. -1.
        -11    1    4    4    0    0  0.12757623974E+02  0.54087707584E+02  0.41747572643E+02  0.69506092559E+02  0.00000000000E+00 0.  1.
         12    1    4    4    0    0 -0.30651406725E+01 -0.17546372750E+02 -0.15160545391E+02  0.23390434382E+02  0.00000000000E+00 0. -1.
         -5    1    5    5    0  502 -0.23831012668E+02 -0.52694862760E+02  0.66928684604E+03  0.67179731914E+03  0.47000000000E+01 0.  1.
         11    1    6    6    0    0  0.50568685776E+02  0.28653443382E+02  0.40453402163E+03  0.40868812860E+03  0.00000000000E+00 0. -1.
        -12    1    6    6    0    0 -0.47823049171E+01  0.18533052819E+02  0.22418240517E+02  0.29477482847E+02  0.00000000000E+00 0.  1.
</event>
<event>
12    1  0.8747122E-002  0.1841119E+03  0.7818608E-02  0.1164159E+00
         21   -1    0    0  501  502  0.00000000000E+00  0.00000000000E+00  0.17435403330E+03  0.17435403330E+03  0.00000000000E+00 0.  1.
         21   -1    0    0  502  503 -0.00000000000E+00 -0.00000000000E+00 -0.30181911619E+03  0.30181911619E+03  0.00000000000E+00 0.  1.
         -6    2    1    2    0  503 -0.52285886751E+02 -0.29047480137E+02 -0.20644494570E+03  0.27583593936E+03  0.17288256067E+03 0.  0.
        -24    2    3    3    0    0 -0.58072028570E+01 -0.32156228012E+02 -0.21186666687E+03  0.22870402416E+03  0.79688766665E+02 0.  0.
          6    2    1    2  501    0  0.52285886751E+02  0.29047480137E+02  0.78979862807E+02  0.20033721012E+03  0.17412526805E+03 0.  0.
         24    2    5    5    0    0 -0.41511223565E+01 -0.37937380799E+02  0.71129131349E+02  0.11227001091E+03  0.78030284797E+02 0.  0.
          5    1    5    5  501    0  0.56437009107E+02  0.66984860936E+02  0.78507314583E+01  0.88067199206E+02  0.47000000000E+01 0. -1.
        -11    1    6    6    0    0  0.25107730096E+02 -0.43486363651E+02  0.22005369762E+02  0.54824248581E+02  0.00000000000E+00 0.  1.
         12    1    6    6    0    0 -0.29258852452E+02  0.55489828522E+01  0.49123761587E+02  0.57445762332E+02  0.00000000000E+00 0. -1.
         -5    1    3    3    0  503 -0.46478683894E+02  0.31087478751E+01  0.54217211717E+01  0.47131915199E+02  0.47000000000E+01 0.  1.
         13    1    4    4    0    0  0.21394822265E+02 -0.48076676962E+01 -0.11699647187E+02  0.24854251804E+02  0.00000000000E+00 0. -1.
        -14    1    4    4    0    0 -0.27202025122E+02 -0.27348560316E+02 -0.20016701968E+03  0.20384977236E+03  0.00000000000E+00 0.  1.
</event>
<event>
12    1  0.8747122E-002  0.2236963E+03  0.7818608E-02  0.1131262E+00
         21   -1    0    0  503  502  0.00000000000E+00  0.00000000000E+00  0.15068613843E+04  0.15068613843E+04  0.00000000000E+00 0.  1.
         21   -1    0    0  501  503 -0.00000000000E+00 -0.00000000000E+00 -0.22359988369E+03  0.22359988369E+03  0.00000000000E+00 0. -1.
          6    2    1    2  501    0  0.10305206433E+03  0.97497839798E+02 -0.15682478863E+03  0.27319236466E+03  0.17295807889E+03 0.  0.
         24    2    3    3    0    0 -0.76149009454E+01  0.77364787847E+02 -0.92363671495E+02  0.14346248142E+03  0.77505732998E+02 0.  0.
         -6    2    1    2    0  502 -0.10305206433E+03 -0.97497839798E+02  0.14400862892E+04  0.14572689033E+04  0.17221666425E+03 0.  0.
        -24    2    5    5    0    0 -0.36569162815E+02 -0.43853076032E+02  0.11695974829E+04  0.11735718444E+04  0.77795926011E+02 0.  0.
          5    1    3    3  501    0  0.11066696527E+03  0.20133051951E+02 -0.64461117133E+02  0.12972988324E+03  0.47000000000E+01 0. -1.
        -11    1    4    4    0    0  0.28212372082E+01  0.70299656398E+02 -0.24594050583E+02  0.74530989482E+02  0.00000000000E+00 0.  1.
         12    1    4    4    0    0 -0.10436138154E+02  0.70651314489E+01 -0.67769620912E+02  0.68931491936E+02  0.00000000000E+00 0. -1.
         -5    1    5    5    0  502 -0.66482901513E+02 -0.53644763766E+02  0.27048880637E+03  0.28369705893E+03  0.47000000000E+01 0.  1.
         11    1    6    6    0    0  0.13111809224E+02  0.64816009563E+01  0.50695139144E+03  0.50716234479E+03  0.00000000000E+00 0. -1.
        -12    1    6    6    0    0 -0.49680972039E+02 -0.50334676989E+02  0.66264609142E+03  0.66640949960E+03  0.00000000000E+00 0.  1.
</event>
<event>
12    1  0.8747122E-002  0.1811928E+03  0.7818608E-02  0.1167220E+00
         21   -1    0    0  503  502  0.00000000000E+00  0.00000000000E+00  0.36360989520E+02  0.36360989520E+02  0.00000000000E+00 0. -1.
         21   -1    0    0  501  503 -0.00000000000E+00 -0.00000000000E+00 -0.10819484912E+04  0.10819484912E+04  0.00000000000E+00 0. -1.
          6    2    1    2  501    0 -0.52439829332E+02 -0.14661541542E+02 -0.75472436443E+03  0.77562565765E+03  0.17035667888E+03 0.  0.
         24    2    3    3    0    0 -0.52997006705E+01 -0.68196048954E+02 -0.50324219150E+03  0.51418061846E+03  0.80313244090E+02 0.  0.
         -6    2    1    2    0  502  0.52439829332E+02  0.14661541542E+02 -0.29086313722E+03  0.34268382304E+03  0.17281765384E+03 0.  0.
        -24    2    5    5    0    0  0.98009638448E+02  0.28023891036E+02 -0.17823153378E+03  0.22035995791E+03  0.80005023089E+02 0.  0.
          5    1    3    3  501    0 -0.47140128661E+02  0.53534507412E+02 -0.25148217293E+03  0.26144503919E+03  0.47000000000E+01 0. -1.
        -13    1    4    4    0    0  0.23257718264E+02 -0.69009909886E+02 -0.28863161349E+03  0.29767683387E+03  0.00000000000E+00 0.  1.
         14    1    4    4    0    0 -0.28557418934E+02  0.81386093201E+00 -0.21461057801E+03  0.21650378459E+03  0.00000000000E+00 0. -1.
         -5    1    5    5    0  502 -0.45569809116E+02 -0.13362349494E+02 -0.11263160344E+03  0.12232386513E+03  0.47000000000E+01 0.  1.
         11    1    6    6    0    0  0.10205521660E+02  0.27771026281E+02 -0.11161851342E+02  0.31622294326E+02  0.00000000000E+00 0. -1.
        -12    1    6    6    0    0  0.87804116788E+02  0.25286475511E+00 -0.16706968244E+03  0.18873766359E+03  0.00000000000E+00 0.  1.
</event>
<event>
12    1  0.8747122E-002  0.2113211E+03  0.7818608E-02  0.1140647E+00
         21   -1    0    0  503  502  0.00000000000E+00  0.00000000000E+00  0.24282580277E+03  0.24282580277E+03  0.00000000000E+00 0.  1.
         21   -1    0    0  501  503 -0.00000000000E+00 -0.00000000000E+00 -0.14761165504E+04  0.14761165504E+04  0.00000000000E+00 0.  1.
          6    2    1    2  501    0 -0.11714208908E+03 -0.35182026942E+02 -0.14208525711E+04  0.14363896277E+04  0.17156074635E+03 0.  0.
         24    2    3    3    0    0 -0.20427747216E-01 -0.37642531508E+02 -0.78361900017E+03  0.78846042511E+03  0.78702883974E+02 0.  0.
         -6    2    1    2    0  502  0.11714208908E+03  0.35182026942E+02  0.18756182348E+03  0.28255272548E+03  0.17232690155E+03 0.  0.
        -24    2    5    5    0    0  0.83549134510E+02 -0.40298179765E+02  0.75368235906E+02  0.14314239841E+03  0.78771657783E+02 0.  0.
          5    1    3    3  501    0 -0.11712166133E+03  0.24605045654E+01 -0.63723357094E+03  0.64792920259E+03  0.47000000000E+01 0. -1.
        -11    1    4    4    0    0  0.27240087336E+02  0.37494363963E+01 -0.48309711144E+03  0.48387901351E+03  0.00000000000E+00 0.  1.
         12    1    4    4    0    0 -0.27260515083E+02 -0.41391967904E+02 -0.30052188873E+03  0.30458141160E+03  0.00000000000E+00 0. -1.
         -5    1    5    5    0  502  0.33592954568E+02  0.75480206707E+02  0.11219358757E+03  0.13941032707E+03  0.47000000000E+01 0.  1.
         13    1    6    6    0    0  0.69870323085E+02  0.89226407252E+01  0.39936339764E+02  0.80971518445E+02  0.00000000000E+00 0. -1.
        -14    1    6    6    0    0  0.13678811425E+02 -0.49220820490E+02  0.35431896142E+02  0.62170879968E+02  0.00000000000E+00 0.  1.
</event>
<event>
12    1  0.8747122E-002  0.1971318E+03  0.7818608E-02  0.1152256E+00
         21   -1    0    0  503  502  0.00000000000E+00  0.00000000000E+00  0.38397058437E+03  0.38397058437E+03  0.00000000000E+00 0.  1.
         21   -1    0    0  501  503 -0.00000000000E+00 -0.00000000000E+00 -0.12245842522E+03  0.12245842522E+03  0.00000000000E+00 0.  1.
          6    2    1    2  501    0  0.95423055677E+02  0.90307136296E+01  0.24738869529E+02  0.19833401318E+03  0.17186406191E+03 0.  0.
         24    2    3    3    0    0  0.47541596732E+02 -0.60213202634E+02  0.29497980654E+02  0.11388229213E+03  0.78823932956E+02 0.  0.
         -6    2    1    2    0  502 -0.95423055677E+02 -0.90307136296E+01  0.23677328962E+03  0.30809499641E+03  0.17226091486E+03 0.  0.
        -24    2    5    5    0    0 -0.59208909173E+02 -0.59586989024E+02  0.83903437420E+02  0.14299295796E+03  0.79692502957E+02 0.  0.
          5    1    3    3  501    0  0.47881458945E+02  0.69243916264E+02 -0.47591111250E+01  0.84451721054E+02  0.47000000000E+01 0. -1.
        -13    1    4    4    0    0  0.56669112933E+02 -0.16595287262E+02  0.35528393578E+02  0.68913414298E+02  0.00000000000E+00 0.  1.
         14    1    4    4    0    0 -0.91275162014E+01 -0.43617915372E+02 -0.60304129237E+01  0.44968877832E+02  0.00000000000E+00 0. -1.
         -5    1    5    5    0  502 -0.36214146503E+02  0.50556275395E+02  0.15286985220E+03  0.16510203845E+03  0.47000000000E+01 0.  1.
         11    1    6    6    0    0  0.12050189495E+02 -0.40004169918E+02  0.27346739328E+02  0.49933804477E+02  0.00000000000E+00 0. -1.
        -12    1    6    6    0    0 -0.71259098668E+02 -0.19582819106E+02  0.56556698092E+02  0.93059153479E+02  0.00000000000E+00 0.  1.
</event>
<event>
12    1  0.8747122E-002  0.2153468E+03  0.7818608E-02  0.1137873E+00
         21   -1    0    0  503  502  0.00000000000E+00  0.00000000000E+00  0.14059700096E+04  0.14059700096E+04  0.00000000000E+00 0. -1.
         21   -1    0    0  501  503 -0.00000000000E+00 -0.00000000000E+00 -0.58075893603E+02  0.58075893603E+02  0.00000000000E+00 0.  1.
          6    2    1    2  501    0 -0.12415472077E+03 -0.21448497459E+02  0.18704724819E+03  0.28339366330E+03  0.17161253629E+03 0.  0.
         24    2    3    3    0    0 -0.65774893226E+02  0.43429283556E+02  0.15333805191E+03  0.18971479350E+03  0.79162525599E+02 0.  0.
         -6    2    1    2    0  502  0.12415472077E+03  0.21448497459E+02  0.11608468678E+04  0.11806522399E+04  0.17464200055E+03 0.  0.
        -24    2    5    5    0    0  0.13922170377E+03  0.61263016745E+02  0.87624646548E+03  0.89284729045E+03  0.78946664170E+02 0.  0.
          5    1    3    3  501    0 -0.58379827542E+02 -0.64877781015E+02  0.33709196276E+02  0.93678869799E+02  0.47000000000E+01 0. -1.
        -13    1    4    4    0    0 -0.63373386174E+02 -0.13654750802E+01  0.65881094326E+02  0.91424117097E+02  0.00000000000E+00 0.  1.
         14    1    4    4    0    0 -0.24015070515E+01  0.44794758636E+02  0.87456957586E+02  0.98290676402E+02  0.00000000000E+00 0. -1.
         -5    1    5    5    0  502 -0.15066982998E+02 -0.39814519286E+02  0.28460040235E+03  0.28780494947E+03  0.47000000000E+01 0.  1.
         13    1    6    6    0    0  0.28347579137E+02  0.35654510569E+02  0.12518870875E+03  0.13321802493E+03  0.00000000000E+00 0. -1.
        -14    1    6    6    0    0  0.11087412463E+03  0.25608506176E+02  0.75105775673E+03  0.75962926552E+03  0.00000000000E+00 0.  1.
</event>
<event>
12    1  0.8747122E-002  0.2067194E+03  0.7818608E-02  0.1144222E+00
         21   -1    0    0  501  502  0.00000000000E+00  0.00000000000E+00  0.16335325153E+04  0.16335325153E+04  0.00000000000E+00 0. -1.
         21   -1    0    0  502  503 -0.00000000000E+00 -0.00000000000E+00 -0.42652258851E+02  0.42652258851E+02  0.00000000000E+00 0. -1.
         -6    2    1    2    0  503  0.26508934506E+02 -0.11118224829E+03  0.27378778990E+03  0.34296856041E+03  0.17205657090E+03 0.  0.
        -24    2    3    3    0    0  0.66183846319E+02 -0.29183629315E+02  0.19454008886E+03  0.22213743752E+03  0.79165707455E+02 0.  0.
          6    2    1    2  501    0 -0.26508934506E+02  0.11118224829E+03  0.13170924665E+04  0.13332162137E+04  0.17224601936E+03 0.  0.
         24    2    5    5    0    0  0.13885679834E+02  0.12161486384E+03  0.11841833699E+04  0.11938337101E+04  0.89250695903E+02 0.  0.
          5    1    5    5  501    0 -0.40394614340E+02 -0.10432615552E+02  0.13290909662E+03  0.13938250356E+03  0.47000000000E+01 0. -1.
        -11    1    6    6    0    0 -0.56827307816E+01 -0.99257773105E+01  0.31651506632E+02  0.33654603792E+02  0.00000000000E+00 0.  1.
         12    1    6    6    0    0  0.19568410616E+02  0.13154064115E+03  0.11525318633E+04  0.11601791063E+04  0.00000000000E+00 0. -1.
         -5    1    3    3    0  503 -0.39674911814E+02 -0.81998618977E+02  0.79247701033E+02  0.12083112290E+03  0.47000000000E+01 0.  1.
         11    1    4    4    0    0 -0.15904590833E+02 -0.30593489959E+01  0.11576075698E+02  0.19907816415E+02  0.00000000000E+00 0. -1.
        -12    1    4    4    0    0  0.82088437153E+02 -0.26124280319E+02  0.18296401317E+03  0.20222962110E+03  0.00000000000E+00 0.  1.
</event>
<event>
12    1  0.8747122E-002  0.2073598E+03  0.7818608E-02  0.1144537E+00
         21   -1    0    0  503  502  0.00000000000E+00  0.00000000000E+00  0.24815839018E+03  0.24815839018E+03  0.00000000000E+00 0.  1.
         21   -1    0    0  501  503 -0.00000000000E+00 -0.00000000000E+00 -0.28139520523E+03  0.28139520523E+03  0.00000000000E+00 0.  1.
          6    2    1    2  501    0 -0.27258126968E+00  0.11618608684E+03 -0.18329330131E+03  0.27359453959E+03  0.16660809318E+03 0.  0.
         24    2    3    3    0    0  0.59406571280E+02  0.96916307829E+02 -0.13710897960E+03  0.19556885661E+03  0.80786100013E+02 0.  0.
         -6    2    1    2    0  502  0.27258126968E+00 -0.11618608684E+03  0.15005648626E+03  0.25595905583E+03  0.17175217063E+03 0.  0.
        -24    2    5    5    0    0 -0.61930890470E+02 -0.54637432166E+02  0.55633723942E+02  0.12713647693E+03  0.79043585062E+02 0.  0.
          5    1    3    3  501    0 -0.59679152550E+02  0.19269779010E+02 -0.46184321706E+02  0.78025682974E+02  0.47000000000E+01 0. -1.
        -13    1    4    4    0    0 -0.20065962135E+02  0.26329354373E+02 -0.30166023129E+02  0.44786903103E+02  0.00000000000E+00 0.  1.
         14    1    4    4    0    0  0.79472533415E+02  0.70586953456E+02 -0.10694295647E+03  0.15078195351E+03  0.00000000000E+00 0. -1.
         -5    1    5    5    0  502  0.62203471740E+02 -0.61548654673E+02  0.94422762318E+02  0.12882257889E+03  0.47000000000E+01 0.  1.
         13    1    6    6    0    0  0.16941260514E+02  0.19071170081E+01  0.55558279092E+01  0.17930717410E+02  0.00000000000E+00 0. -1.
        -14    1    6    6    0    0 -0.78872150984E+02 -0.56544549174E+02  0.50077896033E+02  0.10920575952E+03  0.00000000000E+00 0.  1.
</event>
<event>
12    1  0.8747122E-002  0.1943404E+03  0.7818608E-02  0.1154736E+00
         21   -1    0    0  501  502  0.00000000000E+00  0.00000000000E+00  0.20621792835E+03  0.20621792835E+03  0.00000000000E+00 0.  1.
         21   -1    0    0  502  503 -0.00000000000E+00 -0.00000000000E+00 -0.18944771298E+03  0.18944771298E+03  0.00000000000E+00 0.  1.
         -6    2    1    2    0  503 -0.78268440543E+02  0.45926595129E+02 -0.29271913057E+02  0.19653254062E+03  0.17185166191E+03 0.  0.
        -24    2    3    3    0    0 -0.45878738701E+02 -0.38501798679E+02  0.58622163892E+01  0.99405080451E+02  0.79118627845E+02 0.  0.
          6    2    1    2  501    0  0.78268440543E+02 -0.45926595129E+02  0.46042128427E+02  0.19913310071E+03  0.17116925332E+03 0.  0.
         24    2    5    5    0    0  0.79087132649E+02  0.20066733450E+02 -0.66291225227E+01  0.11456277287E+03  0.80145089189E+02 0.  0.
          5    1    5    5  501    0 -0.81869210604E+00 -0.65993328579E+02  0.52671250950E+02  0.84570327836E+02  0.47000000000E+01 0. -1.
        -13    1    6    6    0    0  0.53897647446E+02  0.39791838741E+02 -0.31507950868E+02  0.74034436572E+02  0.00000000000E+00 0.  1.
         14    1    6    6    0    0  0.25189485203E+02 -0.19725105291E+02  0.24878828345E+02  0.40528336301E+02  0.00000000000E+00 0. -1.
         -5    1    3    3    0  503 -0.32389701842E+02  0.84428393808E+02 -0.35134129446E+02  0.97127460166E+02  0.47000000000E+01 0.  1.
         11    1    4    4    0    0  0.17191321275E+02 -0.67141845147E+01  0.20173289250E+02  0.27341971400E+02  0.00000000000E+00 0. -1.
        -12    1    4    4    0    0 -0.63070059976E+02 -0.31787614164E+02 -0.14311072861E+02  0.72063109051E+02  0.00000000000E+00 0.  1.
</event>
<event>
12    1  0.8747122E-002  0.2027036E+03  0.7818608E-02  0.1147989E+00
         21   -1    0    0  503  502  0.00000000000E+00  0.00000000000E+00  0.68129275756E+03  0.68129275756E+03  0.00000000000E+00 0.  1.
         21   -1    0    0  501  503 -0.00000000000E+00 -0.00000000000E+00 -0.65342802143E+02  0.65342802143E+02  0.00000000000E+00 0.  1.
          6    2    1    2  501    0  0.29279874122E+02 -0.10385073429E+03  0.42051844869E+03  0.46682386534E+03  0.17159973637E+03 0.  0.
         24    2    3    3    0    0  0.31744138474E+02 -0.15463279409E+02  0.32694192086E+03  0.33799424398E+03  0.78117130070E+02 0.  0.
         -6    2    1    2    0  502 -0.29279874122E+02  0.10385073429E+03  0.19543150672E+03  0.27981169436E+03  0.16869743459E+03 0.  0.
        -24    2    5    5    0    0 -0.76719233319E+02  0.59942617323E+02  0.16683654058E+03  0.20897259763E+03  0.79725511320E+02 0.  0.
          5    1    3    3  501    0 -0.24642643520E+01 -0.88387454881E+02  0.93576527829E+02  0.12882962136E+03  0.47000000000E+01 0. -1.
        -11    1    4    4    0    0 -0.88124806718E+01  0.23774374219E+02  0.59731524664E+02  0.64890182029E+02  0.00000000000E+00 0.  1.
         12    1    4    4    0    0  0.40556619146E+02 -0.39237653628E+02  0.26721039620E+03  0.27310406195E+03  0.00000000000E+00 0. -1.
         -5    1    5    5    0  502  0.47439359197E+02  0.43908116967E+02  0.28594966143E+02  0.70839096729E+02  0.47000000000E+01 0.  1.
         13    1    6    6    0    0 -0.50133703524E+02  0.54195666075E+02  0.50374344261E+02  0.89376355990E+02  0.00000000000E+00 0. -1.
        -14    1    6    6    0    0 -0.26585529795E+02  0.57469512486E+01  0.11646219632E+03  0.11959624164E+03  0.00000000000E+00 0.  1.
</event>
<event>
12    1  0.8747122E-002  0.2918404E+03  0.7818608E-02  0.1089473E+00
         21   -1    0    0  503  502  0.00000000000E+00  0.00000000000E+00  0.48572188003E+03  0.48572188003E+03  0.00000000000E+00 0. -1.
         21   -1    0    0  501  503 -0.00000000000E+00 -0.00000000000E+00 -0.30644611829E+03  0.30644611829E+03  0.00000000000E+00 0.  1.
          6    2    1    2  501    0  0.23417848714E+03  0.20906432628E+02 -0.16974165174E+03  0.33761378372E+03  0.17289938072E+03 0.  0.
         24    2    3    3    0    0  0.13899380271E+03 -0.52789648365E+02 -0.12120098806E+03  0.20773105764E+03  0.79727590160E+02 0.  0.
         -6    2    1    2    0  502 -0.23417848714E+03 -0.20906432628E+02  0.34901741349E+03  0.45455421460E+03  0.17184218436E+03 0.  0.
        -24    2    5    5    0    0 -0.17114228236E+03 -0.47547335956E+02  0.32977614834E+03  0.38331084910E+03  0.81390841350E+02 0.  0.
          5    1    3    3  501    0  0.95184684427E+02  0.73696080994E+02 -0.48540663686E+02  0.12988272608E+03  0.47000000000E+01 0. -1.
        -13    1    4    4    0    0  0.11742959589E+03 -0.15911881930E+02 -0.59278523374E+02  0.13250223134E+03  0.00000000000E+00 0.  1.
         14    1    4    4    0    0  0.21564206827E+02 -0.36877766435E+02 -0.61922464682E+02  0.75228826295E+02  0.00000000000E+00 0. -1.
         -5    1    5    5    0  502 -0.63036204782E+02  0.26640903328E+02  0.19241265150E+02  0.71243365501E+02  0.47000000000E+01 0.  1.
         13    1    6    6    0    0 -0.13981694038E+03 -0.41609322411E+02  0.18780786082E+03  0.23780644464E+03  0.00000000000E+00 0. -1.
        -14    1    6    6    0    0 -0.31325341984E+02 -0.59380135452E+01  0.14196828752E+03  0.14550440445E+03  0.00000000000E+00 0.  1.
</event>
<event>
12    1  0.8747122E-002  0.1850848E+03  0.7818608E-02  0.1163564E+00
         21   -1    0    0  501  502  0.00000000000E+00  0.00000000000E+00  0.73926341241E+03  0.73926341241E+03  0.00000000000E+00 0. -1.
         21   -1    0    0  502  503 -0.00000000000E+00 -0.00000000000E+00 -0.87905052856E+02  0.87905052856E+02  0.00000000000E+00 0. -1.
         -6    2    1    2    0  503 -0.59947769961E+02 -0.21771698718E+02  0.37976689004E+02  0.18647083533E+03  0.17105964321E+03 0.  0.
        -24    2    3    3    0    0 -0.76006178665E+02 -0.68333259033E+02  0.44325749983E+02  0.13658845403E+03  0.79026958552E+02 0.  0.
          6    2    1    2  501    0  0.59947769961E+02  0.21771698718E+02  0.61338167055E+03  0.64069762993E+03  0.17374877624E+03 0.  0.
         24    2    5    5    0    0  0.43061775412E+02  0.10168469764E+02  0.12260067539E+03  0.14946667921E+03  0.73154960937E+02 0.  0.
          5    1    5    5  501    0  0.16885994550E+02  0.11603228954E+02  0.49078099516E+03  0.49123095072E+03  0.47000000000E+01 0. -1.
        -11    1    6    6    0    0 -0.19376702681E+02  0.29914537184E+01  0.14360921224E+02  0.24303116272E+02  0.00000000000E+00 0.  1.
         12    1    6    6    0    0  0.62438478093E+02  0.71770160455E+01  0.10823975417E+03  0.12516356294E+03  0.00000000000E+00 0. -1.
         -5    1    3    3    0  503  0.16058408703E+02  0.46561560315E+02 -0.63490609797E+01  0.49882381302E+02  0.47000000000E+01 0.  1.
         13    1    4    4    0    0 -0.52981324593E+02  0.40174650660E+01  0.21347380376E+02  0.57261430563E+02  0.00000000000E+00 0. -1.
        -14    1    4    4    0    0 -0.23024854072E+02 -0.72350724099E+02  0.22978369608E+02  0.79327023470E+02  0.00000000000E+00 0.  1.
</event>
<event>
12    1  0.8747122E-002  0.2077039E+03  0.7818608E-02  0.1144063E+00
         21   -1    0    0  501  502  0.00000000000E+00  0.00000000000E+00  0.13182494969E+03  0.13182494969E+03  0.00000000000E+00 0. -1.
         21   -1    0    0  502  503 -0.00000000000E+00 -0.00000000000E+00 -0.36772617792E+03  0.36772617792E+03  0.00000000000E+00 0. -1.
         -6    2    1    2    0  503 -0.99503569909E+02 -0.51114282592E+02 -0.20510393128E+03  0.28957638196E+03  0.17109420811E+03 0.  0.
        -24    2    3    3    0    0 -0.30786700651E+01 -0.67046963347E+02 -0.88815776078E+02  0.13760060538E+03  0.80875898860E+02 0.  0.
          6    2    1    2  501    0  0.99503569909E+02  0.51114282592E+02 -0.30797296948E+02  0.20997474565E+03  0.17500654274E+03 0.  0.
         24    2    5    5    0    0  0.10748414283E+03 -0.37711211818E+01  0.22917533742E+02  0.13262185219E+03  0.74136900458E+02 0.  0.
          5    1    5    5  501    0 -0.79805729208E+01  0.54885403774E+02 -0.53714830690E+02  0.77352893466E+02  0.47000000000E+01 0. -1.
        -13    1    6    6    0    0  0.92397436201E+02 -0.28512914972E+02  0.17100429677E+01  0.96711926791E+02  0.00000000000E+00 0.  1.
         14    1    6    6    0    0  0.15086706629E+02  0.24741793790E+02  0.21207490774E+02  0.35909925394E+02  0.00000000000E+00 0. -1.
         -5    1    3    3    0  503 -0.96424899844E+02  0.15932680755E+02 -0.11628815520E+03  0.15197577658E+03  0.47000000000E+01 0.  1.
         11    1    4    4    0    0  0.21381683862E+02 -0.42194864775E+02 -0.91107049422E+02  0.10265513856E+03  0.00000000000E+00 0. -1.
        -12    1    4    4    0    0 -0.24460353927E+02 -0.24852098572E+02  0.22912733439E+01  0.34945466819E+02  0.00000000000E+00 0.  1.
</event>
<event>
12    1  0.8747122E-002  0.2013033E+03  0.7818608E-02  0.1148690E+00
         21   -1    0    0  501  502  0.00000000000E+00  0.00000000000E+00  0.57984606236E+03  0.57984606236E+03  0.00000000000E+00 0. -1.
         21   -1    0    0  502  503 -0.00000000000E+00 -0.00000000000E+00 -0.17867532419E+03  0.17867532419E+03  0.00000000000E+00 0. -1.
         -6    2    1    2    0  503 -0.51348136584E+02 -0.90870511389E+02 -0.95412811145E+02  0.22277031898E+03  0.17213055950E+03 0.  0.
        -24    2    3    3    0    0  0.12199598956E+02 -0.10831032782E+03 -0.61134410157E+02  0.14834209406E+03  0.79924986318E+02 0.  0.
          6    2    1    2  501    0  0.51348136584E+02  0.90870511389E+02  0.49658354932E+03  0.53575106758E+03  0.17187176610E+03 0.  0.
         24    2    5    5    0    0 -0.79644495340E+01  0.84382550007E+01  0.11201580373E+03  0.13797286214E+03  0.79714075292E+02 0.  0.
          5    1    5    5  501    0  0.59312586118E+02  0.82432256389E+02  0.38456774559E+03  0.39777820543E+03  0.47000000000E+01 0. -1.
        -13    1    6    6    0    0  0.13953242376E+02  0.37386001051E+02  0.80689284856E+02  0.90017591269E+02  0.00000000000E+00 0.  1.
         14    1    6    6    0    0 -0.21917691910E+02 -0.28947746050E+02  0.31326518870E+02  0.47955270874E+02  0.00000000000E+00 0. -1.
         -5    1    3    3    0  503 -0.63547735540E+02  0.17439816433E+02 -0.34278400987E+02  0.74428224913E+02  0.47000000000E+01 0.  1.
         13    1    4    4    0    0 -0.53488402640E+01 -0.36227965497E+02 -0.64398446304E+02  0.74082625916E+02  0.00000000000E+00 0. -1.
        -14    1    4    4    0    0  0.17548439220E+02 -0.72082362325E+02  0.32640361467E+01  0.74259468147E+02  0.00000000000E+00 0.  1.
</event>
<event>
12    1  0.8747122E-002  0.2292186E+03  0.7818608E-02  0.1127210E+00
         21   -1    0    0  503  502  0.00000000000E+00  0.00000000000E+00  0.27671769261E+03  0.27671769261E+03  0.00000000000E+00 0.  1.
         21   -1    0    0  501  503 -0.00000000000E+00 -0.00000000000E+00 -0.19338648581E+03  0.19338648581E+03  0.00000000000E+00 0.  1.
          6    2    1    2  501    0  0.14889183354E+03  0.30943077824E+02  0.95823345294E+01  0.22931365775E+03  0.17136709234E+03 0.  0.
         24    2    3    3    0    0  0.11641653793E+03  0.86054829373E+02  0.12343097054E+02  0.16511348802E+03  0.78433844223E+02 0.  0.
         -6    2    1    2    0  502 -0.14889183354E+03 -0.30943077824E+02  0.73748872272E+02  0.24079052067E+03  0.17150780311E+03 0.  0.
        -24    2    5    5    0    0 -0.82531819435E+02 -0.38672478934E+02 -0.22886203857E+02  0.12321576551E+03  0.79694947753E+02 0.  0.
          5    1    3    3  501    0  0.32475295607E+02 -0.55111751549E+02 -0.27607625247E+01  0.64200169730E+02  0.47000000000E+01 0. -1.
        -13    1    4    4    0    0  0.45410272513E+01  0.51592345785E+01 -0.21831517525E+02  0.22887852398E+02  0.00000000000E+00 0.  1.
         14    1    4    4    0    0  0.11187551068E+03  0.80895594795E+02  0.34174614579E+02  0.14222563562E+03  0.00000000000E+00 0. -1.
         -5    1    5    5    0  502 -0.66360014101E+02  0.77294011101E+01  0.96635076129E+02  0.11757475516E+03  0.47000000000E+01 0.  1.
         11    1    6    6    0    0 -0.29634107161E+02  0.10922703246E+02 -0.37726825984E+02  0.49201617374E+02  0.00000000000E+00 0. -1.
        -12    1    6    6    0    0 -0.52897712274E+02 -0.49595182180E+02  0.14840622126E+02  0.74014148137E+02  0.00000000000E+00 0.  1.
</event>
<event>
12    1  0.8747122E-002  0.1779964E+03  0.7818608E-02  0.1170103E+00
         21   -1    0    0  503  502  0.00000000000E+00  0.00000000000E+00  0.75287765597E+03  0.75287765597E+03  0.00000000000E+00 0.  1.
         21   -1    0    0  501  503 -0.00000000000E+00 -0.00000000000E+00 -0.87717760517E+02  0.87717760517E+02  0.00000000000E+00 0.  1.
          6    2    1    2  501    0  0.26516767673E+02 -0.32282739240E+02  0.27698576782E+02  0.17874977865E+03  0.17157784820E+03 0.  0.
         24    2    3    3    0    0  0.79615548116E+02  0.87126658624E+00  0.28117632877E+02  0.11597291831E+03  0.79496678515E+02 0.  0.
         -6    2    1    2    0  502 -0.26516767673E+02  0.32282739240E+02  0.63746131867E+03  0.66184563783E+03  0.17302427950E+03 0.  0.
        -24    2    5    5    0    0 -0.38746463895E+02 -0.24021017648E+02  0.18091254648E+03  0.20165160278E+03  0.76522687335E+02 0.  0.
          5    1    3    3  501    0 -0.53098780443E+02 -0.33154005826E+02 -0.41905609552E+00  0.62776860345E+02  0.47000000000E+01 0. -1.
        -11    1    4    4    0    0  0.47784045309E+02  0.30286600523E+02  0.42002573399E+02  0.70461403118E+02  0.00000000000E+00 0.  1.
         12    1    4    4    0    0  0.31831502807E+02 -0.29415333937E+02 -0.13884940521E+02  0.45511515190E+02  0.00000000000E+00 0. -1.
         -5    1    5    5    0  502  0.12229696222E+02  0.56303756887E+02  0.45654877219E+03  0.46019403505E+03  0.47000000000E+01 0.  1.
         13    1    6    6    0    0  0.77220571367E+01 -0.39013741149E+02  0.91654967761E+02  0.99911637360E+02  0.00000000000E+00 0. -1.
        -14    1    6    6    0    0 -0.46468521032E+02  0.14992723501E+02  0.89257578721E+02  0.10173996542E+03  0.00000000000E+00 0.  1.
</event>
<event>
12    1  0.8747122E-002  0.2214000E+03  0.7818608E-02  0.1133033E+00
         21   -1    0    0  501  502  0.00000000000E+00  0.00000000000E+00  0.22234033823E+03  0.22234033823E+03  0.00000000000E+00 0. -1.
         21   -1    0    0  502  503 -0.00000000000E+00 -0.00000000000E+00 -0.22500172470E+03  0.22500172470E+03  0.00000000000E+00 0.  1.
         -6    2    1    2    0  503 -0.91073890227E+02 -0.10444529588E+03 -0.36472599505E+02  0.22337522555E+03  0.17135625918E+03 0.  0.
        -24    2    3    3    0    0 -0.60562803280E+02 -0.13639381126E+03 -0.76952512221E+01  0.17044262845E+03  0.81977727534E+02 0.  0.
          6    2    1    2  501    0  0.91073890227E+02  0.10444529588E+03  0.33811213034E+02  0.22396683738E+03  0.17266925842E+03 0.  0.
         24    2    5    5    0    0  0.65796705260E+01  0.11148657685E+03  0.18891717590E+02  0.13774889177E+03  0.78392036001E+02 0.  0.
          5    1    5    5  501    0  0.84494219701E+02 -0.70412809651E+01  0.14919495445E+02  0.86217945608E+02  0.47000000000E+01 0. -1.
        -13    1    6    6    0    0  0.42404942526E+02  0.62597644001E+02  0.14444646109E+02  0.76975918223E+02  0.00000000000E+00 0.  1.
         14    1    6    6    0    0 -0.35825272000E+02  0.48888932847E+02  0.44470714806E+01  0.60772973545E+02  0.00000000000E+00 0. -1.
         -5    1    3    3    0  503 -0.30511086947E+02  0.31948515374E+02 -0.28777348283E+02  0.52932597097E+02  0.47000000000E+01 0.  1.
         13    1    4    4    0    0  0.11815044404E+02 -0.66262366710E+02 -0.16427639675E+02  0.69283214861E+02  0.00000000000E+00 0. -1.
        -14    1    4    4    0    0 -0.72377847684E+02 -0.70131444547E+02  0.87323884532E+01  0.10115941359E+03  0.00000000000E+00 0.  1.
</event>
<event>
12    1  0.8747122E-002  0.1971844E+03  0.7818608E-02  0.1154311E+00
         21   -1    0    0  503  502  0.00000000000E+00  0.00000000000E+00  0.32594233669E+03  0.32594233669E+03  0.00000000000E+00 0.  1.
         21   -1    0    0  501  503 -0.00000000000E+00 -0.00000000000E+00 -0.12616623279E+03  0.12616623279E+03  0.00000000000E+00 0.  1.
          6    2    1    2  501    0  0.39267134827E+02 -0.62685354426E+02  0.30320226808E+02  0.19950190628E+03  0.18278493624E+03 0.  0.
         24    2    3    3    0    0  0.61044514738E+02  0.10601875420E+01 -0.35354376246E+02  0.10530534645E+03  0.78177537020E+02 0.  0.
         -6    2    1    2    0  502 -0.39267134827E+02  0.62685354426E+02  0.16945587710E+03  0.25260666320E+03  0.17211470151E+03 0.  0.
        -24    2    5    5    0    0 -0.63211997203E+02  0.10713789483E+02  0.16389759375E+03  0.19492317761E+03  0.83797864274E+02 0.  0.
          5    1    3    3  501    0 -0.21777379911E+02 -0.63745541968E+02  0.65674603053E+02  0.94196559825E+02  0.47000000000E+01 0. -1.
        -13    1    4    4    0    0  0.33246787247E-01  0.14895523668E+02 -0.39890447214E+02  0.42580811519E+02  0.00000000000E+00 0.  1.
         14    1    4    4    0    0  0.61011267951E+02 -0.13835336126E+02  0.45360709687E+01  0.62724534933E+02  0.00000000000E+00 0. -1.
         -5    1    5    5    0  502  0.23944862376E+02  0.51971564943E+02  0.55582833501E+01  0.57683485597E+02  0.47000000000E+01 0.  1.
         13    1    6    6    0    0 -0.68927415678E+02 -0.64664171777E+01  0.66977838350E+02  0.96326704570E+02  0.00000000000E+00 0. -1.
        -14    1    6    6    0    0  0.57154184752E+01  0.17180206661E+02  0.96919755395E+02  0.98596473036E+02  0.00000000000E+00 0.  1.
</event>
<event>
12    1  0.8747122E-002  0.1745792E+03  0.7818608E-02  0.1173285E+00
         21   -1    0    0  501  502  0.00000000000E+00  0.00000000000E+00  0.13526367173E+04  0.13526367173E+04  0.00000000000E+00 0. -1.
         21   -1    0    0  502  503 -0.00000000000E+00 -0.00000000000E+00 -0.13858389995E+03  0.13858389995E+03  0.00000000000E+00 0. -1.
         -6    2    1    2    0  503  0.18569154540E+02  0.23162106368E+02 -0.75622604770E+02  0.18978272497E+03  0.17151503629E+03 0.  0.
        -24    2    3    3    0    0 -0.53011740063E+02  0.32831727359E+01 -0.61259315925E+02  0.11397117874E+03  0.80098077309E+02 0.  0.
          6    2    1    2  501    0 -0.18569154540E+02 -0.23162106368E+02  0.12896754221E+04  0.13014378923E+04  0.17203661347E+03 0.  0.
         24    2    5    5    0    0  0.22697910262E+02 -0.68741098119E+02  0.58497684717E+03  0.59404649661E+03  0.73843041065E+02 0.  0.
          5    1    5    5  501    0 -0.41267064802E+02  0.45578991751E+02  0.70469857498E+03  0.70739139570E+03  0.47000000000E+01 0. -1.
        -13    1    6    6    0    0 -0.19700648965E+02 -0.13727979361E+02  0.62165748962E+02  0.66641978745E+02  0.00000000000E+00 0.  1.
         14    1    6    6    0    0  0.42398559227E+02 -0.55013118758E+02  0.52281109820E+03  0.52740451787E+03  0.00000000000E+00 0. -1.
         -5    1    3    3    0  503  0.71580894603E+02  0.19878933632E+02 -0.14363288844E+02  0.75811546225E+02  0.47000000000E+01 0.  1.
         13    1    4    4    0    0 -0.42118231783E+02  0.40978902151E+01 -0.81012325400E+02  0.91398769245E+02  0.00000000000E+00 0. -1.
        -14    1    4    4    0    0 -0.10893508281E+02 -0.81471747921E+00  0.19753009475E+02  0.22572409498E+02  0.00000000000E+00 0.  1.
</event>
<event>
12    1  0.8747122E-002  0.2743481E+03  0.7818608E-02  0.1098960E+00
         21   -1    0    0  501  502  0.00000000000E+00  0.00000000000E+00  0.14379989210E+03  0.14379989210E+03  0.00000000000E+00 0. -1.
         21   -1    0    0  502  503 -0.00000000000E+00 -0.00000000000E+00 -0.67335716836E+03  0.67335716836E+03  0.00000000000E+00 0. -1.
         -6    2    1    2    0  503 -0.14342791850E+03  0.15697419852E+03 -0.45844506631E+03  0.53374243973E+03  0.17174587721E+03 0.  0.
        -24    2    3    3    0    0 -0.12006555806E+03  0.18480545542E+03 -0.37031335983E+03  0.43829786716E+03  0.80026503734E+02 0.  0.
          6    2    1    2  501    0  0.14342791850E+03 -0.15697419852E+03 -0.71112209947E+02  0.28341462073E+03  0.17336214706E+03 0.  0.
         24    2    5    5    0    0  0.13751446992E+03 -0.18539471477E+03 -0.55875900409E+02  0.25029469098E+03  0.79018266143E+02 0.  0.
          5    1    5    5  501    0  0.59134485765E+01  0.28420516253E+02 -0.15236309537E+02  0.33119929747E+02  0.47000000000E+01 0. -1.
        -11    1    6    6    0    0  0.55220005251E+02 -0.23398669719E+02  0.74165423206E+00  0.59977468899E+02  0.00000000000E+00 0.  1.
         12    1    6    6    0    0  0.82294464673E+02 -0.16199604505E+03 -0.56617554641E+02  0.19031722208E+03  0.00000000000E+00 0. -1.
         -5    1    3    3    0  503 -0.23362360443E+02 -0.27831256905E+02 -0.88131706481E+02  0.95444572573E+02  0.47000000000E+01 0.  1.
         13    1    4    4    0    0  0.68456297074E+01  0.14073108396E+02 -0.60409805551E+02  0.62404003339E+02  0.00000000000E+00 0. -1.
        -14    1    4    4    0    0 -0.12691118776E+03  0.17073234703E+03 -0.30990355428E+03  0.37589386382E+03  0.00000000000E+00 0.  1.
</event>
<event>
12    1  0.8747122E-002  0.1901152E+03  0.7818608E-02  0.1159071E+00
         21   -1    0    0  501  502  0.00000000000E+00  0.00000000000E+00  0.16951088182E+03  0.16951088182E+03  0.00000000000E+00 0.  1.
         21   -1    0    0  502  503 -0.00000000000E+00 -0.00000000000E+00 -0.48814581790E+03  0.48814581790E+03  0.00000000000E+00 0. -1.
         -6    2    1    2    0  503  0.27498993051E+02  0.68889677189E+02 -0.40708588755E+03  0.44797277690E+03  0.17163538899E+03 0.  0.
        -24    2    3    3    0    0  0.44882430186E+02  0.33274009994E+02 -0.39411697893E+03  0.40600919474E+03  0.79960495579E+02 0.  0.
          6    2    1    2  501    0 -0.27498993051E+02 -0.68889677189E+02  0.88450951478E+02  0.20968392282E+03  0.17504797751E+03 0.  0.
         24    2    5    5    0    0 -0.27864413246E+02 -0.27886798556E+02  0.12603797807E+03  0.15386059297E+03  0.78951954329E+02 0.  0.
          5    1    5    5  501    0  0.36542019514E+00 -0.41002878633E+02 -0.37587026594E+02  0.55823329857E+02  0.47000000000E+01 0. -1.
        -11    1    6    6    0    0  0.14630532381E+02 -0.39889224621E+02  0.76436517113E+02  0.87451380017E+02  0.00000000000E+00 0.  1.
         12    1    6    6    0    0 -0.42494945627E+02  0.12002426065E+02  0.49601460960E+02  0.66409212950E+02  0.00000000000E+00 0. -1.
         -5    1    3    3    0  503 -0.17383437136E+02  0.35615667195E+02 -0.12968908620E+02  0.41963582154E+02  0.47000000000E+01 0.  1.
         13    1    4    4    0    0 -0.15070895205E+02 -0.86723689069E+01 -0.30545050403E+02  0.35147431896E+02  0.00000000000E+00 0. -1.
        -14    1    4    4    0    0  0.59953325391E+02  0.41946378901E+02 -0.36357192853E+03  0.37086176285E+03  0.00000000000E+00 0.  1.
</event>
<event>
12    1  0.8747122E-002  0.2029265E+03  0.7818608E-02  0.1147530E+00
         21   -1    0    0  503  502  0.00000000000E+00  0.00000000000E+00  0.16409834764E+03  0.16409834764E+03  0.00000000000E+00 0. -1.
         21   -1    0    0  501  503 -0.00000000000E+00 -0.00000000000E+00 -0.26285574110E+03  0.26285574110E+03  0.00000000000E+00 0. -1.
          6    2    1    2  501    0  0.87955766956E+02  0.59007163232E+02 -0.97576484401E+02  0.22516738764E+03  0.17309280717E+03 0.  0.
         24    2    3    3    0    0  0.95974217765E+02  0.86759811894E+01 -0.11904386261E+02  0.12537098571E+03  0.79308552625E+02 0.  0.
         -6    2    1    2    0  502 -0.87955766956E+02 -0.59007163232E+02 -0.11809090500E+01  0.20178670110E+03  0.17175102894E+03 0.  0.
        -24    2    5    5    0    0 -0.11902415354E+03 -0.80068778870E+02  0.20155495622E+01  0.16382430331E+03  0.79098555241E+02 0.  0.
          5    1    3    3  501    0 -0.80184508090E+01  0.50331182042E+02 -0.85672098140E+02  0.99796401933E+02  0.47000000000E+01 0. -1.
        -11    1    4    4    0    0 -0.30509356256E+01  0.19641947941E+02  0.11587537594E+02  0.23008375749E+02  0.00000000000E+00 0.  1.
         12    1    4    4    0    0  0.99025153391E+02 -0.10965966751E+02 -0.23491923855E+02  0.10236260996E+03  0.00000000000E+00 0. -1.
         -5    1    5    5    0  502  0.31068386581E+02  0.21061615639E+02 -0.31964586121E+01  0.37962397787E+02  0.47000000000E+01 0.  1.
         13    1    6    6    0    0 -0.41355840349E+02 -0.68701171690E+02 -0.19315525266E+02  0.82481792166E+02  0.00000000000E+00 0. -1.
        -14    1    6    6    0    0 -0.77668313189E+02 -0.11367607180E+02  0.21331074828E+02  0.81342511149E+02  0.00000000000E+00 0.  1.
</event>
<event>
12    1  0.8747122E-002  0.1755487E+03  0.7818608E-02  0.1172274E+00
         21   -1    0    0  501  502  0.00000000000E+00  0.00000000000E+00  0.59630798733E+03  0.59630798733E+03  0.00000000000E+00 0.  1.
         21   -1    0    0  502  503 -0.00000000000E+00 -0.00000000000E+00 -0.57728335730E+02  0.57728335730E+02  0.00000000000E+00 0.  1.
         -6    2    1    2    0  503  0.16611042941E+02  0.32933256514E+02  0.16224046340E+03  0.23876710813E+03  0.17125197175E+03 0.  0.
        -24    2    3    3    0    0 -0.48208831773E+02  0.36522569006E+02  0.56475609115E+02  0.11457856710E+03  0.79251271950E+02 0.  0.
          6    2    1    2  501    0 -0.16611042941E+02 -0.32933256514E+02  0.37633918820E+03  0.41526921492E+03  0.17162986383E+03 0.  0.
         24    2    5    5    0    0  0.51604252548E+00  0.20416814589E+02  0.33631043179E+03  0.34624777997E+03  0.79785374529E+02 0.  0.
          5    1    5    5  501    0 -0.17127085467E+02 -0.53350071102E+02  0.40028756408E+02  0.69021434952E+02  0.47000000000E+01 0. -1.
        -11    1    6    6    0    0  0.17618944417E+02  0.77580051081E-01  0.30356563604E+03  0.30407651768E+03  0.00000000000E+00 0.  1.
         12    1    6    6    0    0 -0.17102901892E+02  0.20339234537E+02  0.32744795750E+02  0.42171262293E+02  0.00000000000E+00 0. -1.
         -5    1    3    3    0  503  0.64819874715E+02 -0.35893124916E+01  0.10576485429E+03  0.12418854103E+03  0.47000000000E+01 0.  1.
         11    1    4    4    0    0  0.13883957243E+02  0.34782807232E+02  0.18484222292E+02  0.41764511507E+02  0.00000000000E+00 0. -1.
        -12    1    4    4    0    0 -0.62092789017E+02  0.17397617734E+01  0.37991386823E+02  0.72814055591E+02  0.00000000000E+00 0.  1.
</event>
<event>
12    1  0.8747122E-002  0.1780911E+03  0.7818608E-02  0.1169708E+00
         21   -1    0    0  501  502  0.00000000000E+00  0.00000000000E+00  0.32302823770E+02  0.32302823770E+02  0.00000000000E+00 0.  1.
         21   -1    0    0  502  503 -0.00000000000E+00 -0.00000000000E+00 -0.11867483575E+04  0.11867483575E+04  0.00000000000E+00 0.  1.
         -6    2    1    2    0  503 -0.44733520027E+02  0.11778465950E+02 -0.83086956735E+03  0.84970331037E+03  0.17178957372E+03 0.  0.
        -24    2    3    3    0    0  0.38186772102E+02  0.26834220908E+02 -0.47931696411E+03  0.48815971210E+03  0.79855165545E+02 0.  0.
          6    2    1    2  501    0  0.44733520027E+02 -0.11778465950E+02 -0.32357596636E+03  0.36934787088E+03  0.17197855576E+03 0.  0.
         24    2    5    5    0    0 -0.19631583298E+02  0.75426711335E+01 -0.78169457666E+02  0.11486286665E+03  0.81490631815E+02 0.  0.
          5    1    5    5  501    0  0.64365103325E+02 -0.19321137084E+02 -0.24540650870E+03  0.25448500422E+03  0.47000000000E+01 0. -1.
        -13    1    6    6    0    0 -0.20128324568E+02 -0.33581865589E+02 -0.20975324661E+02  0.44416836797E+02  0.00000000000E+00 0.  1.
         14    1    6    6    0    0  0.49674127000E+00  0.41124536723E+02 -0.57194133004E+02  0.70446029857E+02  0.00000000000E+00 0. -1.
         -5    1    3    3    0  503 -0.82920292128E+02 -0.15055754958E+02 -0.35155260324E+03  0.36154359827E+03  0.47000000000E+01 0.  1.
         11    1    4    4    0    0 -0.19839784812E+02  0.26741956881E+02 -0.13911118796E+03  0.14304080514E+03  0.00000000000E+00 0. -1.
        -12    1    4    4    0    0  0.58026556914E+02  0.92264027045E-01 -0.34020577615E+03  0.34511890697E+03  0.00000000000E+00 0.  1.
</event>
<event>
12    1  0.8747122E-002  0.2559309E+03  0.7818608E-02  0.1113268E+00
         21   -1    0    0  501  502  0.00000000000E+00  0.00000000000E+00  0.98088848122E+02  0.98088848122E+02  0.00000000000E+00 0.  1.
         21   -1    0    0  502  503 -0.00000000000E+00 -0.00000000000E+00 -0.86037428459E+03  0.86037428459E+03  0.00000000000E+00 0. -1.
         -6    2    1    2    0  503 -0.10269920324E+02 -0.16961776531E+03 -0.62700015410E+03  0.66897615064E+03  0.15976307245E+03 0.  0.
        -24    2    3    3    0    0 -0.57866838971E+02 -0.63569049542E+02 -0.31491883229E+03  0.33591663914E+03  0.79224506367E+02 0.  0.
          6    2    1    2  501    0  0.10269920324E+02  0.16961776531E+03 -0.13528528237E+03  0.28948698207E+03  0.19137645516E+03 0.  0.
         24    2    5    5    0    0 -0.42299245030E+02  0.44357210335E+02 -0.11413736268E+03  0.15192591096E+03  0.79355885871E+02 0.  0.
          5    1    5    5  501    0  0.52569165355E+02  0.12526055497E+03 -0.21147919694E+02  0.13756107111E+03  0.47000000000E+01 0. -1.
        -11    1    6    6    0    0 -0.94474862407E+01  0.28945503196E+01  0.11763686645E+02  0.15362868915E+02  0.00000000000E+00 0.  1.
         12    1    6    6    0    0 -0.32851758790E+02  0.41462660015E+02 -0.12590104933E+03  0.13656304204E+03  0.00000000000E+00 0. -1.
         -5    1    3    3    0  503  0.47596918647E+02 -0.10604871577E+03 -0.31208132181E+03  0.33305951150E+03  0.47000000000E+01 0.  1.
         11    1    4    4    0    0  0.17467895757E+02 -0.27291788259E+02 -0.10754220075E+03  0.11231782597E+03  0.00000000000E+00 0. -1.
        -12    1    4    4    0    0 -0.75334734728E+02 -0.36277261282E+02 -0.20737663154E+03  0.22359881317E+03  0.00000000000E+00 0.  1.
</event>
<event>
12    1  0.8747122E-002  0.2104947E+03  0.7818608E-02  0.1141379E+00
         21   -1    0    0  503  502  0.00000000000E+00  0.00000000000E+00  0.17626933329E+03  0.17626933329E+03  0.00000000000E+00 0.  1.
         21   -1    0    0  501  503 -0.00000000000E+00 -0.00000000000E+00 -0.26060165557E+03  0.26060165557E+03  0.00000000000E+00 0.  1.
          6    2    1    2  501    0  0.33424636817E+01  0.12193500466E+03 -0.85842101899E+02  0.22637091573E+03  0.17028096666E+03 0.  0.
         24    2    3    3    0    0 -0.35509820731E+02  0.15234360424E+02 -0.64759325085E+02  0.11078068707E+03  0.81151446909E+02 0.  0.
         -6    2    1    2    0  502 -0.33424636817E+01 -0.12193500466E+03  0.15097796153E+01  0.21050007313E+03  0.17154790563E+03 0.  0.
        -24    2    5    5    0    0  0.49053231409E+02 -0.92840284611E+02 -0.39669354966E+02  0.13763291507E+03  0.79646868286E+02 0.  0.
          5    1    3    3  501    0  0.38852284413E+02  0.10670064424E+03 -0.21082776814E+02  0.11559022867E+03  0.47000000000E+01 0. -1.
        -11    1    4    4    0    0  0.95316732191E+01  0.32138208339E+02 -0.47327771493E+01  0.33854341067E+02  0.00000000000E+00 0.  1.
         12    1    4    4    0    0 -0.45041493950E+02 -0.16903847915E+02 -0.60026547936E+02  0.76926345998E+02  0.00000000000E+00 0. -1.
         -5    1    5    5    0  502 -0.52395695091E+02 -0.29094720053E+02  0.41179134582E+02  0.72867158061E+02  0.47000000000E+01 0.  1.
         11    1    6    6    0    0  0.12895813492E+02  0.91304395550E+01 -0.23385071112E+02  0.28222836197E+02  0.00000000000E+00 0. -1.
        -12    1    6    6    0    0  0.36157417918E+02 -0.10197072417E+03 -0.16284283854E+02  0.10941007887E+03  0.00000000000E+00 0.  1.
</event>
<event>
12    1  0.8747122E-002  0.3115772E+03  0.7818608E-02  0.1080205E+00
         21   -1    0    0  501  502  0.00000000000E+00  0.00000000000E+00  0.17233537270E+04  0.17233537270E+04  0.00000000000E+00 0.  1.
         21   -1    0    0  502  503 -0.00000000000E+00 -0.00000000000E+00 -0.25190613500E+03  0.25190613500E+03  0.00000000000E+00 0. -1.
         -6    2    1    2    0  503  0.21069654908E+03  0.15404000779E+03 -0.13519772854E+03  0.33964502980E+03  0.17017332539E+03 0.  0.
        -24    2    3    3    0    0  0.16773791556E+03  0.63674299062E+02 -0.13784866936E+03  0.23944261968E+03  0.78358712323E+02 0.  0.
          6    2    1    2  501    0 -0.21069654908E+03 -0.15404000779E+03  0.16066453205E+04  0.16356148322E+04  0.16064038561E+03 0.  0.
         24    2    5    5    0    0 -0.69772121563E+02 -0.90325151364E+02  0.52679729922E+03  0.54473760887E+03  0.78720303263E+02 0.  0.
          5    1    5    5  501    0 -0.14092442751E+03 -0.63714856427E+02  0.10798480213E+04  0.10908772233E+04  0.47000000000E+01 0. -1.
        -13    1    6    6    0    0 -0.12958241671E+02 -0.60620632952E+01  0.24072963460E+03  0.24115435226E+03  0.00000000000E+00 0.  1.
         14    1    6    6    0    0 -0.56813879892E+02 -0.84263088069E+02  0.28606766462E+03  0.30358325662E+03  0.00000000000E+00 0. -1.
         -5    1    3    3    0  503  0.42958633514E+02  0.90365708729E+02  0.26509408193E+01  0.10020241012E+03  0.47000000000E+01 0.  1.
         13    1    4    4    0    0  0.10206535516E+03  0.56671375911E+02 -0.12701330323E+03  0.17251481319E+03  0.00000000000E+00 0. -1.
        -14    1    4    4    0    0  0.65672560403E+02  0.70029231507E+01 -0.10835366125E+02  0.66927806491E+02  0.00000000000E+00 0.  1.
</event>
<event>
12    1  0.8747122E-002  0.1875701E+03  0.7818608E-02  0.1160851E+00
         21   -1    0    0  503  502  0.00000000000E+00  0.00000000000E+00  0.20062322408E+04  0.20062322408E+04  0.00000000000E+00 0.  1.
         21   -1    0    0  501  503 -0.00000000000E+00 -0.00000000000E+00 -0.86656682443E+02  0.86656682443E+02  0.00000000000E+00 0.  1.
          6    2    1    2  501    0 -0.65779751845E+02 -0.32103986817E+02  0.25116940100E+02  0.18924427099E+03  0.17269884684E+03 0.  0.
         24    2    3    3    0    0 -0.36999671597E+02 -0.66776295888E+02 -0.24390749674E+02  0.12213567704E+03  0.92163797369E+02 0.  0.
         -6    2    1    2    0  502  0.65779751845E+02  0.32103986817E+02  0.18944586183E+04  0.19036446522E+04  0.17184837514E+03 0.  0.
        -24    2    5    5    0    0  0.10532849731E+03  0.86377341087E+01  0.16147601923E+04  0.16201520284E+04  0.79204884743E+02 0.  0.
          5    1    3    3  501    0 -0.28780080247E+02  0.34672309071E+02  0.49507689774E+02  0.67108593952E+02  0.47000000000E+01 0. -1.
        -11    1    4    4    0    0  0.68895805088E+01 -0.49258239491E+02 -0.48164570091E+02  0.69236307595E+02  0.00000000000E+00 0.  1.
         12    1    4    4    0    0 -0.43889252106E+02 -0.17518056397E+02  0.23773820417E+02  0.52899369444E+02  0.00000000000E+00 0. -1.
         -5    1    5    5    0  502 -0.39548745461E+02  0.23466252708E+02  0.27969842598E+03  0.28349262385E+03  0.47000000000E+01 0.  1.
         11    1    6    6    0    0  0.71257184821E+02  0.15235523336E+02  0.14473213173E+04  0.14491544787E+04  0.00000000000E+00 0. -1.
        -12    1    6    6    0    0  0.34071312485E+02 -0.65977892275E+01  0.16743887497E+03  0.17099754972E+03  0.00000000000E+00 0.  1.
</event>
<event>
12    1  0.8747122E-002  0.2387898E+03  0.7818608E-02  0.1121560E+00
         21   -1    0    0  501  502  0.00000000000E+00  0.00000000000E+00  0.19321687951E+03  0.19321687951E+03  0.00000000000E+00 0. -1.
         21   -1    0    0  502  503 -0.00000000000E+00 -0.00000000000E+00 -0.34032776060E+03  0.34032776060E+03  0.00000000000E+00 0.  1.
         -6    2    1    2    0  503  0.58380953307E+02 -0.14668662970E+03  0.30125299561E+02  0.24068259385E+03  0.17915153996E+03 0.  0.
        -24    2    3    3    0    0  0.33898661592E+02 -0.17831790736E+03  0.17823565399E+02  0.19857151458E+03  0.78527521126E+02 0.  0.
          6    2    1    2  501    0 -0.58380953307E+02  0.14668662970E+03 -0.17723618065E+03  0.29286204625E+03  0.17155235749E+03 0.  0.
         24    2    5    5    0    0 -0.63805865140E+01  0.19463447803E+01 -0.82825176439E+02  0.11233693459E+03  0.75598127476E+02 0.  0.
          5    1    5    5  501    0 -0.52000366793E+02  0.14474028492E+03 -0.94411004212E+02  0.18052511166E+03  0.47000000000E+01 0. -1.
        -13    1    6    6    0    0 -0.25273203867E+02 -0.26655299176E+02 -0.62475079691E+02  0.72473273628E+02  0.00000000000E+00 0.  1.
         14    1    6    6    0    0  0.18892617353E+02  0.28601643956E+02 -0.20350096748E+02  0.39863660959E+02  0.00000000000E+00 0. -1.
         -5    1    3    3    0  503  0.24482291715E+02  0.31631277666E+02  0.12301734162E+02  0.42111079276E+02  0.47000000000E+01 0.  1.
         11    1    4    4    0    0 -0.17472685097E+01  0.79409156150E+01  0.71098191945E+00  0.81618982681E+01  0.00000000000E+00 0. -1.
        -12    1    4    4    0    0  0.35645930101E+02 -0.18625882298E+03  0.17112583480E+02  0.19040961631E+03  0.00000000000E+00 0.  1.
</event>
<event>
12    1  0.8747122E-002  0.2234803E+03  0.7818608E-02  0.1131797E+00
         21   -1    0    0  503  502  0.00000000000E+00  0.00000000000E+00  0.23964942944E+03  0.23964942944E+03  0.00000000000E+00 0. -1.
         21   -1    0    0  501  503 -0.00000000000E+00 -0.00000000000E+00 -0.20988998290E+03  0.20988998290E+03  0.00000000000E+00 0. -1.
          6    2    1    2  501    0 -0.13487280743E+03  0.56094972937E+02 -0.15783979375E+02  0.22403701548E+03  0.16913346838E+03 0.  0.
         24    2    3    3    0    0 -0.15171508379E+03  0.73310696086E+02  0.76350772183E+01  0.19011673234E+03  0.87716319466E+02 0.  0.
         -6    2    1    2    0  502  0.13487280743E+03 -0.56094972937E+02  0.45543425913E+02  0.22550239686E+03  0.16564965190E+03 0.  0.
        -24    2    5    5    0    0  0.97036566318E+02  0.64305757693E+01 -0.18778228281E+02  0.12803244980E+03  0.81130998000E+02 0.  0.
          5    1    3    3  501    0  0.16842276359E+02 -0.17215723149E+02 -0.23419056593E+02  0.33920283139E+02  0.47000000000E+01 0. -1.
        -13    1    4    4    0    0 -0.57904139322E+02  0.13763681577E+02  0.43095329364E+02  0.73481533015E+02  0.00000000000E+00 0.  1.
         14    1    4    4    0    0 -0.93810944466E+02  0.59547014509E+02 -0.35460252146E+02  0.11663519932E+03  0.00000000000E+00 0. -1.
         -5    1    5    5    0  502  0.37836241112E+02 -0.62525548707E+02  0.64321654194E+02  0.97469947065E+02  0.47000000000E+01 0.  1.
         11    1    6    6    0    0  0.68878467376E+02 -0.31590460300E+02 -0.26121991358E+02  0.80153346048E+02  0.00000000000E+00 0. -1.
        -12    1    6    6    0    0  0.28158098941E+02  0.38021036070E+02  0.73437630776E+01  0.47879103751E+02  0.00000000000E+00 0.  1.
</event>
<event>
12    1  0.8747122E-002  0.2327827E+03  0.7818608E-02  0.1125355E+00
         21   -1    0    0  503  502  0.00000000000E+00  0.00000000000E+00  0.93566294631E+02  0.93566294631E+02  0.00000000000E+00 0. -1.
         21   -1    0    0  501  503 -0.00000000000E+00 -0.00000000000E+00 -0.68866393748E+03  0.68866393748E+03  0.00000000000E+00 0. -1.
          6    2    1    2  501    0 -0.95840186568E+02  0.11887600747E+03 -0.13707510044E+03  0.27014321821E+03  0.17570124835E+03 0.  0.
         24    2    3    3    0    0 -0.12443500751E+02  0.12230826745E+03 -0.11014496695E+03  0.18231321364E+03  0.77408275555E+02 0.  0.
         -6    2    1    2    0  502  0.95840186568E+02 -0.11887600747E+03 -0.45802254241E+03  0.51208701390E+03  0.17067985803E+03 0.  0.
        -24    2    5    5    0    0  0.73022350304E+02 -0.90854224375E+02 -0.45407352026E+03  0.47543242679E+03  0.79161082066E+02 0.  0.
          5    1    3    3  501    0 -0.83396685817E+02 -0.34322599775E+01 -0.26930133492E+02  0.87830004576E+02  0.47000000000E+01 0. -1.
        -13    1    4    4    0    0  0.30827095947E+02  0.30395483505E+02 -0.39216657929E+02  0.58413538852E+02  0.00000000000E+00 0.  1.
         14    1    4    4    0    0 -0.43270596698E+02  0.91912783947E+02 -0.70928309023E+02  0.12389967479E+03  0.00000000000E+00 0. -1.
         -5    1    5    5    0  502  0.22817836265E+02 -0.28021783100E+02 -0.39490221460E+01  0.36654587105E+02  0.47000000000E+01 0.  1.
         13    1    6    6    0    0  0.81623441280E+02 -0.64929415682E+02 -0.27181404924E+03  0.29113758354E+03  0.00000000000E+00 0. -1.
        -14    1    6    6    0    0 -0.86010909760E+01 -0.25924808693E+02 -0.18225947102E+03  0.18429484325E+03  0.00000000000E+00 0.  1.
</event>
<event>
12    1  0.8747122E-002  0.2280674E+03  0.7818608E-02  0.1129244E+00
         21   -1    0    0  503  502  0.00000000000E+00  0.00000000000E+00  0.11887205270E+04  0.11887205270E+04  0.00000000000E+00 0.  1.
         21   -1    0    0  501  503 -0.00000000000E+00 -0.00000000000E+00 -0.43317540679E+02  0.43317540679E+02  0.00000000000E+00 0. -1.
          6    2    1    2  501    0  0.10604654663E+03 -0.90994577110E+02  0.65108869683E+03  0.68764724513E+03  0.17151198057E+03 0.  0.
         24    2    3    3    0    0  0.34872802003E+01 -0.85608316526E+02  0.31559323993E+03  0.33675309224E+03  0.80390341839E+02 0.  0.
         -6    2    1    2    0  502 -0.10604654663E+03  0.90994577110E+02  0.49431428952E+03  0.54439082258E+03  0.18024668587E+03 0.  0.
        -24    2    5    5    0    0 -0.10160766870E+02  0.68706957046E+02  0.37426789746E+03  0.38907164471E+03  0.80476074179E+02 0.  0.
          5    1    3    3  501    0  0.10255926643E+03 -0.53862605837E+01  0.33549545691E+03  0.35089415290E+03  0.47000000000E+01 0. -1.
        -13    1    4    4    0    0  0.44111903173E+01 -0.93667394313E+02  0.31495307718E+03  0.32861600719E+03  0.00000000000E+00 0.  1.
         14    1    4    4    0    0 -0.92391011706E+00  0.80590777868E+01  0.64016274745E+00  0.81370850445E+01  0.00000000000E+00 0. -1.
         -5    1    5    5    0  502 -0.95885779757E+02  0.22287620064E+02  0.12004639206E+03  0.15531917787E+03  0.47000000000E+01 0.  1.
         11    1    6    6    0    0 -0.27868771553E+02  0.66179438530E+01  0.43654350045E+02  0.52212717671E+02  0.00000000000E+00 0. -1.
        -12    1    6    6    0    0  0.17708004682E+02  0.62089013193E+02  0.33061354742E+03  0.33685892704E+03  0.00000000000E+00 0.  1.
</event>
<event>
12    1  0.8747122E-002  0.2849510E+03  0.7818608E-02  0.1093090E+00
         21   -1    0    0  503  502  0.00000000000E+00  0.00000000000E+00  0.11572635500E+04  0.11572635500E+04  0.00000000000E+00 0. -1.
         21   -1    0    0  501  503 -0.00000000000E+00 -0.00000000000E+00 -0.70187618066E+02  0.70187618066E+02  0.00000000000E+00 0. -1.
          6    2    1    2  501    0  0.21432005202E+03 -0.72303741877E+02  0.57353417263E+03  0.64042055895E+03  0.17330934586E+03 0.  0.
         24    2    3    3    0    0  0.44919394996E+02 -0.17772982594E+01  0.27246695170E+03  0.28781011757E+03  0.81089537999E+02 0.  0.
         -6    2    1    2    0  502 -0.21432005202E+03  0.72303741877E+02  0.51354175934E+03  0.58703060915E+03  0.17239165208E+03 0.  0.
        -24    2    5    5    0    0 -0.70139690611E+02  0.81720203006E+02  0.22691400730E+03  0.26601004190E+03  0.87599131885E+02 0.  0.
          5    1    3    3  501    0  0.16940065702E+03 -0.70526443617E+02  0.30106722093E+03  0.35261044138E+03  0.47000000000E+01 0. -1.
        -13    1    4    4    0    0 -0.21176204799E+02 -0.11613717560E+02  0.50065618842E+02  0.55586655550E+02  0.00000000000E+00 0.  1.
         14    1    4    4    0    0  0.66095599795E+02  0.98364193005E+01  0.22240133286E+03  0.23222346202E+03  0.00000000000E+00 0. -1.
         -5    1    5    5    0  502 -0.14418036141E+03 -0.94164611295E+01  0.28662775204E+03  0.32102056725E+03  0.47000000000E+01 0.  1.
         11    1    6    6    0    0 -0.41939411592E+02 -0.27413138358E+01  0.35953325864E+02  0.55308866260E+02  0.00000000000E+00 0. -1.
        -12    1    6    6    0    0 -0.28200279019E+02  0.84461516842E+02  0.19096068143E+03  0.21070117564E+03  0.00000000000E+00 0.  1.
</event>
<event>
12    1  0.8747122E-002  0.3619065E+03  0.7818608E-02  0.1057838E+00
         21   -1    0    0  501  502  0.00000000000E+00  0.00000000000E+00  0.73261310132E+02  0.73261310132E+02  0.00000000000E+00 0.  1.
         21   -1    0    0  502  503 -0.00000000000E+00 -0.00000000000E+00 -0.26718585643E+04  0.26718585643E+04  0.00000000000E+00 0.  1.
         -6    2    1    2    0  503  0.15622245042E+03 -0.27743462042E+03 -0.20888923317E+04  0.21199995440E+04  0.17190541234E+03 0.  0.
        -24    2    3    3    0    0  0.18981789253E+01 -0.88077983533E+02 -0.82536917274E+03  0.83307111563E+03  0.70794619246E+02 0.  0.
          6    2    1    2  501    0 -0.15622245042E+03  0.27743462042E+03 -0.50970492252E+03  0.62512033042E+03  0.17204911169E+03 0.  0.
         24    2    5    5    0    0 -0.22029521342E+02  0.10495617270E+03 -0.21691830928E+03  0.25974018859E+03  0.94394463144E+02 0.  0.
          5    1    5    5  501    0 -0.13419292908E+03  0.17247844773E+03 -0.29278661325E+03  0.36538014183E+03  0.47000000000E+01 0. -1.
        -11    1    6    6    0    0 -0.26587000532E+02  0.12217279126E+03 -0.18818437122E+03  0.22593454162E+03  0.00000000000E+00 0.  1.
         12    1    6    6    0    0  0.45574791902E+01 -0.17216618566E+02 -0.28733938051E+02  0.33805646974E+02  0.00000000000E+00 0. -1.
         -5    1    3    3    0  503  0.15432427149E+03 -0.18935663689E+03 -0.12635231589E+04  0.12869284284E+04  0.47000000000E+01 0.  1.
         11    1    4    4    0    0 -0.44372358507E+01 -0.77653994311E+01 -0.88329531181E+01  0.12570264560E+02  0.00000000000E+00 0. -1.
        -12    1    4    4    0    0  0.63354147760E+01 -0.80312584102E+02 -0.81653621962E+03  0.82050085107E+03  0.00000000000E+00 0.  1.
</event>
<event>
12    1  0.8747122E-002  0.1922750E+03  0.7818608E-02  0.1156743E+00
         21   -1    0    0  503  502  0.00000000000E+00  0.00000000000E+00  0.17201983394E+04  0.17201983394E+04  0.00000000000E+00 0.  1.
         21   -1    0    0  501  503 -0.00000000000E+00 -0.00000000000E+00 -0.21979050096E+02  0.21979050096E+02  0.00000000000E+00 0.  1.
          6    2    1    2  501    0 -0.86082576412E+02 -0.11330394368E+01  0.10015902701E+04  0.10198787816E+04  0.17192488560E+03 0.  0.
         24    2    3    3    0    0 -0.68081222601E+02  0.11289459981E+02  0.30097811201E+03  0.31890955740E+03  0.79705565145E+02 0.  0.
         -6    2    1    2    0  502  0.86082576412E+02  0.11330394368E+01  0.69662901926E+03  0.72229860794E+03  0.17032849091E+03 0.  0.
        -24    2    5    5    0    0  0.28396415018E+02 -0.64914641355E+02  0.36374299520E+03  0.37802374048E+03  0.74650617918E+02 0.  0.
          5    1    3    3  501    0 -0.18001353811E+02 -0.12422499418E+02  0.70061215806E+03  0.70096922418E+03  0.47000000000E+01 0. -1.
        -11    1    4    4    0    0 -0.20778862306E+02 -0.31433291244E+02  0.15691368122E+03  0.16137445979E+03  0.00000000000E+00 0.  1.
         12    1    4    4    0    0 -0.47302360295E+02  0.42722751225E+02  0.14406443079E+03  0.15753509761E+03  0.00000000000E+00 0. -1.
         -5    1    5    5    0  502  0.57686161394E+02  0.66047680792E+02  0.33288602406E+03  0.34427486747E+03  0.47000000000E+01 0.  1.
         13    1    6    6    0    0 -0.73005022415E+00 -0.94245765494E+01  0.55571260127E+00  0.94691305282E+01  0.00000000000E+00 0. -1.
        -14    1    6    6    0    0  0.29126465242E+02 -0.55490064806E+02  0.36318728260E+03  0.36855460995E+03  0.00000000000E+00 0.  1.
</event>
<event>
12    1  0.8747122E-002  0.1966660E+03  0.7818608E-02  0.1152682E+00
         21   -1    0    0  501  502  0.00000000000E+00  0.00000000000E+00  0.17399595808E+03  0.17399595808E+03  0.00000000000E+00 0. -1.
         21   -1    0    0  502  503 -0.00000000000E+00 -0.00000000000E+00 -0.22186523872E+03  0.22186523872E+03  0.00000000000E+00 0. -1.
         -6    2    1    2    0  503  0.39626941390E+02  0.86480772164E+02 -0.19913805279E+02  0.19767161904E+03  0.17212870445E+03 0.  0.
        -24    2    3    3    0    0 -0.39487594994E+02  0.18838111085E+02 -0.21865298096E+02  0.93457715034E+02  0.79637357131E+02 0.  0.
          6    2    1    2  501    0 -0.39626941390E+02 -0.86480772164E+02 -0.27955475359E+02  0.19818957775E+03  0.17160530787E+03 0.  0.
         24    2    5    5    0    0 -0.58570225805E-01 -0.95033596623E+02 -0.67641873527E+02  0.14130454455E+03  0.79750632210E+02 0.  0.
          5    1    5    5  501    0 -0.39568371164E+02  0.85528244595E+01  0.39686398168E+02  0.56885033202E+02  0.47000000000E+01 0. -1.
        -11    1    6    6    0    0  0.21056214808E+02 -0.26372642252E+02 -0.60293395122E+02  0.69095397363E+02  0.00000000000E+00 0.  1.
         12    1    6    6    0    0 -0.21114785034E+02 -0.68660954371E+02 -0.73484784042E+01  0.72209147184E+02  0.00000000000E+00 0. -1.
         -5    1    3    3    0  503  0.79114536384E+02  0.67642661079E+02  0.19514928170E+01  0.10421390401E+03  0.47000000000E+01 0.  1.
         13    1    4    4    0    0  0.22225603966E+02  0.43569543189E+01 -0.19722146406E+02  0.30032042579E+02  0.00000000000E+00 0. -1.
        -14    1    4    4    0    0 -0.61713198960E+02  0.14481156766E+02 -0.21431516894E+01  0.63425672455E+02  0.00000000000E+00 0.  1.
</event>
<event>
12    1  0.8747122E-002  0.2084491E+03  0.7818608E-02  0.1143026E+00
         21   -1    0    0  501  502  0.00000000000E+00  0.00000000000E+00  0.24974967289E+03  0.24974967289E+03  0.00000000000E+00 0. -1.
         21   -1    0    0  502  503 -0.00000000000E+00 -0.00000000000E+00 -0.40696471982E+03  0.40696471982E+03  0.00000000000E+00 0.  1.
         -6    2    1    2    0  503 -0.44303137055E+02 -0.10674266283E+03  0.17043022327E+03  0.26838147461E+03  0.17212028029E+03 0.  0.
        -24    2    3    3    0    0 -0.71454812131E+02 -0.11309303234E+03  0.81845961468E+02  0.17539329207E+03  0.78538024885E+02 0.  0.
          6    2    1    2  501    0  0.44303137055E+02  0.10674266283E+03 -0.32764527020E+03  0.38833291810E+03  0.17347699610E+03 0.  0.
         24    2    5    5    0    0  0.77685849304E+02  0.91281644934E+02 -0.31864740537E+03  0.35016879721E+03  0.81942587893E+02 0.  0.
          5    1    5    5  501    0 -0.33382712249E+02  0.15461017898E+02 -0.89978648292E+01  0.38164120886E+02  0.47000000000E+01 0. -1.
        -11    1    6    6    0    0  0.13481931512E+02  0.26517064432E+02 -0.19093659523E+03  0.19324000772E+03  0.00000000000E+00 0.  1.
         12    1    6    6    0    0  0.64203917792E+02  0.64764580502E+02 -0.12771081013E+03  0.15692878950E+03  0.00000000000E+00 0. -1.
         -5    1    3    3    0  503  0.27151675077E+02  0.63503695122E+01  0.88584261805E+02  0.92988182540E+02  0.47000000000E+01 0.  1.
         13    1    4    4    0    0 -0.23220474146E+02 -0.75591075485E+02  0.82519075535E+02  0.11429172735E+03  0.00000000000E+00 0. -1.
        -14    1    4    4    0    0 -0.48234337985E+02 -0.37501956859E+02 -0.67311406691E+00  0.61101564724E+02  0.00000000000E+00 0.  1.
</event>
<event>
12    1  0.8747122E-002  0.1906843E+03  0.7818608E-02  0.1158005E+00
         21   -1    0    0  503  502  0.00000000000E+00  0.00000000000E+00  0.84847287030E+03  0.84847287030E+03  0.00000000000E+00 0. -1.
         21   -1    0    0  501  503 -0.00000000000E+00 -0.00000000000E+00 -0.19691309178E+03  0.19691309178E+03  0.00000000000E+00 0. -1.
          6    2    1    2  501    0 -0.80863956961E+02 -0.97365227503E+01 -0.13665831198E+03  0.23459751517E+03  0.17241438593E+03 0.  0.
         24    2    3    3    0    0 -0.10352152447E+03 -0.51165593091E+02 -0.11853544955E+03  0.18380124191E+03  0.79985122247E+02 0.  0.
         -6    2    1    2    0  502  0.80863956961E+02  0.97365227503E+01  0.78821809050E+03  0.81078844691E+03  0.17162857580E+03 0.  0.
        -24    2    5    5    0    0  0.81208835769E+02 -0.40459685863E+02  0.68546595824E+03  0.69633378782E+03  0.82372950521E+02 0.  0.
          5    1    3    3  501    0  0.22657567505E+02  0.41429070341E+02 -0.18122862431E+02  0.50796273261E+02  0.47000000000E+01 0. -1.
        -11    1    4    4    0    0 -0.79870768364E+01 -0.23093159604E+02  0.51937031603E+01  0.24981232344E+02  0.00000000000E+00 0.  1.
         12    1    4    4    0    0 -0.95534447630E+02 -0.28072433487E+02 -0.12372915271E+03  0.15882000956E+03  0.00000000000E+00 0. -1.
         -5    1    5    5    0  502 -0.34487880783E+00  0.50196208614E+02  0.10275213227E+03  0.11445465908E+03  0.47000000000E+01 0.  1.
         11    1    6    6    0    0  0.37283979530E+02  0.20995759966E+02  0.34153713105E+03  0.34420710183E+03  0.00000000000E+00 0. -1.
        -12    1    6    6    0    0  0.43924856239E+02 -0.61455445829E+02  0.34392882719E+03  0.35212668599E+03  0.00000000000E+00 0.  1.
</event>
<event>
12    1  0.8747122E-002  0.4818540E+03  0.7818608E-02  0.1018686E+00
         21   -1    0    0  501  502  0.00000000000E+00  0.00000000000E+00  0.23739445827E+04  0.23739445827E+04  0.00000000000E+00 0. -1.
         21   -1    0    0  502  503 -0.00000000000E+00 -0.00000000000E+00 -0.19377793370E+03  0.19377793370E+03  0.00000000000E+00 0.  1.
         -6    2    1    2    0  503 -0.26422027644E+03 -0.36295090555E+03  0.18524214441E+03  0.51542939011E+03  0.17264729888E+03 0.  0.
        -24    2    3    3    0    0 -0.53746826756E+02 -0.67447887033E+02  0.52733251196E+02  0.12916289693E+03  0.80400990736E+02 0.  0.
          6    2    1    2  501    0  0.26422027644E+03  0.36295090555E+03  0.19949245046E+04  0.20522931263E+04  0.17503594745E+03 0.  0.
         24    2    5    5    0    0  0.10839489247E+03  0.14123006856E+03  0.59860228836E+03  0.62990798106E+03  0.82243419160E+02 0.  0.
          5    1    5    5  501    0  0.15582538397E+03  0.22172083698E+03  0.13963222162E+04  0.14223851452E+04  0.47000000000E+01 0. -1.
        -13    1    6    6    0    0  0.12101475572E+02  0.70662418704E+02  0.15959148597E+03  0.17495446700E+03  0.00000000000E+00 0.  1.
         14    1    6    6    0    0  0.96293416894E+02  0.70567649858E+02  0.43901080239E+03  0.45495351406E+03  0.00000000000E+00 0. -1.
         -5    1    3    3    0  503 -0.21047344968E+03 -0.29550301851E+03  0.13250889321E+03  0.38626649318E+03  0.47000000000E+01 0.  1.
         11    1    4    4    0    0 -0.68566048221E+02 -0.33735999483E+02  0.17925050607E+02  0.78490305574E+02  0.00000000000E+00 0. -1.
        -12    1    4    4    0    0  0.14819221465E+02 -0.33711887550E+02  0.34808200589E+02  0.50672591361E+02  0.00000000000E+00 0.  1.
</event>
<event>
12    1  0.8747122E-002  0.1842718E+03  0.7818608E-02  0.1163873E+00
         21   -1    0    0  503  502  0.00000000000E+00  0.00000000000E+00  0.11812855963E+04  0.11812855963E+04  0.00000000000E+00 0.  1.
         21   -1    0    0  501  503 -0.00000000000E+00 -0.00000000000E+00 -0.73556986660E+02  0.73556986660E+02  0.00000000000E+00 0.  1.
          6    2    1    2  501    0 -0.63653860790E+02  0.31663559956E+01  0.63989064220E+02  0.19506584078E+03  0.17289951444E+03 0.  0.
         24    2    3    3    0    0 -0.64269484294E+02 -0.39850817922E+02  0.92258794438E+02  0.14337325049E+03  0.79533323231E+02 0.  0.
         -6    2    1    2    0  502  0.63653860790E+02 -0.31663559956E+01  0.10437395454E+04  0.10597767422E+04  0.17225755367E+03 0.  0.
        -24    2    5    5    0    0 -0.26067064670E+02 -0.34452540117E+01  0.67592973208E+03  0.68115282451E+03  0.79980034914E+02 0.  0.
          5    1    3    3  501    0  0.61562350460E+00  0.43017173918E+02 -0.28269730218E+02  0.51692590289E+02  0.47000000000E+01 0. -1.
        -13    1    4    4    0    0 -0.59201988425E+02  0.94134896081E+01  0.45439810915E+02  0.75221443991E+02  0.00000000000E+00 0.  1.
         14    1    4    4    0    0 -0.50674958691E+01 -0.49264307530E+02  0.46818983523E+02  0.68151806498E+02  0.00000000000E+00 0. -1.
         -5    1    5    5    0  502  0.89720925460E+02  0.27889801614E+00  0.36780981335E+03  0.37862391769E+03  0.47000000000E+01 0.  1.
         11    1    6    6    0    0 -0.52496722945E+02 -0.10250681843E+02  0.53006427710E+03  0.53275615459E+03  0.00000000000E+00 0. -1.
        -12    1    6    6    0    0  0.26429658276E+02  0.68054278317E+01  0.14586545499E+03  0.14839666992E+03  0.00000000000E+00 0.  1.
</event>
<event>
12    1  0.8747122E-002  0.1827715E+03  0.7818608E-02  0.1165208E+00
         21   -1    0    0  501  502  0.00000000000E+00  0.00000000000E+00  0.58251907915E+02  0.58251907915E+02  0.00000000000E+00 0.  1.
         21   -1    0    0  502  503 -0.00000000000E+00 -0.00000000000E+00 -0.71494328700E+03  0.71494328700E+03  0.00000000000E+00 0.  1.
         -6    2    1    2    0  503  0.10312959420E+02 -0.63041546166E+02 -0.50099480266E+03  0.53329280564E+03  0.17124494322E+03 0.  0.
        -24    2    3    3    0    0 -0.15183278103E+02 -0.82350963470E+02 -0.20220456117E+03  0.23275893046E+03  0.79232708082E+02 0.  0.
          6    2    1    2  501    0 -0.10312959420E+02  0.63041546166E+02 -0.15569657642E+03  0.23990238927E+03  0.17097116363E+03 0.  0.
         24    2    5    5    0    0  0.66288105186E+01  0.61865807474E+02 -0.18234431672E+03  0.20795558985E+03  0.78260834693E+02 0.  0.
          5    1    5    5  501    0 -0.16941769939E+02  0.11757386918E+01  0.26647740300E+02  0.31946799420E+02  0.47000000000E+01 0. -1.
        -13    1    6    6    0    0 -0.19713842559E+02  0.65994498135E+02 -0.15573281388E+03  0.17028393550E+03  0.00000000000E+00 0.  1.
         14    1    6    6    0    0  0.26342653078E+02 -0.41286906606E+01 -0.26611502848E+02  0.37671654351E+02  0.00000000000E+00 0. -1.
         -5    1    3    3    0  503  0.25496237523E+02  0.19309417304E+02 -0.29879024149E+03  0.30053387519E+03  0.47000000000E+01 0.  1.
         13    1    4    4    0    0 -0.43155977022E+02 -0.22613686273E+02 -0.97769901663E+02  0.10923722273E+03  0.00000000000E+00 0. -1.
        -14    1    4    4    0    0  0.27972698919E+02 -0.59737277197E+02 -0.10443465951E+03  0.12352170772E+03  0.00000000000E+00 0.  1.
</event>
<event>
12    1  0.8747122E-002  0.2167833E+03  0.7818608E-02  0.1136324E+00
         21   -1    0    0  501  502  0.00000000000E+00  0.00000000000E+00  0.42912194250E+03  0.42912194250E+03  0.00000000000E+00 0.  1.
         21   -1    0    0  502  503 -0.00000000000E+00 -0.00000000000E+00 -0.11062947878E+03  0.11062947878E+03  0.00000000000E+00 0. -1.
         -6    2    1    2    0  503 -0.47266420729E+02 -0.12325066013E+03  0.18700408383E+03  0.28629624307E+03  0.17195979669E+03 0.  0.
        -24    2    3    3    0    0  0.10954058740E+02 -0.56266877031E+02  0.16950556016E+03  0.19571622453E+03  0.79289045675E+02 0.  0.
          6    2    1    2  501    0  0.47266420729E+02  0.12325066013E+03  0.13148837989E+03  0.25345517822E+03  0.17182983899E+03 0.  0.
         24    2    5    5    0    0  0.46673638936E+02  0.44370309865E+02  0.14038959994E+03  0.17393296266E+03  0.79976763871E+02 0.  0.
          5    1    5    5  501    0  0.59278179225E+00  0.78880350268E+02 -0.89012200499E+01  0.79522215556E+02  0.47000000000E+01 0. -1.
        -13    1    6    6    0    0  0.54217088262E+02  0.88016602528E+01  0.42317857610E+02  0.69338033975E+02  0.00000000000E+00 0.  1.
         14    1    6    6    0    0 -0.75434493258E+01  0.35568649612E+02  0.98071742329E+02  0.10459492868E+03  0.00000000000E+00 0. -1.
         -5    1    3    3    0  503 -0.58220479468E+02 -0.66983783102E+02  0.17498523661E+02  0.90580018539E+02  0.47000000000E+01 0.  1.
         11    1    4    4    0    0 -0.15626794450E+02  0.34598062406E+01  0.22807397050E+01  0.16166902536E+02  0.00000000000E+00 0. -1.
        -12    1    4    4    0    0  0.26580853190E+02 -0.59726683271E+02  0.16722482046E+03  0.17954932199E+03  0.00000000000E+00 0.  1.
</event>
<event>
12    1  0.8747122E-002  0.1857817E+03  0.7818608E-02  0.1162514E+00
         21   -1    0    0  501  502  0.00000000000E+00  0.00000000000E+00  0.24360471751E+03  0.24360471751E+03  0.00000000000E+00 0.  1.
         21   -1    0    0  502  503 -0.00000000000E+00 -0.00000000000E+00 -0.22051535295E+03  0.22051535295E+03  0.00000000000E+00 0.  1.
         -6    2    1    2    0  503  0.66268988229E+02  0.23682028685E+02 -0.12777455820E+03  0.22479859513E+03  0.17104284073E+03 0.  0.
        -24    2    3    3    0    0  0.69537175366E+02  0.39949682990E+02 -0.16942572573E+02  0.11263292898E+03  0.77251084114E+02 0.  0.
          6    2    1    2  501    0 -0.66268988229E+02 -0.23682028685E+02  0.15086392276E+03  0.23932147533E+03  0.17193727950E+03 0.  0.
         24    2    5    5    0    0 -0.37214576132E+02  0.32010498503E+02  0.14780709945E+03  0.17625602825E+03  0.82520616541E+02 0.  0.
          5    1    5    5  501    0 -0.29054412097E+02 -0.55692527188E+02  0.30568233049E+01  0.63065447082E+02  0.47000000000E+01 0. -1.
        -13    1    6    6    0    0 -0.40515737993E+02  0.23757974963E+02  0.25150311740E+02  0.53277618003E+02  0.00000000000E+00 0.  1.
         14    1    6    6    0    0  0.33011618615E+01  0.82525235394E+01  0.12265678771E+03  0.12297841025E+03  0.00000000000E+00 0. -1.
         -5    1    3    3    0  503 -0.32681871369E+01 -0.16267654304E+02 -0.11083198563E+03  0.11216566615E+03  0.47000000000E+01 0.  1.
         11    1    4    4    0    0  0.38031026636E+01 -0.43780452666E+01  0.23095950219E+02  0.23812891188E+02  0.00000000000E+00 0. -1.
        -12    1    4    4    0    0  0.65734072702E+02  0.44327728256E+02 -0.40038522792E+02  0.88820037794E+02  0.00000000000E+00 0.  1.
</event>
<event>
12    1  0.8747122E-002  0.2931070E+03  0.7818608E-02  0.1089017E+00
         21   -1    0    0  503  502  0.00000000000E+00  0.00000000000E+00  0.18604483178E+03  0.18604483178E+03  0.00000000000E+00 0. -1.
         21   -1    0    0  501  503 -0.00000000000E+00 -0.00000000000E+00 -0.93821283443E+03  0.93821283443E+03  0.00000000000E+00 0.  1.
          6    2    1    2  501    0  0.14382963961E+02 -0.23444306708E+03 -0.77740408256E+03  0.83006630887E+03  0.17170482867E+03 0.  0.
         24    2    3    3    0    0 -0.29173099559E+02 -0.20609865291E+03 -0.49557339552E+03  0.54344606772E+03  0.80080669929E+02 0.  0.
         -6    2    1    2    0  502 -0.14382963961E+02  0.23444306708E+03  0.25236079904E+02  0.29419135734E+03  0.17533189570E+03 0.  0.
        -24    2    5    5    0    0 -0.42772946827E+02  0.16672372530E+03  0.78530438602E+02  0.20333829439E+03  0.74519169482E+02 0.  0.
          5    1    3    3  501    0  0.43556063519E+02 -0.28344414164E+02 -0.28183068704E+03  0.28662024115E+03  0.47000000000E+01 0. -1.
        -13    1    4    4    0    0  0.23929693830E+02 -0.10800555183E+03 -0.27056532708E+03  0.29230707430E+03  0.00000000000E+00 0.  1.
         14    1    4    4    0    0 -0.53102793389E+02 -0.98093101084E+02 -0.22500806845E+03  0.25113899341E+03  0.00000000000E+00 0. -1.
         -5    1    5    5    0  502  0.28389982867E+02  0.67719341779E+02 -0.53294358698E+02  0.90853062949E+02  0.47000000000E+01 0.  1.
         11    1    6    6    0    0  0.62651096784E+01  0.56963746287E+02  0.57714231304E+02  0.81332972928E+02  0.00000000000E+00 0. -1.
        -12    1    6    6    0    0 -0.49038056505E+02  0.10975997901E+03  0.20816207298E+02  0.12200532146E+03  0.00000000000E+00 0.  1.
</event>
<event>
12    1  0.8747122E-002  0.1813138E+03  0.7818608E-02  0.1166583E+00
         21   -1    0    0  501  502  0.00000000000E+00  0.00000000000E+00  0.26457341672E+03  0.26457341672E+03  0.00000000000E+00 0. -1.
         21   -1    0    0  502  503 -0.00000000000E+00 -0.00000000000E+00 -0.27633716144E+03  0.27633716144E+03  0.00000000000E+00 0. -1.
         -6    2    1    2    0  503  0.50449904002E+02 -0.27245295761E+02 -0.20660468175E+03  0.27475705874E+03  0.17180933576E+03 0.  0.
        -24    2    3    3    0    0 -0.35002087083E+02 -0.78514299206E+01 -0.76312208178E+02  0.11766987441E+03  0.82072255818E+02 0.  0.
          6    2    1    2  501    0 -0.50449904002E+02  0.27245295761E+02  0.19484093703E+03  0.26615351941E+03  0.17200932009E+03 0.  0.
         24    2    5    5    0    0 -0.73956157360E+02  0.20860860337E+02  0.20999969239E+03  0.23708149116E+03  0.78759595855E+02 0.  0.
          5    1    5    5  501    0  0.23506253358E+02  0.63844354239E+01 -0.15158755362E+02  0.29072028253E+02  0.47000000000E+01 0. -1.
        -13    1    6    6    0    0 -0.29197717106E+01 -0.24347182942E+02  0.33397084178E+02  0.41432784310E+02  0.00000000000E+00 0.  1.
         14    1    6    6    0    0 -0.71036385649E+02  0.45208043280E+02  0.17660260821E+03  0.19564870685E+03  0.00000000000E+00 0. -1.
         -5    1    3    3    0  503  0.85451991085E+02 -0.19393865841E+02 -0.13029247357E+03  0.15708718433E+03  0.47000000000E+01 0.  1.
         11    1    4    4    0    0  0.69311396033E+00  0.37635612663E+01 -0.79872409901E+02  0.79964033563E+02  0.00000000000E+00 0. -1.
        -12    1    4    4    0    0 -0.35695201043E+02 -0.11614991187E+02  0.35602017222E+01  0.37705840848E+02  0.00000000000E+00 0.  1.
</event>
<event>
12    1  0.8747122E-002  0.2246884E+03  0.7818608E-02  0.1131727E+00
         21   -1    0    0  501  502  0.00000000000E+00  0.00000000000E+00  0.25240068813E+03  0.25240068813E+03  0.00000000000E+00 0.  1.
         21   -1    0    0  502  503 -0.00000000000E+00 -0.00000000000E+00 -0.20707994858E+03  0.20707994858E+03  0.00000000000E+00 0. -1.
         -6    2    1    2    0  503  0.13139817175E+03  0.21962010637E+02  0.81091246477E+02  0.23887377715E+03  0.18093391530E+03 0.  0.
        -24    2    3    3    0    0  0.74102554848E+02  0.82954326104E+02  0.31729818070E+02  0.14160358194E+03  0.81683439018E+02 0.  0.
          6    2    1    2  501    0 -0.13139817175E+03 -0.21962010637E+02 -0.35770506933E+02  0.22060685955E+03  0.17216285275E+03 0.  0.
         24    2    5    5    0    0 -0.92246930677E+01  0.21517671329E+02 -0.35995290247E+02  0.90841755753E+02  0.80052848337E+02 0.  0.
          5    1    5    5  501    0 -0.12217347868E+03 -0.43479681966E+02  0.22478331394E+00  0.12976510380E+03  0.47000000000E+01 0. -1.
        -11    1    6    6    0    0  0.18515252441E+02  0.34888056870E+02  0.47363050686E+01  0.39779689175E+02  0.00000000000E+00 0.  1.
         12    1    6    6    0    0 -0.27739945509E+02 -0.13370385541E+02 -0.40731595315E+02  0.51062066579E+02  0.00000000000E+00 0. -1.
         -5    1    3    3    0  503  0.57295616899E+02 -0.60992315467E+02  0.49361428407E+02  0.97270195211E+02  0.47000000000E+01 0.  1.
         11    1    4    4    0    0  0.82240867873E+02  0.93437279051E+02  0.31180067874E+02  0.12832101191E+03  0.00000000000E+00 0. -1.
        -12    1    4    4    0    0 -0.81383130254E+01 -0.10482952947E+02  0.54975019566E+00  0.13282570032E+02  0.00000000000E+00 0.  1.
</event>
<event>
12    1  0.8747122E-002  0.1990308E+03  0.7818608E-02  0.1150683E+00
         21   -1    0    0  503  502  0.00000000000E+00  0.00000000000E+00  0.13735883509E+03  0.13735883509E+03  0.00000000000E+00 0. -1.
         21   -1    0    0  501  503 -0.00000000000E+00 -0.00000000000E+00 -0.30071377050E+03  0.30071377050E+03  0.00000000000E+00 0. -1.
          6    2    1    2  501    0  0.96527903670E+02 -0.19291143407E+02 -0.12739624601E+03  0.23581953929E+03  0.17231154114E+03 0.  0.
         24    2    3    3    0    0  0.24048800479E+01  0.35708581124E+02 -0.69903459633E+02  0.11248412766E+03  0.80531354722E+02 0.  0.
         -6    2    1    2    0  502 -0.96527903670E+02  0.19291143407E+02 -0.35958689393E+02  0.20225306631E+03  0.17298407755E+03 0.  0.
        -24    2    5    5    0    0 -0.51048301208E+02 -0.55474505151E+02 -0.23754990569E+02  0.11376964012E+03  0.81828367077E+02 0.  0.
          5    1    3    3  501    0  0.94123023622E+02 -0.54999724531E+02 -0.57492786382E+02  0.12333541162E+03  0.47000000000E+01 0. -1.
        -13    1    4    4    0    0  0.71284357518E+01 -0.89095764710E+00 -0.74900521009E+02  0.75244245290E+02  0.00000000000E+00 0.  1.
         14    1    4    4    0    0 -0.47235557039E+01  0.36599538771E+02  0.49970613760E+01  0.37239882373E+02  0.00000000000E+00 0. -1.
         -5    1    5    5    0  502 -0.45479602463E+02  0.74765648558E+02 -0.12203698824E+02  0.88483426185E+02  0.47000000000E+01 0.  1.
         13    1    6    6    0    0 -0.52924760469E+02 -0.36313603111E+02 -0.49900472563E+02  0.81300462505E+02  0.00000000000E+00 0. -1.
        -14    1    6    6    0    0  0.18764592608E+01 -0.19160902040E+02  0.26145481995E+02  0.32469177616E+02  0.00000000000E+00 0.  1.
</event>
<event>
12    1  0.8747122E-002  0.2860799E+03  0.7818608E-02  0.1092629E+00
         21   -1    0    0  501  502  0.00000000000E+00  0.00000000000E+00  0.22702879349E+03  0.22702879349E+03  0.00000000000E+00 0.  1.
         21   -1    0    0  502  503 -0.00000000000E+00 -0.00000000000E+00 -0.35853939967E+03  0.35853939967E+03  0.00000000000E+00 0.  1.
         -6    2    1    2    0  503  0.17998794687E+03  0.13890126465E+03 -0.61572303937E+02  0.29263095573E+03  0.17364476755E+03 0.  0.
        -24    2    3    3    0    0  0.10888594573E+03  0.15715294937E+03 -0.69631921421E+02  0.21863321255E+03  0.79991740052E+02 0.  0.
          6    2    1    2  501    0 -0.17998794687E+03 -0.13890126465E+03 -0.69938302245E+02  0.29293723743E+03  0.17097261948E+03 0.  0.
         24    2    5    5    0    0 -0.12982191768E+03 -0.11055166082E+03 -0.11318591680E+03  0.22073767589E+03  0.82696250057E+02 0.  0.
          5    1    5    5  501    0 -0.50166029193E+02 -0.28349603834E+02  0.43247614557E+02  0.72199561546E+02  0.47000000000E+01 0. -1.
        -11    1    6    6    0    0 -0.81546165649E+02 -0.54103849255E+02 -0.17187930730E+02  0.99360095607E+02  0.00000000000E+00 0.  1.
         12    1    6    6    0    0 -0.48275752031E+02 -0.56447811561E+02 -0.95997986072E+02  0.12137758028E+03  0.00000000000E+00 0. -1.
         -5    1    3    3    0  503  0.71102001144E+02 -0.18251684719E+02  0.80596174842E+01  0.73997743180E+02  0.47000000000E+01 0.  1.
         13    1    4    4    0    0  0.43471433049E+02  0.63660293249E+02 -0.70589820389E+02  0.10452426116E+03  0.00000000000E+00 0. -1.
        -14    1    4    4    0    0  0.65414512680E+02  0.93492656120E+02  0.95789896818E+00  0.11410895139E+03  0.00000000000E+00 0.  1.
</event>
<event>
12    1  0.8747122E-002  0.1789183E+03  0.7818608E-02  0.1168935E+00
         21   -1    0    0  503  502  0.00000000000E+00  0.00000000000E+00  0.20861552373E+03  0.20861552373E+03  0.00000000000E+00 0.  1.
         21   -1    0    0  501  503 -0.00000000000E+00 -0.00000000000E+00 -0.15925343351E+03  0.15925343351E+03  0.00000000000E+00 0.  1.
          6    2    1    2  501    0 -0.47680677355E+02 -0.96929734827E+01  0.60622349724E+02  0.18859662429E+03  0.17183194313E+03 0.  0.
         24    2    3    3    0    0 -0.45924697376E+02 -0.29126480507E+02 -0.25697621427E+02  0.99973985647E+02  0.79856122893E+02 0.  0.
         -6    2    1    2    0  502  0.47680677355E+02  0.96929734827E+01 -0.11260259510E+02  0.17927233294E+03  0.17217541981E+03 0.  0.
        -24    2    5    5    0    0 -0.21771199013E+02  0.13603701807E+02 -0.52077204528E+02  0.98482668212E+02  0.79547186609E+02 0.  0.
          5    1    3    3  501    0 -0.17559799795E+01  0.19433507024E+02  0.86319971151E+02  0.88622638645E+02  0.47000000000E+01 0. -1.
        -13    1    4    4    0    0 -0.65964202941E+02 -0.35556580965E+02 -0.15231045518E+02  0.76469152390E+02  0.00000000000E+00 0.  1.
         14    1    4    4    0    0  0.20039505566E+02  0.64301004584E+01 -0.10466575909E+02  0.23504833258E+02  0.00000000000E+00 0. -1.
         -5    1    5    5    0  502  0.69451876368E+02 -0.39107283241E+01  0.40816945017E+02  0.80789664733E+02  0.47000000000E+01 0.  1.
         13    1    6    6    0    0 -0.42697559211E+02  0.23764716652E+02 -0.92327088019E+01  0.49730134043E+02  0.00000000000E+00 0. -1.
        -14    1    6    6    0    0  0.20926360198E+02 -0.10161014845E+02 -0.42844495726E+02  0.48752534168E+02  0.00000000000E+00 0.  1.
</event>
<event>
12    1  0.8747122E-002  0.2194535E+03  0.7818608E-02  0.1134620E+00
         21   -1    0    0  503  502  0.00000000000E+00  0.00000000000E+00  0.11096008470E+03  0.11096008470E+03  0.00000000000E+00 0.  1.
         21   -1    0    0  501  503 -0.00000000000E+00 -0.00000000000E+00 -0.44936967393E+03  0.44936967393E+03  0.00000000000E+00 0. -1.
          6    2    1    2  501    0 -0.88443548907E+02 -0.10155072304E+03 -0.22585197762E+03  0.31369429654E+03  0.17105608786E+03 0.  0.
         24    2    3    3    0    0  0.57496920218E+01 -0.53166870946E+02 -0.50993356862E+02  0.10921693586E+03  0.80425378513E+02 0.  0.
         -6    2    1    2    0  502  0.88443548907E+02  0.10155072304E+03 -0.11255761161E+03  0.24663546208E+03  0.17327730529E+03 0.  0.
        -24    2    5    5    0    0  0.11575234166E+03  0.10440507925E+03 -0.12585143089E+03  0.21576908649E+03  0.80116732679E+02 0.  0.
          5    1    3    3  501    0 -0.94193240928E+02 -0.48383852099E+02 -0.17485862076E+03  0.20447736069E+03  0.47000000000E+01 0. -1.
        -13    1    4    4    0    0  0.12459583823E+02  0.18082412321E+02 -0.24512628849E+02  0.32910239098E+02  0.00000000000E+00 0.  1.
         14    1    4    4    0    0 -0.67098918013E+01 -0.71249283266E+02 -0.26480728013E+02  0.76306696757E+02  0.00000000000E+00 0. -1.
         -5    1    5    5    0  502 -0.27308792755E+02 -0.28543562021E+01  0.13293819277E+02  0.30866375590E+02  0.47000000000E+01 0.  1.
         13    1    6    6    0    0  0.96872850414E+01  0.17267207125E+02 -0.60653869952E+02  0.63803541230E+02  0.00000000000E+00 0. -1.
        -14    1    6    6    0    0  0.10606505662E+03  0.87137872121E+02 -0.65197560933E+02  0.15196554526E+03  0.00000000000E+00 0.  1.
</event>
<event>
12    1  0.8747122E-002  0.2067550E+03  0.7818608E-02  0.1144599E+00
         21   -1    0    0  503  502  0.00000000000E+00  0.00000000000E+00  0.13816859434E+03  0.13816859434E+03  0.00000000000E+00 0. -1.
         21   -1    0    0  501  503 -0.00000000000E+00 -0.00000000000E+00 -0.66689981716E+03  0.66689981716E+03  0.00000000000E+00 0. -1.
          6    2    1    2  501    0  0.98349879001E+02 -0.59029681799E+02 -0.56104596226E+03  0.59792994148E+03  0.17201872318E+03 0.  0.
         24    2    3    3    0    0  0.11833514074E+03 -0.88513350437E+02 -0.44525343029E+03  0.47669175500E+03  0.84537526328E+02 0.  0.
         -6    2    1    2    0  502 -0.98349879001E+02  0.59029681799E+02  0.32314739438E+02  0.20713847003E+03  0.16942520871E+03 0.  0.
        -24    2    5    5    0    0 -0.12392771886E+03  0.37418588232E+02 -0.99277326842E+01  0.15302949011E+03  0.81001448871E+02 0.  0.
          5    1    3    3  501    0 -0.19985261737E+02  0.29483668637E+02 -0.11579253196E+03  0.12123818648E+03  0.47000000000E+01 0. -1.
        -11    1    4    4    0    0  0.18801172168E+02 -0.12567600569E+01 -0.91581114615E+01  0.20950764336E+02  0.00000000000E+00 0.  1.
         12    1    4    4    0    0  0.99533968570E+02 -0.87256590380E+02 -0.43609531883E+03  0.45574099066E+03  0.00000000000E+00 0. -1.
         -5    1    5    5    0  502  0.25577839857E+02  0.21611093567E+02  0.42242472122E+02  0.54108979919E+02  0.47000000000E+01 0.  1.
         11    1    6    6    0    0  0.11104911243E+02 -0.32237028852E+01  0.89829199715E+00  0.11598199969E+02  0.00000000000E+00 0. -1.
        -12    1    6    6    0    0 -0.13503263010E+03  0.40642291117E+02 -0.10826024681E+02  0.14143129014E+03  0.00000000000E+00 0.  1.
</event>
<event>
12    1  0.8747122E-002  0.2422163E+03  0.7818608E-02  0.1119368E+00
         21   -1    0    0  501  502  0.00000000000E+00  0.00000000000E+00  0.34596374179E+03  0.34596374179E+03  0.00000000000E+00 0.  1.
         21   -1    0    0  502  503 -0.00000000000E+00 -0.00000000000E+00 -0.20640146661E+03  0.20640146661E+03  0.00000000000E+00 0.  1.
         -6    2    1    2    0  503  0.16819241681E+03  0.34845024899E+01 -0.52824695700E+02  0.24790967801E+03  0.17426396399E+03 0.  0.
        -24    2    3    3    0    0  0.33865895686E+02  0.38100502791E+02  0.76678267605E+01  0.96505196480E+02  0.81583761724E+02 0.  0.
          6    2    1    2  501    0 -0.16819241681E+03 -0.34845024899E+01  0.19238697087E+03  0.30445553039E+03  0.16546779926E+03 0.  0.
         24    2    5    5    0    0 -0.14073027625E+03  0.37625619773E+02  0.77151268764E+02  0.17897418374E+03  0.69704678866E+02 0.  0.
          5    1    5    5  501    0 -0.27462140558E+02 -0.41110122263E+02  0.11523570211E+03  0.12548134665E+03  0.47000000000E+01 0. -1.
        -13    1    6    6    0    0 -0.75144761869E+02  0.50059111753E+02  0.64673243909E+02  0.11106429842E+03  0.00000000000E+00 0.  1.
         14    1    6    6    0    0 -0.65585514384E+02 -0.12433491980E+02  0.12478024856E+02  0.67909885319E+02  0.00000000000E+00 0. -1.
         -5    1    3    3    0  503  0.13432652112E+03 -0.34616000301E+02 -0.60492522461E+02  0.15140448153E+03  0.47000000000E+01 0.  1.
         13    1    4    4    0    0 -0.39220639766E+01  0.17644001149E+02 -0.32818570451E+02  0.37466677579E+02  0.00000000000E+00 0. -1.
        -14    1    4    4    0    0  0.37787959663E+02  0.20456501641E+02  0.40486397211E+02  0.59038518901E+02  0.00000000000E+00 0.  1.
</event>
<event>
12    1  0.8747122E-002  0.2298779E+03  0.7818608E-02  0.1126771E+00
         21   -1    0    0  501  502  0.00000000000E+00  0.00000000000E+00  0.71640801067E+03  0.71640801067E+03  0.00000000000E+00 0. -1.
         21   -1    0    0  502  503 -0.00000000000E+00 -0.00000000000E+00 -0.73880574264E+02  0.73880574264E+02  0.00000000000E+00 0. -1.
         -6    2    1    2    0  503 -0.14629004563E+02  0.15129294589E+03  0.34165931109E+03  0.41165223868E+03  0.17211309511E+03 0.  0.
        -24    2    3    3    0    0  0.12767611031E+02  0.80114380184E+02  0.30904069681E+03  0.32856778310E+03  0.76611422128E+02 0.  0.
          6    2    1    2  501    0  0.14629004563E+02 -0.15129294589E+03  0.30086812532E+03  0.37863634625E+03  0.17245373473E+03 0.  0.
         24    2    5    5    0    0  0.29651750910E+02 -0.15303940814E+03  0.31299525576E+03  0.35868915770E+03  0.79947451171E+02 0.  0.
          5    1    5    5  501    0 -0.15022746347E+02  0.17464622488E+01 -0.12127130445E+02  0.19947188549E+02  0.47000000000E+01 0. -1.
        -11    1    6    6    0    0  0.33455116240E+02 -0.11244517117E+03  0.28771978789E+03  0.31071826091E+03  0.00000000000E+00 0.  1.
         12    1    6    6    0    0 -0.38033653301E+01 -0.40594236967E+02  0.25275467878E+02  0.47970896794E+02  0.00000000000E+00 0. -1.
         -5    1    3    3    0  503 -0.27396615594E+02  0.71178565707E+02  0.32618614274E+02  0.83084455581E+02  0.47000000000E+01 0.  1.
         11    1    4    4    0    0  0.12902246137E+02  0.90020833835E+02  0.20760787611E+03  0.22665226383E+03  0.00000000000E+00 0. -1.
        -12    1    4    4    0    0 -0.13463510612E+00 -0.99064536516E+01  0.10143282071E+03  0.10191551927E+03  0.00000000000E+00 0.  1.
</event>
<event>
12    1  0.8747122E-002  0.1739950E+03  0.7818608E-02  0.1174006E+00
         21   -1    0    0  501  502  0.00000000000E+00  0.00000000000E+00  0.88761600215E+03  0.88761600215E+03  0.00000000000E+00 0. -1.
         21   -1    0    0  502  503 -0.00000000000E+00 -0.00000000000E+00 -0.52006451008E+02  0.52006451008E+02  0.00000000000E+00 0. -1.
         -6    2    1    2    0  503 -0.21486364392E+02 -0.11329804990E+02  0.13983053891E+03  0.22241767031E+03  0.17125131275E+03 0.  0.
        -24    2    3    3    0    0 -0.69496253697E+02  0.19651784477E+02  0.57995577845E+02  0.12249840686E+03  0.80165146553E+02 0.  0.
          6    2    1    2  501    0  0.21486364392E+02  0.11329804990E+02  0.69577901223E+03  0.71720478284E+03  0.17229114410E+03 0.  0.
         24    2    5    5    0    0 -0.46702490007E+02  0.22520665891E+02  0.27201214917E+03  0.28781521676E+03  0.78477300781E+02 0.  0.
          5    1    5    5  501    0  0.68188854398E+02 -0.11190860901E+02  0.42376686306E+03  0.42938956608E+03  0.47000000000E+01 0. -1.
        -11    1    6    6    0    0 -0.45865628057E+02 -0.14707431904E+02  0.21024408292E+03  0.21569084078E+03  0.00000000000E+00 0.  1.
         12    1    6    6    0    0 -0.83686194950E+00  0.37228097795E+02  0.61768066248E+02  0.72124375986E+02  0.00000000000E+00 0. -1.
         -5    1    3    3    0  503  0.48009889306E+02 -0.30981589467E+02  0.81834961063E+02  0.99919263454E+02  0.47000000000E+01 0.  1.
         11    1    4    4    0    0 -0.52981962757E+02 -0.19337831832E+02  0.56936452208E+02  0.80142371487E+02  0.00000000000E+00 0. -1.
        -12    1    4    4    0    0 -0.16514290940E+02  0.38989616309E+02  0.10591256372E+01  0.42356035370E+02  0.00000000000E+00 0.  1.
</event>
<event>
12    1  0.8747122E-002  0.2204670E+03  0.7818608E-02  0.1133704E+00
         21   -1    0    0  501  502  0.00000000000E+00  0.00000000000E+00  0.45216330693E+03  0.45216330693E+03  0.00000000000E+00 0.  1.
         21   -1    0    0  502  503 -0.00000000000E+00 -0.00000000000E+00 -0.20082781662E+03  0.20082781662E+03  0.00000000000E+00 0.  1.
         -6    2    1    2    0  503  0.81227953013E+01  0.13605096879E+03 -0.97296346950E+02  0.24098190878E+03  0.17329124420E+03 0.  0.
        -24    2    3    3    0    0 -0.59363125397E+01  0.11552774063E+03 -0.50245916459E+00  0.14093188069E+03  0.80496235113E+02 0.  0.
          6    2    1    2  501    0 -0.81227953013E+01 -0.13605096879E+03  0.34863183726E+03  0.41200921477E+03  0.17213828509E+03 0.  0.
         24    2    5    5    0    0  0.32488120563E+02 -0.14500525530E+03  0.31931899294E+03  0.36091363203E+03  0.78816422695E+02 0.  0.
          5    1    5    5  501    0 -0.40610915864E+02  0.89542865063E+01  0.29312844317E+02  0.51095582746E+02  0.47000000000E+01 0. -1.
        -13    1    6    6    0    0 -0.39876962516E+01 -0.11998437728E+03  0.19534941454E+03  0.22928921970E+03  0.00000000000E+00 0.  1.
         14    1    6    6    0    0  0.36475816814E+02 -0.25020878021E+02  0.12396957841E+03  0.13162441232E+03  0.00000000000E+00 0. -1.
         -5    1    3    3    0  503  0.14059107841E+02  0.20523228160E+02 -0.96793887786E+02  0.10005002809E+03  0.47000000000E+01 0.  1.
         11    1    4    4    0    0  0.35804882837E+02  0.73179446056E+02 -0.23444808429E+00  0.81469478493E+02  0.00000000000E+00 0. -1.
        -12    1    4    4    0    0 -0.41741195377E+02  0.42348294578E+02 -0.26801108030E+00  0.59462402198E+02  0.00000000000E+00 0.  1.
</event>
<event>
12    1  0.8747122E-002  0.2305614E+03  0.7818608E-02  0.1126875E+00
         21   -1    0    0  501  502  0.00000000000E+00  0.00000000000E+00  0.19439582290E+03  0.19439582290E+03  0.00000000000E+00 0.  1.
         21   -1    0    0  502  503 -0.00000000000E+00 -0.00000000000E+00 -0.37034493483E+03  0.37034493483E+03  0.00000000000E+00 0. -1.
         -6    2    1    2    0  503  0.15235618374E+03  0.11214153468E+02 -0.23500383810E+03  0.32673650456E+03  0.16790406646E+03 0.  0.
        -24    2    3    3    0    0  0.16024396165E+03  0.49734355219E+02 -0.21167655042E+03  0.28077700790E+03  0.76662460381E+02 0.  0.
          6    2    1    2  501    0 -0.15235618374E+03 -0.11214153468E+02  0.59054726161E+02  0.23800425316E+03  0.17268584158E+03 0.  0.
         24    2    5    5    0    0 -0.10370095694E+03  0.16404144312E+02  0.10280710823E+03  0.16682516632E+03  0.78983227304E+02 0.  0.
          5    1    5    5  501    0 -0.48655226792E+02 -0.27618297780E+02 -0.43752382068E+02  0.71179086838E+02  0.47000000000E+01 0. -1.
        -13    1    6    6    0    0 -0.60516738317E+02 -0.29622666596E+02  0.43368933372E+02  0.80128910979E+02  0.00000000000E+00 0.  1.
         14    1    6    6    0    0 -0.43184218626E+02  0.46026810908E+02  0.59438174857E+02  0.86696255346E+02  0.00000000000E+00 0. -1.
         -5    1    3    3    0  503 -0.78877779170E+01 -0.38520201751E+02 -0.23327287676E+02  0.45959496665E+02  0.47000000000E+01 0.  1.
         13    1    4    4    0    0  0.46043659826E+02 -0.73761656040E+01 -0.10315633475E+03  0.11320625348E+03  0.00000000000E+00 0. -1.
        -14    1    4    4    0    0  0.11420030183E+03  0.57110520823E+02 -0.10852021568E+03  0.16757075442E+03  0.00000000000E+00 0.  1.
</event>
<event>
12    1  0.8747122E-002  0.2466982E+03  0.7818608E-02  0.1117723E+00
         21   -1    0    0  501  502  0.00000000000E+00  0.00000000000E+00  0.59041771094E+03  0.59041771094E+03  0.00000000000E+00 0. -1.
         21   -1    0    0  502  503 -0.00000000000E+00 -0.00000000000E+00 -0.99492411484E+02  0.99492411484E+02  0.00000000000E+00 0. -1.
         -6    2    1    2    0  503 -0.58639569744E+02  0.14664618969E+03  0.18766052469E+03  0.29897597413E+03  0.17095746984E+03 0.  0.
        -24    2    3    3    0    0 -0.64491762471E+02  0.39029718115E+02  0.14723967169E+03  0.18377402766E+03  0.80067883708E+02 0.  0.
          6    2    1    2  501    0  0.58639569744E+02 -0.14664618969E+03  0.30326477477E+03  0.39093414829E+03  0.18951591119E+03 0.  0.
         24    2    5    5    0    0  0.11125227855E+03 -0.12301269419E+03  0.26136494469E+03  0.31948958938E+03  0.79074464890E+02 0.  0.
          5    1    5    5  501    0 -0.52612708803E+02 -0.23633495500E+02  0.41899830075E+02  0.71444558907E+02  0.47000000000E+01 0. -1.
        -11    1    6    6    0    0  0.96016573551E+02 -0.56474743990E+02  0.12809468104E+03  0.16975519555E+03  0.00000000000E+00 0.  1.
         12    1    6    6    0    0  0.15235704995E+02 -0.66537950197E+02  0.13327026365E+03  0.14973439383E+03  0.00000000000E+00 0. -1.
         -5    1    3    3    0  503  0.58521927275E+01  0.10761647157E+03  0.40420852998E+02  0.11520194647E+03  0.47000000000E+01 0.  1.
         13    1    4    4    0    0 -0.21962532664E+02  0.51528877795E+02  0.11814444578E+03  0.13075048052E+03  0.00000000000E+00 0. -1.
        -14    1    4    4    0    0 -0.42529229807E+02 -0.12499159680E+02  0.29095225906E+02  0.53023547139E+02  0.00000000000E+00 0.  1.
</event>
<event>
12    1  0.8747122E-002  0.1847018E+03  0.7818608E-02  0.1163430E+00
         21   -1    0    0  503  502  0.00000000000E+00  0.00000000000E+00  0.10405383547E+03  0.10405383547E+03  0.00000000000E+00 0.  1.
         21   -1    0    0  501  503 -0.00000000000E+00 -0.00000000000E+00 -0.36261319112E+03  0.36261319112E+03  0.00000000000E+00 0.  1.
          6    2    1    2  501    0 -0.30304466924E+02  0.56976689502E+02 -0.20217644766E+03  0.27355107400E+03  0.17259829152E+03 0.  0.
         24    2    3    3    0    0 -0.81527521421E+02  0.61489386963E+02 -0.16001328388E+03  0.20688782978E+03  0.82283908706E+02 0.  0.
         -6    2    1    2    0  502  0.30304466924E+02 -0.56976689502E+02 -0.56382907991E+02  0.19311595260E+03  0.17306078404E+03 0.  0.
        -24    2    5    5    0    0 -0.18601790235E+02  0.12806664229E+02 -0.70223600233E+02  0.10665675292E+03  0.77034223989E+02 0.  0.
          5    1    3    3  501    0  0.51223054497E+02 -0.45126974619E+01 -0.42163163776E+02  0.66663244220E+02  0.47000000000E+01 0. -1.
        -11    1    4    4    0    0 -0.20597065478E+00  0.12128091275E+02 -0.84673355354E+02  0.85537770188E+02  0.00000000000E+00 0.  1.
         12    1    4    4    0    0 -0.81321550766E+02  0.49361295688E+02 -0.75339928529E+02  0.12135005959E+03  0.00000000000E+00 0. -1.
         -5    1    5    5    0  502  0.48906257158E+02 -0.69783353731E+02  0.13840692242E+02  0.86459199678E+02  0.47000000000E+01 0.  1.
         13    1    6    6    0    0  0.17542794653E+02  0.32937333955E+02 -0.43908957943E+02  0.57624770715E+02  0.00000000000E+00 0. -1.
        -14    1    6    6    0    0 -0.36144584888E+02 -0.20130669726E+02 -0.26314642290E+02  0.49031982207E+02  0.00000000000E+00 0.  1.
</event>
<event>
12    1  0.8747122E-002  0.3088404E+03  0.7818608E-02  0.1080928E+00
         21   -1    0    0  503  502  0.00000000000E+00  0.00000000000E+00  0.50619436726E+03  0.50619436726E+03  0.00000000000E+00 0.  1.
         21   -1    0    0  501  503 -0.00000000000E+00 -0.00000000000E+00 -0.19048628238E+03  0.19048628238E+03  0.00000000000E+00 0. -1.
          6    2    1    2  501    0 -0.25078664084E+03  0.59169790660E+02  0.12053163516E+03  0.33133664489E+03  0.16988553153E+03 0.  0.
         24    2    3    3    0    0 -0.57982428655E+02 -0.16790585577E+02  0.28877159310E+02  0.10469579258E+03  0.80519766874E+02 0.  0.
         -6    2    1    2    0  502  0.25078664084E+03 -0.59169790660E+02  0.19517644972E+03  0.36534400475E+03  0.17025684108E+03 0.  0.
        -24    2    5    5    0    0  0.78489363214E+02 -0.12765353058E+02  0.16970590481E+02  0.11311565192E+03  0.78635967545E+02 0.  0.
          5    1    3    3  501    0 -0.19280421218E+03  0.75960376237E+02  0.91654475850E+02  0.22664085231E+03  0.47000000000E+01 0. -1.
        -13    1    4    4    0    0 -0.12595127007E+01 -0.22535975578E+02  0.40634964839E+02  0.46482867112E+02  0.00000000000E+00 0.  1.
         14    1    4    4    0    0 -0.56722915955E+02  0.57453900015E+01 -0.11757805530E+02  0.58212925468E+02  0.00000000000E+00 0. -1.
         -5    1    5    5    0  502  0.17229727762E+03 -0.46404437603E+02  0.17820585924E+03  0.25222835283E+03  0.47000000000E+01 0.  1.
         13    1    6    6    0    0  0.36411502990E+01 -0.32571754732E+02  0.13984954227E+02  0.35633637571E+02  0.00000000000E+00 0. -1.
        -14    1    6    6    0    0  0.74848212914E+02  0.19806401674E+02  0.29856362534E+01  0.77482014349E+02  0.00000000000E+00 0.  1.
</event>
<event>
12    1  0.8747122E-002  0.1944788E+03  0.7818608E-02  0.1154616E+00
         21   -1    0    0  503  502  0.00000000000E+00  0.00000000000E+00  0.13707724487E+03  0.13707724487E+03  0.00000000000E+00 0. -1.
         21   -1    0    0  501  503 -0.00000000000E+00 -0.00000000000E+00 -0.34341436476E+03  0.34341436476E+03  0.00000000000E+00 0. -1.
          6    2    1    2  501    0  0.78634246153E+02 -0.42868578553E+02 -0.21048577248E+03  0.28657680195E+03  0.17262949721E+03 0.  0.
         24    2    3    3    0    0 -0.16471799022E+02 -0.45116837685E+02 -0.13098041459E+03  0.16250663458E+03  0.83340794764E+02 0.  0.
         -6    2    1    2    0  502 -0.78634246153E+02  0.42868578553E+02  0.41486525916E+01  0.19391480768E+03  0.17194383276E+03 0.  0.
        -24    2    5    5    0    0  0.63532363837E+01  0.39873190285E+02 -0.42438719547E+02  0.96835882149E+02  0.77109715592E+02 0.  0.
          5    1    3    3  501    0  0.95106045176E+02  0.22482591325E+01 -0.79505357889E+02  0.12407016737E+03  0.47000000000E+01 0. -1.
        -11    1    4    4    0    0 -0.17785225301E+02 -0.48601337416E+02 -0.26839030125E+02  0.58298694459E+02  0.00000000000E+00 0.  1.
         12    1    4    4    0    0  0.13134262788E+01  0.34844997307E+01 -0.10414138446E+03  0.10420794012E+03  0.00000000000E+00 0. -1.
         -5    1    5    5    0  502 -0.84987482537E+02  0.29953882672E+01  0.46587372138E+02  0.97078925528E+02  0.47000000000E+01 0.  1.
         13    1    6    6    0    0 -0.34592812649E+02  0.10159132452E+02 -0.22238613415E+02  0.42360672631E+02  0.00000000000E+00 0. -1.
        -14    1    6    6    0    0  0.40946049032E+02  0.29714057833E+02 -0.20200106131E+02  0.54475209518E+02  0.00000000000E+00 0.  1.
</event>
<event>
12    1  0.8747122E-002  0.2026742E+03  0.7818608E-02  0.1150715E+00
         21   -1    0    0  503  502  0.00000000000E+00  0.00000000000E+00  0.43209168497E+03  0.43209168497E+03  0.00000000000E+00 0.  1.
         21   -1    0    0  501  503 -0.00000000000E+00 -0.00000000000E+00 -0.14910026184E+03  0.14910026184E+03  0.00000000000E+00 0.  1.
          6    2    1    2  501    0 -0.49268516669E+02 -0.51190574252E+02 -0.40932661456E+02  0.20676631830E+03  0.18981297633E+03 0.  0.
         24    2    3    3    0    0 -0.10315354813E+03 -0.21129758410E+02 -0.54974856415E+02  0.14331143272E+03  0.80179864868E+02 0.  0.
         -6    2    1    2    0  502  0.49268516669E+02  0.51190574252E+02  0.32392408458E+03  0.37442562851E+03  0.17383865244E+03 0.  0.
        -24    2    5    5    0    0  0.26050319119E+02  0.96688464262E+02  0.17091775891E+03  0.21304976790E+03  0.78422222879E+02 0.  0.
          5    1    3    3  501    0  0.53885031458E+02 -0.30060815842E+02  0.14042194959E+02  0.63454885577E+02  0.47000000000E+01 0. -1.
        -13    1    4    4    0    0 -0.48981672705E+02 -0.33134377984E+01 -0.68907673597E+02  0.84607627384E+02  0.00000000000E+00 0.  1.
         14    1    4    4    0    0 -0.54171875421E+02 -0.17816320611E+02  0.13932817182E+02  0.58703805340E+02  0.00000000000E+00 0. -1.
         -5    1    5    5    0  502  0.23218197550E+02 -0.45497890010E+02  0.15300632567E+03  0.16137586061E+03  0.47000000000E+01 0.  1.
         13    1    6    6    0    0  0.13416443012E+02  0.29436337025E+01 -0.39023022598E+01  0.14279141619E+02  0.00000000000E+00 0. -1.
        -14    1    6    6    0    0  0.12633876107E+02  0.93744830559E+02  0.17482006117E+03  0.19877062628E+03  0.00000000000E+00 0.  1.
</event>
<event>
12    1  0.8747122E-002  0.2102623E+03  0.7818608E-02  0.1141694E+00
         21   -1    0    0  503  502  0.00000000000E+00  0.00000000000E+00  0.48256710772E+02  0.48256710772E+02  0.00000000000E+00 0.  1.
         21   -1    0    0  501  503 -0.00000000000E+00 -0.00000000000E+00 -0.91598631350E+03  0.91598631350E+03  0.00000000000E+00 0.  1.
          6    2    1    2  501    0  0.45248993243E+02  0.10956712117E+03 -0.38938868988E+03  0.44172960279E+03  0.17160729805E+03 0.  0.
         24    2    3    3    0    0  0.24986745848E+02  0.10345403043E+03 -0.39745938675E+03  0.41859619197E+03  0.76952803317E+02 0.  0.
         -6    2    1    2    0  502 -0.45248993243E+02 -0.10956712117E+03 -0.47834091285E+03  0.52251342149E+03  0.17366007399E+03 0.  0.
        -24    2    5    5    0    0  0.14422647181E+02 -0.91732549417E+01 -0.10286975840E+03  0.12927009876E+03  0.76396399663E+02 0.  0.
          5    1    3    3  501    0  0.20262247395E+02  0.61130907403E+01  0.80706968717E+01  0.23133410814E+02  0.47000000000E+01 0. -1.
        -13    1    4    4    0    0  0.45718123277E+02  0.38346125559E+02 -0.13919393421E+03  0.15144478684E+03  0.00000000000E+00 0.  1.
         14    1    4    4    0    0 -0.20731377429E+02  0.65107904868E+02 -0.25826545254E+03  0.26715140513E+03  0.00000000000E+00 0. -1.
         -5    1    5    5    0  502 -0.59671640424E+02 -0.10039386623E+03 -0.37547115445E+03  0.39324332273E+03  0.47000000000E+01 0.  1.
         11    1    6    6    0    0  0.34319002957E+02 -0.19641353071E+02 -0.21826081092E+02  0.45165855801E+02  0.00000000000E+00 0. -1.
        -12    1    6    6    0    0 -0.19896355776E+02  0.10468098130E+02 -0.81043677306E+02  0.84104242954E+02  0.00000000000E+00 0.  1.
</event>
<event>
12    1  0.8747122E-002  0.1870061E+03  0.7818608E-02  0.1161265E+00
         21   -1    0    0  501  502  0.00000000000E+00  0.00000000000E+00  0.17136697872E+03  0.17136697872E+03  0.00000000000E+00 0.  1.
         21   -1    0    0  502  503 -0.00000000000E+00 -0.00000000000E+00 -0.20708768939E+03  0.20708768939E+03  0.00000000000E+00 0.  1.
         -6    2    1    2    0  503  0.57459987797E+02 -0.44549331112E+02  0.62744397466E+01  0.18711130812E+03  0.17229329625E+03 0.  0.
        -24    2    3    3    0    0  0.59902912033E+01 -0.84099884460E+02 -0.20456258111E+02  0.11675509912E+03  0.78132071001E+02 0.  0.
          6    2    1    2  501    0 -0.57459987797E+02  0.44549331112E+02 -0.41995150415E+02  0.19134336000E+03  0.17193718520E+03 0.  0.
         24    2    5    5    0    0 -0.33934082415E+02 -0.22159142968E+02 -0.71927769103E+02  0.11439181421E+03  0.79179123655E+02 0.  0.
          5    1    5    5  501    0 -0.23525905381E+02  0.66708474080E+02  0.29932618687E+02  0.76951545791E+02  0.47000000000E+01 0. -1.
        -11    1    6    6    0    0 -0.56494685769E+02 -0.11360476123E+01 -0.56511633734E+02  0.79915610938E+02  0.00000000000E+00 0.  1.
         12    1    6    6    0    0  0.22560603354E+02 -0.21023095355E+02 -0.15416135369E+02  0.34476203267E+02  0.00000000000E+00 0. -1.
         -5    1    3    3    0  503  0.51469696593E+02  0.39550553348E+02  0.26730697857E+02  0.70356209004E+02  0.47000000000E+01 0.  1.
         11    1    4    4    0    0 -0.22212403558E+01  0.13930926452E+02 -0.11074581467E+02  0.17934630613E+02  0.00000000000E+00 0. -1.
        -12    1    4    4    0    0  0.82115315591E+01 -0.98030810912E+02 -0.93816766431E+01  0.98820468504E+02  0.00000000000E+00 0.  1.
</event>
<event>
12    1  0.8747122E-002  0.1892311E+03  0.7818608E-02  0.1159602E+00
         21   -1    0    0  503  502  0.00000000000E+00  0.00000000000E+00  0.11892250838E+03  0.11892250838E+03  0.00000000000E+00 0. -1.
         21   -1    0    0  501  503 -0.00000000000E+00 -0.00000000000E+00 -0.81147802708E+03  0.81147802708E+03  0.00000000000E+00 0. -1.
          6    2    1    2  501    0  0.20404348103E+02 -0.74601452034E+02 -0.71698540548E+03  0.74153656823E+03  0.17270407144E+03 0.  0.
         24    2    3    3    0    0 -0.13007779900E+02  0.62550431639E+01 -0.51011372858E+03  0.51687654994E+03  0.82079375589E+02 0.  0.
         -6    2    1    2    0  502 -0.20404348103E+02  0.74601452034E+02  0.24429886775E+02  0.18886396722E+03  0.17056102920E+03 0.  0.
        -24    2    5    5    0    0 -0.43770956288E+01  0.87534942248E+02  0.70956697037E+02  0.13776619757E+03  0.79140048374E+02 0.  0.
          5    1    3    3  501    0  0.33412128003E+02 -0.80856495198E+02 -0.20687167690E+03  0.22466001829E+03  0.47000000000E+01 0. -1.
        -11    1    4    4    0    0 -0.25081868086E+02  0.15790180887E+02 -0.64349890163E+02  0.70847288467E+02  0.00000000000E+00 0.  1.
         12    1    4    4    0    0  0.12074088186E+02 -0.95351377235E+01 -0.44576383841E+03  0.44602926148E+03  0.00000000000E+00 0. -1.
         -5    1    5    5    0  502 -0.16027252474E+02 -0.12933490214E+02 -0.46526810262E+02  0.51097769659E+02  0.47000000000E+01 0.  1.
         11    1    6    6    0    0 -0.18381449533E+02  0.15596089410E+01  0.42163295483E+02  0.46022315815E+02  0.00000000000E+00 0. -1.
        -12    1    6    6    0    0  0.14004353904E+02  0.85975333307E+02  0.28793401554E+02  0.91743881750E+02  0.00000000000E+00 0.  1.
</event>
<event>
12    1  0.8747122E-002  0.2108949E+03  0.7818608E-02  0.1141913E+00
         21   -1    0    0  501  502  0.00000000000E+00  0.00000000000E+00  0.92877459091E+02  0.92877459091E+02  0.00000000000E+00 0. -1.
         21   -1    0    0  502  503 -0.00000000000E+00 -0.00000000000E+00 -0.15129119105E+04  0.15129119105E+04  0.00000000000E+00 0.  1.
         -6    2    1    2    0  503  0.74565291301E+02 -0.84982096197E+02 -0.13803676152E+04  0.13963851279E+04  0.17803014645E+03 0.  0.
        -24    2    3    3    0    0  0.34161556345E+02  0.24225883544E+02 -0.49171451242E+03  0.50012329579E+03  0.81155677011E+02 0.  0.
          6    2    1    2  501    0 -0.74565291301E+02  0.84982096197E+02 -0.39666836189E+02  0.20940424165E+03  0.17174032487E+03 0.  0.
         24    2    5    5    0    0 -0.97444046670E+02  0.10913797966E+03 -0.15776244693E+02  0.16817567734E+03  0.81410857482E+02 0.  0.
          5    1    5    5  501    0  0.22878755370E+02 -0.24155883463E+02 -0.23890591496E+02  0.41228564312E+02  0.47000000000E+01 0. -1.
        -11    1    6    6    0    0 -0.91551178685E+02  0.69620390525E+02 -0.39618542323E+02  0.12164804146E+03  0.00000000000E+00 0.  1.
         12    1    6    6    0    0 -0.58928679856E+01  0.39517589135E+02  0.23842297630E+02  0.46527635878E+02  0.00000000000E+00 0. -1.
         -5    1    3    3    0  503  0.40403734956E+02 -0.10920797974E+03 -0.88865310277E+03  0.89626183212E+03  0.47000000000E+01 0.  1.
         13    1    4    4    0    0  0.43760247717E+01 -0.28670595593E+02 -0.11809916995E+03  0.12160825049E+03  0.00000000000E+00 0. -1.
        -14    1    4    4    0    0  0.29785531573E+02  0.52896479137E+02 -0.37361534246E+03  0.37851504530E+03  0.00000000000E+00 0.  1.
</event>
<event>
12    1  0.8747122E-002  0.1904173E+03  0.7818608E-02  0.1158280E+00
         21   -1    0    0  501  502  0.00000000000E+00  0.00000000000E+00  0.10870154042E+03  0.10870154042E+03  0.00000000000E+00 0.  1.
         21   -1    0    0  502  503 -0.00000000000E+00 -0.00000000000E+00 -0.35700097540E+03  0.35700097540E+03  0.00000000000E+00 0.  1.
         -6    2    1    2    0  503  0.47610052330E+02  0.64612877013E+02 -0.18544409042E+03  0.26517934037E+03  0.17172370520E+03 0.  0.
        -24    2    3    3    0    0  0.54411081149E+02 -0.10317703913E+02 -0.15404040702E+03  0.18351461553E+03  0.82958702701E+02 0.  0.
          6    2    1    2  501    0 -0.47610052330E+02 -0.64612877013E+02 -0.62855344564E+02  0.20052317546E+03  0.17267660118E+03 0.  0.
         24    2    5    5    0    0 -0.63595870934E+02 -0.61947534139E+02 -0.10282390482E+03  0.15713854387E+03  0.78979964422E+02 0.  0.
          5    1    5    5  501    0  0.15985818604E+02 -0.26653428744E+01  0.39968560257E+02  0.43384631589E+02  0.47000000000E+01 0. -1.
        -13    1    6    6    0    0 -0.43459835851E+02 -0.16852053588E+02 -0.96732433952E+02  0.10737743162E+03  0.00000000000E+00 0.  1.
         14    1    6    6    0    0 -0.20136035082E+02 -0.45095480551E+02 -0.60914708686E+01  0.49761112249E+02  0.00000000000E+00 0. -1.
         -5    1    3    3    0  503 -0.68010288191E+01  0.74930580927E+02 -0.31403683403E+02  0.81664724835E+02  0.47000000000E+01 0.  1.
         13    1    4    4    0    0 -0.14434600551E+02  0.57484523804E+01 -0.78622146720E+02  0.80142650023E+02  0.00000000000E+00 0. -1.
        -14    1    4    4    0    0  0.68845681700E+02 -0.16066156294E+02 -0.75418260298E+02  0.10337196551E+03  0.00000000000E+00 0.  1.
</event>
<event>
12    1  0.8747122E-002  0.2516566E+03  0.7818608E-02  0.1112776E+00
         21   -1    0    0  501  502  0.00000000000E+00  0.00000000000E+00  0.10845075766E+03  0.10845075766E+03  0.00000000000E+00 0.  1.
         21   -1    0    0  502  503 -0.00000000000E+00 -0.00000000000E+00 -0.74313187461E+03  0.74313187461E+03  0.00000000000E+00 0.  1.
         -6    2    1    2    0  503 -0.18514339437E+02  0.17933426624E+03 -0.51740330304E+03  0.57394056893E+03  0.17087433643E+03 0.  0.
        -24    2    3    3    0    0  0.32848225018E+02  0.89115597529E+02 -0.16758300091E+03  0.20901063730E+03  0.81122060520E+02 0.  0.
          6    2    1    2  501    0  0.18514339437E+02 -0.17933426624E+03 -0.11727781391E+03  0.27764206334E+03  0.17557753241E+03 0.  0.
         24    2    5    5    0    0 -0.32314226546E+02 -0.14956401327E+03 -0.13156375571E+03  0.21684741543E+03  0.79373650919E+02 0.  0.
          5    1    5    5  501    0  0.50828565983E+02 -0.29770252971E+02  0.14285941795E+02  0.60794647912E+02  0.47000000000E+01 0. -1.
        -11    1    6    6    0    0 -0.55634413898E+02 -0.10993481093E+03 -0.11325593159E+03  0.16735518129E+03  0.00000000000E+00 0.  1.
         12    1    6    6    0    0  0.23320187352E+02 -0.39629202340E+02 -0.18307824114E+02  0.49492234138E+02  0.00000000000E+00 0. -1.
         -5    1    3    3    0  503 -0.51362564455E+02  0.90218668710E+02 -0.34982030213E+03  0.36492993162E+03  0.47000000000E+01 0.  1.
         11    1    4    4    0    0  0.41235239946E+02  0.83369631936E+01 -0.73820390853E+02  0.84966464410E+02  0.00000000000E+00 0. -1.
        -12    1    4    4    0    0 -0.83870149282E+01  0.80778634335E+02 -0.93762610056E+02  0.12404417289E+03  0.00000000000E+00 0.  1.
</event>
<event>
12    1  0.8747122E-002  0.1908597E+03  0.7818608E-02  0.1157763E+00
         21   -1    0    0  503  502  0.00000000000E+00  0.00000000000E+00  0.55809153064E+03  0.55809153064E+03  0.00000000000E+00 0. -1.
         21   -1    0    0  501  503 -0.00000000000E+00 -0.00000000000E+00 -0.82142388264E+02  0.82142388264E+02  0.00000000000E+00 0.  1.
          6    2    1    2  501    0 -0.24009356305E+02  0.78979416464E+02  0.92576680505E+02  0.21212696284E+03  0.17208488944E+03 0.  0.
         24    2    3    3    0    0 -0.59697393787E+02  0.96749546646E+02  0.10056282024E+03  0.17119675427E+03  0.79190872295E+02 0.  0.
         -6    2    1    2    0  502  0.24009356305E+02 -0.78979416464E+02  0.38337246187E+03  0.42810695606E+03  0.17171757014E+03 0.  0.
        -24    2    5    5    0    0 -0.80202122596E+01 -0.10001093883E+03  0.17629031788E+03  0.21745719330E+03  0.78376291356E+02 0.  0.
          5    1    3    3  501    0  0.35688037481E+02 -0.17770130182E+02 -0.79861397377E+01  0.40930208574E+02  0.47000000000E+01 0. -1.
        -13    1    4    4    0    0  0.11723700913E+02  0.34845451893E+02  0.55526569856E+01  0.37181751981E+02  0.00000000000E+00 0.  1.
         14    1    4    4    0    0 -0.71421094700E+02  0.61904094753E+02  0.95010163257E+02  0.13401500229E+03  0.00000000000E+00 0. -1.
         -5    1    5    5    0  502  0.32029568565E+02  0.21031522367E+02  0.20708214399E+03  0.21064976277E+03  0.47000000000E+01 0.  1.
         11    1    6    6    0    0 -0.11966268693E+02 -0.95015041389E+02  0.18401753999E+03  0.20744518481E+03  0.00000000000E+00 0. -1.
        -12    1    6    6    0    0  0.39460564333E+01 -0.49958974413E+01 -0.77272221020E+01  0.10012008491E+02  0.00000000000E+00 0.  1.
</event>
<event>
12    1  0.8747122E-002  0.2091651E+03  0.7818608E-02  0.1142392E+00
         21   -1    0    0  503  502  0.00000000000E+00  0.00000000000E+00  0.21519759681E+02  0.21519759681E+02  0.00000000000E+00 0. -1.
         21   -1    0    0  501  503 -0.00000000000E+00 -0.00000000000E+00 -0.20662903888E+04  0.20662903888E+04  0.00000000000E+00 0. -1.
          6    2    1    2  501    0 -0.89401399262E+02 -0.78314965834E+02 -0.87690399827E+03  0.90150467318E+03  0.17211684847E+03 0.  0.
         24    2    3    3    0    0 -0.35926593563E+02 -0.47119534269E+02 -0.23402496784E+03  0.25563452558E+03  0.84085399818E+02 0.  0.
         -6    2    1    2    0  502  0.89401399262E+02  0.78314965834E+02 -0.11678666309E+04  0.11863054753E+04  0.17112091984E+03 0.  0.
        -24    2    5    5    0    0  0.71738325912E+01  0.93415636613E+02 -0.69140368853E+03  0.70254062707E+03  0.82136028213E+02 0.  0.
          5    1    3    3  501    0 -0.53474805699E+02 -0.31195431565E+02 -0.64287903043E+03  0.64587014760E+03  0.47000000000E+01 0. -1.
        -11    1    4    4    0    0 -0.16967566527E+02  0.19385624990E+02 -0.26797684579E+02  0.37172794742E+02  0.00000000000E+00 0.  1.
         12    1    4    4    0    0 -0.18959027036E+02 -0.66505159260E+02 -0.20722728326E+03  0.21846173084E+03  0.00000000000E+00 0. -1.
         -5    1    5    5    0  502  0.82227566671E+02 -0.15100670778E+02 -0.47646294232E+03  0.48376484823E+03  0.47000000000E+01 0.  1.
         13    1    6    6    0    0  0.23804926415E+02 -0.45004915171E+01 -0.17544908613E+03  0.17711383563E+03  0.00000000000E+00 0. -1.
        -14    1    6    6    0    0 -0.16631093824E+02  0.97916128130E+02 -0.51595460240E+03  0.52542679144E+03  0.00000000000E+00 0.  1.
</event>
<event>
12    1  0.8747122E-002  0.1938500E+03  0.7818608E-02  0.1155311E+00
         21   -1    0    0  501  502  0.00000000000E+00  0.00000000000E+00  0.22794435442E+03  0.22794435442E+03  0.00000000000E+00 0. -1.
         21   -1    0    0  502  503 -0.00000000000E+00 -0.00000000000E+00 -0.31410939880E+03  0.31410939880E+03  0.00000000000E+00 0. -1.
         -6    2    1    2    0  503  0.30852603478E+02  0.86923818996E+02 -0.23064750055E+03  0.30129071411E+03  0.17049982831E+03 0.  0.
        -24    2    3    3    0    0  0.37559508693E+02  0.56288045611E+02 -0.24515189648E+03  0.26641951268E+03  0.79377853439E+02 0.  0.
          6    2    1    2  501    0 -0.30852603478E+02 -0.86923818996E+02  0.14448245617E+03  0.24076303910E+03  0.16906811470E+03 0.  0.
         24    2    5    5    0    0 -0.41499852998E+02 -0.88789034170E+02  0.37027784227E+02  0.13266382786E+03  0.81381226517E+02 0.  0.
          5    1    5    5  501    0  0.10647249520E+02  0.18652151741E+01  0.10745467194E+03  0.10809921125E+03  0.47000000000E+01 0. -1.
        -13    1    6    6    0    0  0.23438297036E+02 -0.23039890887E+02 -0.63416612600E+00  0.32872366917E+02  0.00000000000E+00 0.  1.
         14    1    6    6    0    0 -0.64938150034E+02 -0.65749143283E+02  0.37661950353E+02  0.99791460940E+02  0.00000000000E+00 0. -1.
         -5    1    3    3    0  503 -0.67069052150E+01  0.30635773384E+02  0.14504395929E+02  0.34871201437E+02  0.47000000000E+01 0.  1.
         11    1    4    4    0    0  0.23307708955E+02 -0.10503759210E+02 -0.24384207299E+02  0.35329418618E+02  0.00000000000E+00 0. -1.
        -12    1    4    4    0    0  0.14251799738E+02  0.66791804822E+02 -0.22076768918E+03  0.23109009406E+03  0.00000000000E+00 0.  1.
</event>
<event>
12    1  0.8747122E-002  0.1808729E+03  0.7818608E-02  0.1167785E+00
         21   -1    0    0  501  502  0.00000000000E+00  0.00000000000E+00  0.92968830205E+03  0.92968830205E+03  0.00000000000E+00 0.  1.
         21   -1    0    0  502  503 -0.00000000000E+00 -0.00000000000E+00 -0.43177535740E+02  0.43177535740E+02  0.00000000000E+00 0.  1.
         -6    2    1    2    0  503  0.41184333546E+02  0.43356287957E+01  0.22224163468E+03  0.28441215847E+03  0.17258037169E+03 0.  0.
        -24    2    3    3    0    0 -0.14169583714E+02 -0.48419629524E+02  0.16022280553E+03  0.18584442234E+03  0.79508265463E+02 0.  0.
          6    2    1    2  501    0 -0.41184333546E+02 -0.43356287957E+01  0.66426913163E+03  0.68845367932E+03  0.17606828883E+03 0.  0.
         24    2    5    5    0    0  0.24527808761E+02  0.45257714440E+02  0.29044257375E+03  0.30564044716E+03  0.80058229914E+02 0.  0.
          5    1    5    5  501    0 -0.65712142307E+02 -0.49593343235E+02  0.37382655788E+03  0.38281323216E+03  0.47000000000E+01 0. -1.
        -13    1    6    6    0    0 -0.22449235081E+01 -0.21964411891E+02  0.85295410002E+02  0.88106651501E+02  0.00000000000E+00 0.  1.
         14    1    6    6    0    0  0.26772732269E+02  0.67222126331E+02  0.20514716375E+03  0.21753379566E+03  0.00000000000E+00 0. -1.
         -5    1    3    3    0  503  0.55353917261E+02  0.52755258319E+02  0.62018829151E+02  0.98567736130E+02  0.47000000000E+01 0.  1.
         13    1    4    4    0    0  0.32085071308E+01 -0.54772841385E+02  0.50490465643E+02  0.74563032344E+02  0.00000000000E+00 0. -1.
        -14    1    4    4    0    0 -0.17378090845E+02  0.63532118614E+01  0.10973233989E+03  0.11128139000E+03  0.00000000000E+00 0.  1.
</event>
<event>
12    1  0.8747122E-002  0.1759122E+03  0.7818608E-02  0.1172426E+00
         21   -1    0    0  501  502  0.00000000000E+00  0.00000000000E+00  0.92528384519E+03  0.92528384519E+03  0.00000000000E+00 0.  1.
         21   -1    0    0  502  503 -0.00000000000E+00 -0.00000000000E+00 -0.50327414143E+02  0.50327414143E+02  0.00000000000E+00 0.  1.
         -6    2    1    2    0  503 -0.30160054653E+02 -0.56241149190E+01  0.15312410099E+03  0.23322111485E+03  0.17321616133E+03 0.  0.
        -24    2    3    3    0    0  0.32034133261E+01  0.24407956906E+02  0.16646370392E+03  0.18615646421E+03  0.79611897532E+02 0.  0.
          6    2    1    2  501    0  0.30160054653E+02  0.56241149190E+01  0.72183233006E+03  0.74239014448E+03  0.17076285994E+03 0.  0.
         24    2    5    5    0    0  0.50468305567E+02 -0.48633621587E+02  0.45996392687E+03  0.47414869053E+03  0.91312034784E+02 0.  0.
          5    1    5    5  501    0 -0.20308250914E+02  0.54257736506E+02  0.26186840319E+03  0.26824145394E+03  0.47000000000E+01 0. -1.
        -11    1    6    6    0    0  0.34580823059E+02  0.21760851184E+02  0.21180530892E+03  0.21571012228E+03  0.00000000000E+00 0.  1.
         12    1    6    6    0    0  0.15887482508E+02 -0.70394472771E+02  0.24815861795E+03  0.25843856825E+03  0.00000000000E+00 0. -1.
         -5    1    3    3    0  503 -0.33363467980E+02 -0.30032071825E+02 -0.13339602930E+02  0.47064650642E+02  0.47000000000E+01 0.  1.
         13    1    4    4    0    0  0.31509133858E+02 -0.14926895540E+02  0.70587430228E+02  0.78728794181E+02  0.00000000000E+00 0. -1.
        -14    1    4    4    0    0 -0.28305720532E+02  0.39334852446E+02  0.95876273689E+02  0.10742767003E+03  0.00000000000E+00 0.  1.
</event>
<event>
12    1  0.8747122E-002  0.2056848E+03  0.7818608E-02  0.1145528E+00
         21   -1    0    0  503  502  0.00000000000E+00  0.00000000000E+00  0.34877787973E+03  0.34877787973E+03  0.00000000000E+00 0.  1.
         21   -1    0    0  501  503 -0.00000000000E+00 -0.00000000000E+00 -0.18456679170E+03  0.18456679170E+03  0.00000000000E+00 0. -1.
          6    2    1    2  501    0 -0.82881384529E+02 -0.75266884574E+02 -0.75465691397E+02  0.21909198064E+03  0.17254505959E+03 0.  0.
         24    2    3    3    0    0 -0.99599937236E+02 -0.13438339319E+02 -0.84291382717E+02  0.15426712553E+03  0.81194657204E+02 0.  0.
         -6    2    1    2    0  502  0.82881384529E+02  0.75266884574E+02  0.23967677943E+03  0.31425269079E+03  0.16963303703E+03 0.  0.
        -24    2    5    5    0    0  0.31879742446E+01  0.89416296494E+02  0.16569426419E+03  0.20449501196E+03  0.79738218390E+02 0.  0.
          5    1    3    3  501    0  0.16718552708E+02 -0.61828545255E+02  0.88256913196E+01  0.64824855112E+02  0.47000000000E+01 0. -1.
        -11    1    4    4    0    0 -0.20225943933E+02 -0.34581713881E+02 -0.54865051592E+01  0.40436190248E+02  0.00000000000E+00 0.  1.
         12    1    4    4    0    0 -0.79373993303E+02  0.21143374562E+02 -0.78804877558E+02  0.11383093528E+03  0.00000000000E+00 0. -1.
         -5    1    5    5    0  502  0.79693410284E+02 -0.14149411920E+02  0.73982515245E+02  0.10975767883E+03  0.47000000000E+01 0.  1.
         11    1    6    6    0    0  0.28202082643E+02  0.64727410724E+02  0.58515886731E+02  0.91701167737E+02  0.00000000000E+00 0. -1.
        -12    1    6    6    0    0 -0.25014108399E+02  0.24688885770E+02  0.10717837746E+03  0.11279384422E+03  0.00000000000E+00 0.  1.
</event>
<event>
12    1  0.8747122E-002  0.1850232E+03  0.7818608E-02  0.1163232E+00
         21   -1    0    0  503  502  0.00000000000E+00  0.00000000000E+00  0.12588876052E+03  0.12588876052E+03  0.00000000000E+00 0.  1.
         21   -1    0    0  501  503 -0.00000000000E+00 -0.00000000000E+00 -0.37299838531E+03  0.37299838531E+03  0.00000000000E+00 0.  1.
          6    2    1    2  501    0 -0.72430602325E+00 -0.68369403071E+02 -0.25442430385E+03  0.31458752787E+03  0.17192639822E+03 0.  0.
         24    2    3    3    0    0  0.37187783301E+02 -0.58235995846E+02 -0.25350803830E+03  0.27505346659E+03  0.81324790571E+02 0.  0.
         -6    2    1    2    0  502  0.72430602325E+00  0.68369403071E+02  0.73146790684E+01  0.18429961796E+03  0.17099106630E+03 0.  0.
        -24    2    5    5    0    0 -0.27331047577E+02  0.10274079300E+03 -0.14483819571E+02  0.13464319990E+03  0.81340970874E+02 0.  0.
          5    1    3    3  501    0 -0.37912089325E+02 -0.10133407224E+02 -0.91626555518E+00  0.39534061283E+02  0.47000000000E+01 0. -1.
        -11    1    4    4    0    0  0.55300482536E+02 -0.63201076603E+02 -0.23069051425E+03  0.24550077967E+03  0.00000000000E+00 0.  1.
         12    1    4    4    0    0 -0.18112699235E+02  0.49650807564E+01 -0.22817524042E+02  0.29552686915E+02  0.00000000000E+00 0. -1.
         -5    1    5    5    0  502  0.28055353600E+02 -0.34371389931E+02  0.21798498640E+02  0.49656418058E+02  0.47000000000E+01 0.  1.
         13    1    6    6    0    0 -0.47979740737E+02  0.39646942436E+02 -0.25658845643E+02  0.67322447411E+02  0.00000000000E+00 0. -1.
        -14    1    6    6    0    0  0.20648693161E+02  0.63093850565E+02  0.11175026071E+02  0.67320752492E+02  0.00000000000E+00 0.  1.
</event>
<event>
12    1  0.8747122E-002  0.2182483E+03  0.7818608E-02  0.1135619E+00
         21   -1    0    0  503  502  0.00000000000E+00  0.00000000000E+00  0.12358015743E+04  0.12358015743E+04  0.00000000000E+00 0.  1.
         21   -1    0    0  501  503 -0.00000000000E+00 -0.00000000000E+00 -0.52530145906E+02  0.52530145906E+02  0.00000000000E+00 0. -1.
          6    2    1    2  501    0 -0.11481165947E+03  0.69956845669E+02  0.25238930584E+03  0.33220733497E+03  0.16907298511E+03 0.  0.
         24    2    3    3    0    0 -0.58490719925E+02  0.99672431453E+01  0.44660323842E+02  0.10872529854E+03  0.79411181603E+02 0.  0.
         -6    2    1    2    0  502  0.11481165947E+03 -0.69956845669E+02  0.93088212251E+03  0.95612438519E+03  0.17192043669E+03 0.  0.
        -24    2    5    5    0    0 -0.11895626472E+02 -0.30953241029E+02  0.35383991343E+03  0.36402995139E+03  0.78838519219E+02 0.  0.
          5    1    3    3  501    0 -0.56320939549E+02  0.59989602524E+02  0.20772898200E+03  0.22348203643E+03  0.47000000000E+01 0. -1.
        -11    1    4    4    0    0 -0.46996483911E+02 -0.11513381494E+02  0.62128415182E+02  0.78747491557E+02  0.00000000000E+00 0.  1.
         12    1    4    4    0    0 -0.11494236014E+02  0.21480624639E+02 -0.17468091340E+02  0.29977806983E+02  0.00000000000E+00 0. -1.
         -5    1    5    5    0  502  0.12670728595E+03 -0.39003604640E+02  0.57704220908E+03  0.59209443381E+03  0.47000000000E+01 0.  1.
         13    1    6    6    0    0 -0.29771893888E+02  0.29266200758E+01  0.27232076919E+03  0.27395899712E+03  0.00000000000E+00 0. -1.
        -14    1    6    6    0    0  0.17876267416E+02 -0.33879861105E+02  0.81519144236E+02  0.90070954265E+02  0.00000000000E+00 0.  1.
</event>
<event>
12    1  0.8747122E-002  0.2329157E+03  0.7818608E-02  0.1124914E+00
         21   -1    0    0  501  502  0.00000000000E+00  0.00000000000E+00  0.49952845531E+03  0.49952845531E+03  0.00000000000E+00 0.  1.
         21   -1    0    0  502  503 -0.00000000000E+00 -0.00000000000E+00 -0.11827829502E+03  0.11827829502E+03  0.00000000000E+00 0. -1.
         -6    2    1    2    0  503 -0.13878881393E+03  0.66792415115E+02  0.97897683227E+02  0.25101204198E+03  0.17233550780E+03 0.  0.
        -24    2    3    3    0    0 -0.13949442995E+03 -0.29965161703E+01  0.83088567741E+02  0.17951104391E+03  0.76503788804E+02 0.  0.
          6    2    1    2  501    0  0.13878881393E+03 -0.66792415115E+02  0.28335247706E+03  0.36679470834E+03  0.17471740102E+03 0.  0.
         24    2    5    5    0    0  0.11178781735E+03 -0.42046033265E+02  0.29474600472E+03  0.32815095459E+03  0.80891635392E+02 0.  0.
          5    1    5    5  501    0  0.27000996588E+02 -0.24746381850E+02 -0.11393527663E+02  0.38643753751E+02  0.47000000000E+01 0. -1.
        -13    1    6    6    0    0  0.37444053769E+02 -0.35683878061E+02  0.48710965191E+02  0.71050365559E+02  0.00000000000E+00 0.  1.
         14    1    6    6    0    0  0.74343763577E+02 -0.63621552033E+01  0.24603503953E+03  0.25710058903E+03  0.00000000000E+00 0. -1.
         -5    1    3    3    0  503  0.70561601429E+00  0.69788931285E+02  0.14809115486E+02  0.71500998072E+02  0.47000000000E+01 0.  1.
         13    1    4    4    0    0 -0.44389801730E+02 -0.36965665977E+02  0.24405904637E+02  0.62710151809E+02  0.00000000000E+00 0. -1.
        -14    1    4    4    0    0 -0.95104628219E+02  0.33969149807E+02  0.58682663103E+02  0.11680089210E+03  0.00000000000E+00 0.  1.
</event>
<event>
12    1  0.8747122E-002  0.1827341E+03  0.7818608E-02  0.1165645E+00
         21   -1    0    0  501  502  0.00000000000E+00  0.00000000000E+00  0.91644288073E+03  0.91644288073E+03  0.00000000000E+00 0.  1.
         21   -1    0    0  502  503 -0.00000000000E+00 -0.00000000000E+00 -0.14023221244E+03  0.14023221244E+03  0.00000000000E+00 0.  1.
         -6    2    1    2    0  503 -0.59964616014E+02  0.16596185424E+02 -0.66750050550E+02  0.19454387886E+03  0.17181549118E+03 0.  0.
        -24    2    3    3    0    0 -0.41308480865E+02  0.64844318981E+02 -0.17761699256E+01  0.11135957184E+03  0.80539575152E+02 0.  0.
          6    2    1    2  501    0  0.59964616014E+02 -0.16596185424E+02  0.84296071884E+03  0.86213121431E+03  0.16975355266E+03 0.  0.
         24    2    5    5    0    0  0.25437857715E+02 -0.71570429152E+02  0.63083145679E+03  0.64024120028E+03  0.78683268347E+02 0.  0.
          5    1    5    5  501    0  0.34526758299E+02  0.54974243728E+02  0.21212926204E+03  0.22189001403E+03  0.47000000000E+01 0. -1.
        -13    1    6    6    0    0  0.51527368244E+02 -0.31124281391E+02  0.39356696566E+03  0.39814412847E+03  0.00000000000E+00 0.  1.
         14    1    6    6    0    0 -0.26089510529E+02 -0.40446147761E+02  0.23726449113E+03  0.24209707181E+03  0.00000000000E+00 0. -1.
         -5    1    3    3    0  503 -0.18656135149E+02 -0.48248133557E+02 -0.64973880625E+02  0.83184307017E+02  0.47000000000E+01 0.  1.
         11    1    4    4    0    0 -0.22548754327E+02  0.16707222498E+02  0.37231706141E+02  0.46623787357E+02  0.00000000000E+00 0. -1.
        -12    1    4    4    0    0 -0.18759726538E+02  0.48137096482E+02 -0.39007876067E+02  0.64735784484E+02  0.00000000000E+00 0.  1.
</event>
<event>
12    1  0.8747122E-002  0.1884649E+03  0.7818608E-02  0.1160184E+00
         21   -1    0    0  501  502  0.00000000000E+00  0.00000000000E+00  0.51335912606E+03  0.51335912606E+03  0.00000000000E+00 0.  1.
         21   -1    0    0  502  503 -0.00000000000E+00 -0.00000000000E+00 -0.72582824805E+02  0.72582824805E+02  0.00000000000E+00 0.  1.
         -6    2    1    2    0  503  0.69387065884E+02  0.24279387571E+02  0.15147929467E+03  0.24067134642E+03  0.17196705121E+03 0.  0.
        -24    2    3    3    0    0  0.78315312365E+01 -0.15797787671E+01  0.15414198424E+03  0.17368657020E+03  0.79645745525E+02 0.  0.
          6    2    1    2  501    0 -0.69387065884E+02 -0.24279387571E+02  0.28929700659E+03  0.34527060444E+03  0.17353667825E+03 0.  0.
         24    2    5    5    0    0 -0.46375529619E+02 -0.82767879507E+02  0.18833238757E+03  0.22624800665E+03  0.81962556590E+02 0.  0.
          5    1    5    5  501    0 -0.23011536265E+02  0.58488491935E+02  0.10096461902E+03  0.11902259779E+03  0.47000000000E+01 0. -1.
        -13    1    6    6    0    0 -0.28905218579E+02 -0.53818573892E+02  0.18182767451E+03  0.19181567656E+03  0.00000000000E+00 0.  1.
         14    1    6    6    0    0 -0.17470311040E+02 -0.28949305615E+02  0.65047130522E+01  0.34432330089E+02  0.00000000000E+00 0. -1.
         -5    1    3    3    0  503  0.61555534647E+02  0.25859166338E+02 -0.26626895750E+01  0.66984776220E+02  0.47000000000E+01 0.  1.
         13    1    4    4    0    0 -0.12824322386E+02  0.34979477014E+02  0.84769926739E+02  0.92595720938E+02  0.00000000000E+00 0. -1.
        -14    1    4    4    0    0  0.20655853623E+02 -0.36559255781E+02  0.69372057502E+02  0.81090849263E+02  0.00000000000E+00 0.  1.
</event>
<event>
12    1  0.8747122E-002  0.2701651E+03  0.7818608E-02  0.1101371E+00
         21   -1    0    0  501  502  0.00000000000E+00  0.00000000000E+00  0.32114447047E+03  0.32114447047E+03  0.00000000000E+00 0. -1.
         21   -1    0    0  502  503 -0.00000000000E+00 -0.00000000000E+00 -0.25791820075E+03  0.25791820075E+03  0.00000000000E+00 0. -1.
         -6    2    1    2    0  503 -0.44650600365E+02 -0.20169743539E+03 -0.70002174042E+02  0.27783348655E+03  0.17209186594E+03 0.  0.
        -24    2    3    3    0    0  0.12239694779E+02 -0.15428643245E+03 -0.96325588305E+02  0.19909771946E+03  0.80044797237E+02 0.  0.
          6    2    1    2  501    0  0.44650600365E+02  0.20169743539E+03  0.13322844377E+03  0.30122918467E+03  0.17410821895E+03 0.  0.
         24    2    5    5    0    0  0.38641000584E+02  0.14613441451E+03  0.16395778179E+03  0.23727805649E+03  0.81057558897E+02 0.  0.
          5    1    5    5  501    0  0.60095997811E+01  0.55563020888E+02 -0.30729338018E+02  0.63951128174E+02  0.47000000000E+01 0. -1.
        -13    1    6    6    0    0 -0.25231163658E+02  0.36818224005E+02  0.48776540222E+02  0.66116141103E+02  0.00000000000E+00 0.  1.
         14    1    6    6    0    0  0.63872164242E+02  0.10931619050E+03  0.11518124157E+03  0.17116191539E+03  0.00000000000E+00 0. -1.
         -5    1    3    3    0  503 -0.56890295144E+02 -0.47411002941E+02  0.26323414263E+02  0.78735767094E+02  0.47000000000E+01 0.  1.
         11    1    4    4    0    0 -0.23149279298E+02 -0.12569926627E+03 -0.61698452938E+02  0.14192566282E+03  0.00000000000E+00 0. -1.
        -12    1    4    4    0    0  0.35388974077E+02 -0.28587166187E+02 -0.34627135366E+02  0.57172056641E+02  0.00000000000E+00 0.  1.
</event>
<event>
12    1  0.8747122E-002  0.2154667E+03  0.7818608E-02  0.1137539E+00
         21   -1    0    0  503  502  0.00000000000E+00  0.00000000000E+00  0.57716558438E+02  0.57716558438E+02  0.00000000000E+00 0. -1.
         21   -1    0    0  501  503 -0.00000000000E+00 -0.00000000000E+00 -0.11220386552E+04  0.11220386552E+04  0.00000000000E+00 0.  1.
          6    2    1    2  501    0 -0.75204045441E+02 -0.10339860118E+03 -0.84927867411E+03  0.87618501585E+03  0.17343297415E+03 0.  0.
         24    2    3    3    0    0 -0.32557018950E+02  0.42058249036E+01 -0.51902576243E+03  0.52620422058E+03  0.80159161973E+02 0.  0.
         -6    2    1    2    0  502  0.75204045441E+02  0.10339860118E+03 -0.21504342267E+03  0.30357019781E+03  0.17194264214E+03 0.  0.
        -24    2    5    5    0    0 -0.16722335357E+02  0.86721072623E+02 -0.13647817288E+03  0.18140969715E+03  0.80517113782E+02 0.  0.
          5    1    3    3  501    0 -0.42647026491E+02 -0.10760442608E+03 -0.33025291168E+03  0.34998079527E+03  0.47000000000E+01 0. -1.
        -11    1    4    4    0    0  0.10369456120E+02 -0.29628543904E+02 -0.21935432932E+03  0.22158902957E+03  0.00000000000E+00 0.  1.
         12    1    4    4    0    0 -0.42926475070E+02  0.33834368808E+02 -0.29967143311E+03  0.30461519101E+03  0.00000000000E+00 0. -1.
         -5    1    5    5    0  502  0.91926380798E+02  0.16677528556E+02 -0.78565249791E+02  0.12216050065E+03  0.47000000000E+01 0.  1.
         11    1    6    6    0    0  0.14987837687E+02 -0.46004619555E+00  0.15803932897E+01  0.15077949595E+02  0.00000000000E+00 0. -1.
        -12    1    6    6    0    0 -0.31710173044E+02  0.87181118818E+02 -0.13805856617E+03  0.16633174756E+03  0.00000000000E+00 0.  1.
</event>
<event>
12    1  0.8747122E-002  0.1813598E+03  0.7818608E-02  0.1166887E+00
         21   -1    0    0  501  502  0.00000000000E+00  0.00000000000E+00  0.68476282147E+02  0.68476282147E+02  0.00000000000E+00 0.  1.
         21   -1    0    0  502  503 -0.00000000000E+00 -0.00000000000E+00 -0.53628145809E+03  0.53628145809E+03  0.00000000000E+00 0.  1.
         -6    2    1    2    0  503 -0.33392008839E+02 -0.48183975804E+02 -0.33620893872E+03  0.38200502698E+03  0.17162362419E+03 0.  0.
        -24    2    3    3    0    0  0.26900294752E+02  0.22596400321E+02 -0.12716720928E+03  0.15316980643E+03  0.77815598174E+02 0.  0.
          6    2    1    2  501    0  0.33392008839E+02  0.48183975804E+02 -0.13159623722E+03  0.22275271326E+03  0.16989549680E+03 0.  0.
         24    2    5    5    0    0  0.35021635143E+02  0.59405744283E+02 -0.15995644541E+03  0.19185004058E+03  0.80404081113E+02 0.  0.
          5    1    5    5  501    0 -0.16296263036E+01 -0.11221768479E+02  0.28360208195E+02  0.30902672676E+02  0.47000000000E+01 0. -1.
        -11    1    6    6    0    0  0.43791528638E+02  0.69286121589E+02 -0.94590460014E+02  0.12516237354E+03  0.00000000000E+00 0.  1.
         12    1    6    6    0    0 -0.87698934954E+01 -0.98803773061E+01 -0.65365985399E+02  0.66687667037E+02  0.00000000000E+00 0. -1.
         -5    1    3    3    0  503 -0.60292303591E+02 -0.70780376125E+02 -0.20904172944E+03  0.22883522055E+03  0.47000000000E+01 0.  1.
         11    1    4    4    0    0  0.25533824233E+01 -0.26247268323E+00  0.10860353225E+02  0.11159566563E+02  0.00000000000E+00 0. -1.
        -12    1    4    4    0    0  0.24346912329E+02  0.22858873005E+02 -0.13802756250E+03  0.14201023986E+03  0.00000000000E+00 0.  1.
</event>
<event>
12    1  0.8747122E-002  0.1874471E+03  0.7818608E-02  0.1161060E+00
         21   -1    0    0  503  502  0.00000000000E+00  0.00000000000E+00  0.54429205258E+02  0.54429205258E+02  0.00000000000E+00 0. -1.
         21   -1    0    0  501  503 -0.00000000000E+00 -0.00000000000E+00 -0.86780296788E+03  0.86780296788E+03  0.00000000000E+00 0.  1.
          6    2    1    2  501    0  0.69762054308E+02  0.26725136108E+01 -0.64315799920E+03  0.66991686792E+03  0.17396123542E+03 0.  0.
         24    2    3    3    0    0  0.69032136650E+02 -0.26457383021E+02 -0.62662391262E+03  0.63608567407E+03  0.80511042052E+02 0.  0.
         -6    2    1    2    0  502 -0.69762054308E+02 -0.26725136108E+01 -0.17021576342E+03  0.25231530523E+03  0.17267229246E+03 0.  0.
        -24    2    5    5    0    0 -0.21005612699E+02 -0.50153712085E+02 -0.37655770050E+02  0.10323178283E+03  0.79260414883E+02 0.  0.
          5    1    3    3  501    0  0.72991765723E+00  0.29129896632E+02 -0.16534086586E+02  0.33831193842E+02  0.47000000000E+01 0. -1.
        -13    1    4    4    0    0  0.34167445188E+02  0.21546085126E+02 -0.39204689219E+03  0.39412233351E+03  0.00000000000E+00 0.  1.
         14    1    4    4    0    0  0.34864691462E+02 -0.48003468147E+02 -0.23457702042E+03  0.24196334056E+03  0.00000000000E+00 0. -1.
         -5    1    5    5    0  502 -0.48756441608E+02  0.47481198475E+02 -0.13255999337E+03  0.14908352240E+03  0.47000000000E+01 0.  1.
         11    1    6    6    0    0 -0.37557708639E+01  0.26513089868E+01  0.21556059281E+02  0.22040847212E+02  0.00000000000E+00 0. -1.
        -12    1    6    6    0    0 -0.17249841835E+02 -0.52805021072E+02 -0.59211829331E+02  0.81190935618E+02  0.00000000000E+00 0.  1.
</event>
<event>
12    1  0.8747122E-002  0.1787589E+03  0.7818608E-02  0.1169389E+00
         21   -1    0    0  503  502  0.00000000000E+00  0.00000000000E+00  0.20502578489E+03  0.20502578489E+03  0.00000000000E+00 0.  1.
         21   -1    0    0  501  503 -0.00000000000E+00 -0.00000000000E+00 -0.16066899005E+03  0.16066899005E+03  0.00000000000E+00 0.  1.
          6    2    1    2  501    0  0.33768877301E+02 -0.35154417647E+02 -0.13520208955E+02  0.17926948960E+03  0.17198425421E+03 0.  0.
         24    2    3    3    0    0  0.33178531988E+02  0.11554631855E+02  0.46122669851E+02  0.10336529469E+03  0.85573120604E+02 0.  0.
         -6    2    1    2    0  502 -0.33768877301E+02  0.35154417647E+02  0.57877003791E+02  0.18642528534E+03  0.17037743188E+03 0.  0.
        -24    2    5    5    0    0 -0.37792972644E+02 -0.32689737793E+02 -0.46711407148E+01  0.93940783119E+02  0.79411104004E+02 0.  0.
          5    1    3    3  501    0  0.59034531329E+00 -0.46709049502E+02 -0.59642878806E+02  0.75904194912E+02  0.47000000000E+01 0. -1.
        -11    1    4    4    0    0 -0.57211366684E+01 -0.30662275012E+02  0.31054483034E+02  0.44014627457E+02  0.00000000000E+00 0.  1.
         12    1    4    4    0    0  0.38899668656E+02  0.42216906867E+02  0.15068186817E+02  0.59350667233E+02  0.00000000000E+00 0. -1.
         -5    1    5    5    0  502  0.40240953423E+01  0.67844155440E+02  0.62548144505E+02  0.92484502224E+02  0.47000000000E+01 0.  1.
         13    1    6    6    0    0 -0.41602373374E+02  0.11840549991E+02 -0.18662692290E+02  0.47108939470E+02  0.00000000000E+00 0. -1.
        -14    1    6    6    0    0  0.38094007303E+01 -0.44530287784E+02  0.13991551576E+02  0.46831843649E+02  0.00000000000E+00 0.  1.
</event>
<event>
12    1  0.8747122E-002  0.1887319E+03  0.7818608E-02  0.1159629E+00
         21   -1    0    0  503  502  0.00000000000E+00  0.00000000000E+00  0.12375675640E+04  0.12375675640E+04  0.00000000000E+00 0.  1.
         21   -1    0    0  501  503 -0.00000000000E+00 -0.00000000000E+00 -0.36586966358E+02  0.36586966358E+02  0.00000000000E+00 0.  1.
          6    2    1    2  501    0  0.39565062386E+02 -0.66705883588E+02  0.30589754262E+03  0.35939041447E+03  0.17196829464E+03 0.  0.
         24    2    3    3    0    0  0.80287080219E+02 -0.13102459691E+02  0.23447422715E+03  0.26113060690E+03  0.81199390162E+02 0.  0.
         -6    2    1    2    0  502 -0.39565062386E+02  0.66705883588E+02  0.89508305499E+03  0.91476411586E+03  0.17205999904E+03 0.  0.
        -24    2    5    5    0    0 -0.33932398417E+02 -0.10347976172E+02  0.24249775140E+03  0.25760455178E+03  0.79350219837E+02 0.  0.
          5    1    3    3  501    0 -0.40722017833E+02 -0.53603423897E+02  0.71423315472E+02  0.98259807566E+02  0.47000000000E+01 0. -1.
        -13    1    4    4    0    0  0.34345572400E+02 -0.46293261913E+02  0.13175743306E+03  0.14381483098E+03  0.00000000000E+00 0.  1.
         14    1    4    4    0    0  0.45941507818E+02  0.33190802222E+02  0.10271679409E+03  0.11731577592E+03  0.00000000000E+00 0. -1.
         -5    1    5    5    0  502 -0.56326639690E+01  0.77053859760E+02  0.65258530358E+03  0.65715956408E+03  0.47000000000E+01 0.  1.
         13    1    6    6    0    0  0.24158172409E+02 -0.11890400863E+02  0.53803460848E+02  0.60164867872E+02  0.00000000000E+00 0. -1.
        -14    1    6    6    0    0 -0.58090570826E+02  0.15424246912E+01  0.18869429056E+03  0.19743968391E+03  0.00000000000E+00 0.  1.
</event>
<event>
12    1  0.8747122E-002  0.1741831E+03  0.7818608E-02  0.1174124E+00
         21   -1    0    0  503  502  0.00000000000E+00  0.00000000000E+00  0.38484971591E+03  0.38484971591E+03  0.00000000000E+00 0. -1.
         21   -1    0    0  501  503 -0.00000000000E+00 -0.00000000000E+00 -0.98608848136E+02  0.98608848136E+02  0.00000000000E+00 0. -1.
          6    2    1    2  501    0 -0.78463433460E+00 -0.25097338868E+02  0.31415027748E+02  0.17479051305E+03  0.17010093302E+03 0.  0.
         24    2    3    3    0    0 -0.53085592266E+02 -0.51731168158E+02  0.15554935232E+02  0.11381196274E+03  0.84953004583E+02 0.  0.
         -6    2    1    2    0  502  0.78463433460E+00  0.25097338868E+02  0.25482584003E+03  0.30866805099E+03  0.17236375747E+03 0.  0.
        -24    2    5    5    0    0  0.47909716393E+02 -0.94704675012E+01  0.75180026089E+02  0.11969605555E+03  0.79310016471E+02 0.  0.
          5    1    3    3  501    0  0.52300957932E+02  0.26633829290E+02  0.15860092516E+02  0.60978550310E+02  0.47000000000E+01 0. -1.
        -11    1    4    4    0    0 -0.52125020137E+02 -0.73872411422E+02  0.99853050803E+01  0.90960745441E+02  0.00000000000E+00 0.  1.
         12    1    4    4    0    0 -0.96057212923E+00  0.22141243264E+02  0.55696301512E+01  0.22851217300E+02  0.00000000000E+00 0. -1.
         -5    1    5    5    0  502 -0.47125082059E+02  0.34567806369E+02  0.17964581394E+03  0.18897199544E+03  0.47000000000E+01 0.  1.
         11    1    6    6    0    0  0.22335257676E+02 -0.38078277134E+02  0.67356565817E+02  0.80534004518E+02  0.00000000000E+00 0. -1.
        -12    1    6    6    0    0  0.25574458717E+02  0.28607809633E+02  0.78234602712E+01  0.39162051035E+02  0.00000000000E+00 0.  1.
</event>
<event>
12    1  0.8747122E-002  0.1925671E+03  0.7818608E-02  0.1156236E+00
         21   -1    0    0  501  502  0.00000000000E+00  0.00000000000E+00  0.18900513401E+03  0.18900513401E+03  0.00000000000E+00 0.  1.
         21   -1    0    0  502  503 -0.00000000000E+00 -0.00000000000E+00 -0.80539865295E+03  0.80539865295E+03  0.00000000000E+00 0. -1.
         -6    2    1    2    0  503 -0.78889516067E+02 -0.37893669987E+02 -0.74079458068E+03  0.76541406501E+03  0.17153015532E+03 0.  0.
        -24    2    3    3    0    0 -0.10779259467E+03 -0.55759533403E+02 -0.68274028819E+03  0.69798285633E+03  0.79482058236E+02 0.  0.
          6    2    1    2  501    0  0.78889516067E+02  0.37893669987E+02  0.12440106174E+03  0.22898972195E+03  0.17117588214E+03 0.  0.
         24    2    5    5    0    0  0.74573419876E+02  0.90294747638E+02  0.93012097466E+02  0.16757426214E+03  0.75601234469E+02 0.  0.
          5    1    5    5  501    0  0.43160961909E+01 -0.52401077651E+02  0.31388964270E+02  0.61415459806E+02  0.47000000000E+01 0. -1.
        -11    1    6    6    0    0  0.30573596305E+02  0.85176564907E+02  0.41277682096E+02  0.99466773546E+02  0.00000000000E+00 0.  1.
         12    1    6    6    0    0  0.43999823570E+02  0.51181827307E+01  0.51734415370E+02  0.68107488593E+02  0.00000000000E+00 0. -1.
         -5    1    3    3    0  503  0.28903078599E+02  0.17865863415E+02 -0.58054292486E+02  0.67431208681E+02  0.47000000000E+01 0.  1.
         11    1    4    4    0    0 -0.58904698952E+02 -0.54544759142E+02 -0.56215900311E+03  0.56786234167E+03  0.00000000000E+00 0. -1.
        -12    1    4    4    0    0 -0.48887895714E+02 -0.12147742605E+01 -0.12058128508E+03  0.13012051466E+03  0.00000000000E+00 0.  1.
</event>
<event>
12    1  0.8747122E-002  0.1991602E+03  0.7818608E-02  0.1151399E+00
         21   -1    0    0  503  502  0.00000000000E+00  0.00000000000E+00  0.50691484644E+03  0.50691484644E+03  0.00000000000E+00 0.  1.
         21   -1    0    0  501  503 -0.00000000000E+00 -0.00000000000E+00 -0.77284841313E+02  0.77284841313E+02  0.00000000000E+00 0.  1.
          6    2    1    2  501    0 -0.39214297346E+02 -0.88520859995E+02  0.18335110208E+03  0.26746936110E+03  0.16896309871E+03 0.  0.
         24    2    3    3    0    0 -0.19939869199E+02 -0.52817921975E+01  0.24913374709E+02  0.87400348104E+02  0.81195128529E+02 0.  0.
         -6    2    1    2    0  502  0.39214297346E+02  0.88520859995E+02  0.24627890305E+03  0.31673032665E+03  0.17404337954E+03 0.  0.
        -24    2    5    5    0    0 -0.41981738464E+02  0.65303879900E+02  0.11534429221E+03  0.16085285326E+03  0.80884309732E+02 0.  0.
          5    1    3    3  501    0 -0.19274428147E+02 -0.83239067798E+02  0.15843772737E+03  0.18006901300E+03  0.47000000000E+01 0. -1.
        -13    1    4    4    0    0 -0.43329423582E+02 -0.26041571577E+02  0.24373841455E+02  0.56122068256E+02  0.00000000000E+00 0.  1.
         14    1    4    4    0    0  0.23389554383E+02  0.20759779379E+02  0.53953325380E+00  0.31278279848E+02  0.00000000000E+00 0. -1.
         -5    1    5    5    0  502  0.81196035810E+02  0.23216980096E+02  0.13093461083E+03  0.15587747339E+03  0.47000000000E+01 0.  1.
         13    1    6    6    0    0 -0.22359462113E+02 -0.12395956429E+02  0.77919211540E+01  0.26726752834E+02  0.00000000000E+00 0. -1.
        -14    1    6    6    0    0 -0.19622276351E+02  0.77699836329E+02  0.10755237106E+03  0.13412610042E+03  0.00000000000E+00 0.  1.
</event>
<event>
12    1  0.8747122E-002  0.1887922E+03  0.7818608E-02  0.1159706E+00
         21   -1    0    0  503  502  0.00000000000E+00  0.00000000000E+00  0.28075774139E+03  0.28075774139E+03  0.00000000000E+00 0. -1.
         21   -1    0    0  501  503 -0.00000000000E+00 -0.00000000000E+00 -0.13041047881E+03  0.13041047881E+03  0.00000000000E+00 0. -1.
          6    2    1    2  501    0 -0.20880058056E+02  0.75945588960E+02  0.11086927981E+03  0.21893951275E+03  0.17157739867E+03 0.  0.
         24    2    3    3    0    0 -0.51339501987E+02 -0.10125852136E+02  0.42752467418E+02  0.10493047440E+03  0.80276731631E+02 0.  0.
         -6    2    1    2    0  502  0.20880058056E+02 -0.75945588960E+02  0.39477982771E+02  0.19222870744E+03  0.17084980402E+03 0.  0.
        -24    2    5    5    0    0  0.71696739220E+01  0.18589398377E+02 -0.15495742313E+02  0.81915340557E+02  0.77929680049E+02 0.  0.
          5    1    3    3  501    0  0.30459443931E+02  0.86071441096E+02  0.68116812388E+02  0.11400903836E+03  0.47000000000E+01 0. -1.
        -13    1    4    4    0    0  0.17511357345E+02 -0.18843371520E+02  0.60639771792E+01  0.26429001221E+02  0.00000000000E+00 0.  1.
         14    1    4    4    0    0 -0.68850859332E+02  0.87175193837E+01  0.36688490239E+02  0.78501473177E+02  0.00000000000E+00 0. -1.
         -5    1    5    5    0  502  0.13710384134E+02 -0.94534987337E+02  0.54973725084E+02  0.11031336689E+03  0.47000000000E+01 0.  1.
         13    1    6    6    0    0 -0.16540164526E+02  0.36857684086E+02 -0.28336392170E+02  0.49345891825E+02  0.00000000000E+00 0. -1.
        -14    1    6    6    0    0  0.23709838448E+02 -0.18268285709E+02  0.12840649857E+02  0.32569448732E+02  0.00000000000E+00 0.  1.
</event>
<event>
12    1  0.8747122E-002  0.2147165E+03  0.7818608E-02  0.1138577E+00
         21   -1    0    0  503  502  0.00000000000E+00  0.00000000000E+00  0.54345701947E+03  0.54345701947E+03  0.00000000000E+00 0. -1.
         21   -1    0    0  501  503 -0.00000000000E+00 -0.00000000000E+00 -0.94620106505E+02  0.94620106505E+02  0.00000000000E+00 0. -1.
          6    2    1    2  501    0  0.12497226621E+03  0.99227078563E+01  0.11304935483E+03  0.23950909411E+03  0.16990562698E+03 0.  0.
         24    2    3    3    0    0  0.83134677099E+02 -0.49462703789E+02  0.31172140586E+02  0.12995098536E+03  0.80979149449E+02 0.  0.
         -6    2    1    2    0  502 -0.12497226621E+03 -0.99227078563E+01  0.33578755814E+03  0.39856803187E+03  0.17431771103E+03 0.  0.
        -24    2    5    5    0    0 -0.14613833336E+03  0.24477923566E+01  0.20080810020E+03  0.26129976992E+03  0.81186652159E+02 0.  0.
          5    1    3    3  501    0  0.41837589111E+02  0.59385411646E+02  0.81877214246E+02  0.10955810874E+03  0.47000000000E+01 0. -1.
        -11    1    4    4    0    0  0.16367722448E+01  0.37401370879E+01 -0.19708615334E+02  0.20127025791E+02  0.00000000000E+00 0.  1.
         12    1    4    4    0    0  0.81497904854E+02 -0.53202840877E+02  0.50880755919E+02  0.10982395957E+03  0.00000000000E+00 0. -1.
         -5    1    5    5    0  502  0.21166067152E+02 -0.12370500213E+02  0.13497945794E+03  0.13726826196E+03  0.47000000000E+01 0.  1.
         13    1    6    6    0    0 -0.27764165393E+02 -0.18436435349E+02  0.96694677989E+02  0.10227713224E+03  0.00000000000E+00 0. -1.
        -14    1    6    6    0    0 -0.11837416797E+03  0.20884227706E+02  0.10411342221E+03  0.15902263767E+03  0.00000000000E+00 0.  1.
</event>
<event>
12    1  0.8747122E-002  0.2059159E+03  0.7818608E-02  0.1144894E+00
         21   -1    0    0  501  502  0.00000000000E+00  0.00000000000E+00  0.34386234600E+03  0.34386234600E+03  0.00000000000E+00 0.  1.
         21   -1    0    0  502  503 -0.00000000000E+00 -0.00000000000E+00 -0.43154586596E+03  0.43154586596E+03  0.00000000000E+00 0.  1.
         -6    2    1    2    0  503  0.19781990325E+02  0.11017251106E+03 -0.37159564784E+03  0.42483490274E+03  0.17283535447E+03 0.  0.
        -24    2    3    3    0    0 -0.48363456822E+02  0.89067866358E+02 -0.18971725402E+03  0.22940960209E+03  0.79774809840E+02 0.  0.
          6    2    1    2  501    0 -0.19781990325E+02 -0.11017251106E+03  0.28391212787E+03  0.35057330923E+03  0.17252895251E+03 0.  0.
         24    2    5    5    0    0  0.19063807748E+02 -0.14274108913E+02  0.20164269152E+03  0.21830143119E+03  0.80178306692E+02 0.  0.
          5    1    5    5  501    0 -0.38845798073E+02 -0.95898402148E+02  0.82269436349E+02  0.13227187804E+03  0.47000000000E+01 0. -1.
        -11    1    6    6    0    0 -0.29737847230E+02 -0.61974993484E+01  0.47195537930E+02  0.56126351712E+02  0.00000000000E+00 0.  1.
         12    1    6    6    0    0  0.48801654978E+02 -0.80766095648E+01  0.15444715359E+03  0.16217507948E+03  0.00000000000E+00 0. -1.
         -5    1    3    3    0  503  0.68145447147E+02  0.21104644703E+02 -0.18187839381E+03  0.19542530064E+03  0.47000000000E+01 0.  1.
         13    1    4    4    0    0 -0.34820995343E+02  0.95998785875E+02 -0.11780019945E+03  0.15590110839E+03  0.00000000000E+00 0. -1.
        -14    1    4    4    0    0 -0.13542461479E+02 -0.69309195164E+01 -0.71917054575E+02  0.73508493706E+02  0.00000000000E+00 0.  1.
</event>
<event>
12    1  0.8747122E-002  0.2344248E+03  0.7818608E-02  0.1123863E+00
         21   -1    0    0  501  502  0.00000000000E+00  0.00000000000E+00  0.11788132109E+03  0.11788132109E+03  0.00000000000E+00 0. -1.
         21   -1    0    0  502  503 -0.00000000000E+00 -0.00000000000E+00 -0.53151423743E+03  0.53151423743E+03  0.00000000000E+00 0. -1.
         -6    2    1    2    0  503 -0.15094096193E+03  0.15739277231E+02 -0.89349884438E+02  0.24925252288E+03  0.17638741304E+03 0.  0.
        -24    2    3    3    0    0 -0.18832667310E+02  0.35670499805E+02 -0.75270141864E+02  0.11482713729E+03  0.76763424156E+02 0.  0.
          6    2    1    2  501    0  0.15094096193E+03 -0.15739277231E+02 -0.32428303190E+03  0.40014303564E+03  0.17867306837E+03 0.  0.
         24    2    5    5    0    0  0.15554558689E+03 -0.29420973544E+02 -0.17310414906E+03  0.24820378462E+03  0.81117501155E+02 0.  0.
          5    1    5    5  501    0 -0.46046249598E+01  0.13681696313E+02 -0.15117888284E+03  0.15193925102E+03  0.47000000000E+01 0. -1.
        -13    1    6    6    0    0  0.21664116704E+02 -0.36758622908E+02 -0.30390438709E+02  0.52384244536E+02  0.00000000000E+00 0.  1.
         14    1    6    6    0    0  0.13388147018E+03  0.73376493647E+01 -0.14271371035E+03  0.19581954009E+03  0.00000000000E+00 0. -1.
         -5    1    3    3    0  503 -0.13210829462E+03 -0.19931222574E+02 -0.14079742574E+02  0.13442538559E+03  0.47000000000E+01 0.  1.
         11    1    4    4    0    0 -0.45260270700E+02  0.39841816785E+01 -0.38210784602E+02  0.59366908858E+02  0.00000000000E+00 0. -1.
        -12    1    4    4    0    0  0.26427603390E+02  0.31686318126E+02 -0.37059357262E+02  0.55460228434E+02  0.00000000000E+00 0.  1.
</event>
<event>
12    1  0.8747122E-002  0.1762755E+03  0.7818608E-02  0.1171835E+00
         21   -1    0    0  501  502  0.00000000000E+00  0.00000000000E+00  0.58264271867E+02  0.58264271867E+02  0.00000000000E+00 0.  1.
         21   -1    0    0  502  503 -0.00000000000E+00 -0.00000000000E+00 -0.66944799470E+03  0.66944799470E+03  0.00000000000E+00 0.  1.
         -6    2    1    2    0  503 -0.79254512946E+01  0.38768324043E+02 -0.47343667419E+03  0.50518842122E+03  0.17177677590E+03 0.  0.
        -24    2    3    3    0    0 -0.32904106386E+02  0.20233366035E+02 -0.11412076178E+03  0.14449812084E+03  0.79775242639E+02 0.  0.
          6    2    1    2  501    0  0.79254512946E+01 -0.38768324043E+02 -0.13774704865E+03  0.22252384536E+03  0.17022578128E+03 0.  0.
         24    2    5    5    0    0 -0.59047857279E+02 -0.25195793863E+02 -0.60836741109E+02  0.11953392816E+03  0.80410033180E+02 0.  0.
          5    1    5    5  501    0  0.66973308573E+02 -0.13572530181E+02 -0.76910307543E+02  0.10298991719E+03  0.47000000000E+01 0. -1.
        -13    1    6    6    0    0 -0.24961980580E+02  0.14127247441E+02 -0.61095668379E+02  0.67493409229E+02  0.00000000000E+00 0.  1.
         14    1    6    6    0    0 -0.34085876698E+02 -0.39323041304E+02  0.25892726943E+00  0.52040518935E+02  0.00000000000E+00 0. -1.
         -5    1    3    3    0  503  0.24978655091E+02  0.18534958008E+02 -0.35931591241E+03  0.36069030038E+03  0.47000000000E+01 0.  1.
         13    1    4    4    0    0 -0.54380881009E+02 -0.25372025469E+01 -0.53793976441E+02  0.76534368211E+02  0.00000000000E+00 0. -1.
        -14    1    4    4    0    0  0.21476774624E+02  0.22770568582E+02 -0.60326785336E+02  0.67963752624E+02  0.00000000000E+00 0.  1.
</event>
<event>
12    1  0.8747122E-002  0.1757501E+03  0.7818608E-02  0.1172232E+00
         21   -1    0    0  503  502  0.00000000000E+00  0.00000000000E+00  0.41349539219E+03  0.41349539219E+03  0.00000000000E+00 0.  1.
         21   -1    0    0  501  503 -0.00000000000E+00 -0.00000000000E+00 -0.39040880989E+03  0.39040880989E+03  0.00000000000E+00 0.  1.
          6    2    1    2  501    0 -0.10726930355E+02 -0.34176681288E+02 -0.35016405909E+03  0.39134615347E+03  0.17103751337E+03 0.  0.
         24    2    3    3    0    0  0.55966871499E+02 -0.36303289164E+02 -0.24864250622E+03  0.26976777808E+03  0.80630879192E+02 0.  0.
         -6    2    1    2    0  502  0.10726930355E+02  0.34176681288E+02  0.37325064139E+03  0.41255804861E+03  0.17206100546E+03 0.  0.
        -24    2    5    5    0    0  0.66212379269E+02  0.97885466291E+01  0.30203611453E+03  0.31892570917E+03  0.77510635892E+02 0.  0.
          5    1    3    3  501    0 -0.66693801854E+02  0.21266078757E+01 -0.10152155287E+03  0.12157837540E+03  0.47000000000E+01 0. -1.
        -13    1    4    4    0    0  0.34793023146E+02 -0.43736065083E+02 -0.23881928295E+03  0.24527137574E+03  0.00000000000E+00 0.  1.
         14    1    4    4    0    0  0.21173848353E+02  0.74327759195E+01 -0.98232232681E+01  0.24496402334E+02  0.00000000000E+00 0. -1.
         -5    1    5    5    0  502 -0.55485448914E+02  0.24388134659E+02  0.71214526855E+02  0.93632339437E+02  0.47000000000E+01 0.  1.
         11    1    6    6    0    0  0.26199963752E+02  0.33160663956E+02  0.65908897194E+02  0.78294638794E+02  0.00000000000E+00 0. -1.
        -12    1    6    6    0    0  0.40012415517E+02 -0.23372117327E+02  0.23612721734E+03  0.24063107038E+03  0.00000000000E+00 0.  1.
</event>
<event>
12    1  0.8747122E-002  0.1832831E+03  0.7818608E-02  0.1164980E+00
         21   -1    0    0  501  502  0.00000000000E+00  0.00000000000E+00  0.19743510120E+03  0.19743510120E+03  0.00000000000E+00 0. -1.
         21   -1    0    0  502  503 -0.00000000000E+00 -0.00000000000E+00 -0.18177304319E+03  0.18177304319E+03  0.00000000000E+00 0. -1.
         -6    2    1    2    0  503 -0.54723343487E+02 -0.24459947649E+02 -0.42582484674E+02  0.18816470313E+03  0.17320437102E+03 0.  0.
        -24    2    3    3    0    0 -0.96746054194E+02 -0.51598317239E+00 -0.57169691964E+02  0.13742913112E+03  0.79109589567E+02 0.  0.
          6    2    1    2  501    0  0.54723343487E+02  0.24459947649E+02  0.58244542681E+02  0.19104344126E+03  0.17179125803E+03 0.  0.
         24    2    5    5    0    0 -0.33704986556E+02  0.35158795318E+02  0.19202672112E+02  0.93676133844E+02  0.77680811200E+02 0.  0.
          5    1    5    5  501    0  0.88428330042E+02 -0.10698847669E+02  0.39041870569E+02  0.97367307414E+02  0.47000000000E+01 0. -1.
        -11    1    6    6    0    0 -0.32849510706E+02  0.74885480584E+01 -0.24698487526E+02  0.41775399360E+02  0.00000000000E+00 0.  1.
         12    1    6    6    0    0 -0.85547584944E+00  0.27670247260E+02  0.43901159638E+02  0.51900734483E+02  0.00000000000E+00 0. -1.
         -5    1    3    3    0  503  0.42022710707E+02 -0.23943964477E+02  0.14587207291E+02  0.50735572004E+02  0.47000000000E+01 0.  1.
         11    1    4    4    0    0  0.12191125350E+02 -0.60458924942E+01 -0.15594614807E+02  0.20697061732E+02  0.00000000000E+00 0. -1.
        -12    1    4    4    0    0 -0.10893717954E+03  0.55299093218E+01 -0.41575077157E+02  0.11673206939E+03  0.00000000000E+00 0.  1.
</event>
<event>
12    1  0.8747122E-002  0.2615138E+03  0.7818608E-02  0.1106531E+00
         21   -1    0    0  501  502  0.00000000000E+00  0.00000000000E+00  0.48462808447E+02  0.48462808447E+02  0.00000000000E+00 0.  1.
         21   -1    0    0  502  503 -0.00000000000E+00 -0.00000000000E+00 -0.16341232464E+04  0.16341232464E+04  0.00000000000E+00 0. -1.
         -6    2    1    2    0  503  0.13937109890E+03  0.13453226549E+03 -0.11134297480E+04  0.11437286663E+04  0.17568786131E+03 0.  0.
        -24    2    3    3    0    0  0.25677496187E+02  0.11614917696E+03 -0.69445764227E+03  0.70918995840E+03  0.80802320960E+02 0.  0.
          6    2    1    2  501    0 -0.13937109890E+03 -0.13453226549E+03 -0.47223068986E+03  0.53885738851E+03  0.17274902904E+03 0.  0.
         24    2    5    5    0    0 -0.30848723026E+02 -0.11117040368E+03 -0.32770422980E+03  0.35655853960E+03  0.80208650210E+02 0.  0.
          5    1    5    5  501    0 -0.10852237587E+03 -0.23361861803E+02 -0.14452646007E+03  0.18229884890E+03  0.47000000000E+01 0. -1.
        -13    1    6    6    0    0  0.20405287605E+02 -0.28636157227E+02 -0.41936153280E+02  0.54727015403E+02  0.00000000000E+00 0.  1.
         14    1    6    6    0    0 -0.51254010631E+02 -0.82534246457E+02 -0.28576807652E+03  0.30183152420E+03  0.00000000000E+00 0. -1.
         -5    1    3    3    0  503  0.11369360271E+03  0.18383088528E+02 -0.41897210578E+03  0.43453870790E+03  0.47000000000E+01 0.  1.
         11    1    4    4    0    0  0.32698233586E+02  0.42308411749E+02 -0.46445610972E+03  0.46752396092E+03  0.00000000000E+00 0. -1.
        -12    1    4    4    0    0 -0.70207373995E+01  0.73840765210E+02 -0.23000153255E+03  0.24166599748E+03  0.00000000000E+00 0.  1.
</event>
<event>
12    1  0.8747122E-002  0.2306926E+03  0.7818608E-02  0.1126193E+00
         21   -1    0    0  501  502  0.00000000000E+00  0.00000000000E+00  0.39417805971E+03  0.39417805971E+03  0.00000000000E+00 0.  1.
         21   -1    0    0  502  503 -0.00000000000E+00 -0.00000000000E+00 -0.19070700413E+03  0.19070700413E+03  0.00000000000E+00 0. -1.
         -6    2    1    2    0  503 -0.17016627545E+02  0.15350032906E+03 -0.56455059448E+02  0.23749998371E+03  0.17136846820E+03 0.  0.
        -24    2    3    3    0    0 -0.49595168027E+02  0.16944902901E+03 -0.49410536789E+02  0.20025165987E+03  0.80539878394E+02 0.  0.
          6    2    1    2  501    0  0.17016627545E+02 -0.15350032906E+03  0.25992611502E+03  0.34738508013E+03  0.17106399969E+03 0.  0.
         24    2    5    5    0    0  0.35320269670E-01 -0.54052734370E+02  0.21696607030E+03  0.23763151832E+03  0.80453486553E+02 0.  0.
          5    1    5    5  501    0  0.16981307275E+02 -0.99447594691E+02  0.42960044725E+02  0.10975356181E+03  0.47000000000E+01 0. -1.
        -11    1    6    6    0    0 -0.30667179221E+02 -0.20314616537E+01  0.11574769071E+03  0.11975863486E+03  0.00000000000E+00 0.  1.
         12    1    6    6    0    0  0.30702499491E+02 -0.52021272716E+02  0.10121837959E+03  0.11787288347E+03  0.00000000000E+00 0. -1.
         -5    1    3    3    0  503  0.32578540482E+02 -0.15948699945E+02 -0.70445226588E+01  0.37248323846E+02  0.47000000000E+01 0.  1.
         13    1    4    4    0    0 -0.50971514734E+02  0.49960601965E+02 -0.11633273374E+01  0.71382843831E+02  0.00000000000E+00 0. -1.
        -14    1    4    4    0    0  0.13763467070E+01  0.11948842704E+03 -0.48247209451E+02  0.12886881604E+03  0.00000000000E+00 0.  1.
</event>
<event>
12    1  0.8747122E-002  0.2076997E+03  0.7818608E-02  0.1143457E+00
         21   -1    0    0  501  502  0.00000000000E+00  0.00000000000E+00  0.58730812349E+02  0.58730812349E+02  0.00000000000E+00 0. -1.
         21   -1    0    0  502  503 -0.00000000000E+00 -0.00000000000E+00 -0.75973500837E+03  0.75973500837E+03  0.00000000000E+00 0. -1.
         -6    2    1    2    0  503 -0.46714473270E+02  0.10616531901E+03 -0.27473636723E+03  0.34441143073E+03  0.17229580715E+03 0.  0.
        -24    2    3    3    0    0 -0.84711063049E+02  0.40462175163E+02 -0.21419146849E+03  0.24720845387E+03  0.80130410383E+02 0.  0.
          6    2    1    2  501    0  0.46714473270E+02 -0.10616531901E+03 -0.42626782879E+03  0.47405438999E+03  0.17195925633E+03 0.  0.
         24    2    5    5    0    0  0.62147947328E+02 -0.58321739477E+02 -0.13589977297E+03  0.17932926710E+03  0.80165111441E+02 0.  0.
          5    1    5    5  501    0 -0.15433474057E+02 -0.47843579534E+02 -0.29036805582E+03  0.29472512289E+03  0.47000000000E+01 0. -1.
        -13    1    6    6    0    0  0.27317394930E+02 -0.41833418369E+02 -0.14595465471E+02  0.52050961283E+02  0.00000000000E+00 0.  1.
         14    1    6    6    0    0  0.34830552398E+02 -0.16488321108E+02 -0.12130430750E+03  0.12727830582E+03  0.00000000000E+00 0. -1.
         -5    1    3    3    0  503  0.37996589779E+02  0.65703143849E+02 -0.60544898737E+02  0.97202976855E+02  0.47000000000E+01 0.  1.
         13    1    4    4    0    0 -0.10523321499E+02 -0.31450675613E+01  0.47468846150E+01  0.11965143496E+02  0.00000000000E+00 0. -1.
        -14    1    4    4    0    0 -0.74187741550E+02  0.43607242725E+02 -0.21893835311E+03  0.23524331038E+03  0.00000000000E+00 0.  1.
</event>
<event>
12    1  0.8747122E-002  0.2842450E+03  0.7818608E-02  0.1093636E+00
         21   -1    0    0  503  502  0.00000000000E+00  0.00000000000E+00  0.31062891166E+03  0.31062891166E+03  0.00000000000E+00 0.  1.
         21   -1    0    0  501  503 -0.00000000000E+00 -0.00000000000E+00 -0.38295489281E+03  0.38295489281E+03  0.00000000000E+00 0.  1.
          6    2    1    2  501    0 -0.20069594981E+03  0.98698496658E+02 -0.23382518395E+03  0.36666300039E+03  0.17247400294E+03 0.  0.
         24    2    3    3    0    0 -0.12511523477E+03 -0.23033265441E+01 -0.83170418015E+02  0.17011081578E+03  0.79757406709E+02 0.  0.
         -6    2    1    2    0  502  0.20069594981E+03 -0.98698496658E+02  0.16149920281E+03  0.32692080408E+03  0.17542793997E+03 0.  0.
        -24    2    5    5    0    0  0.10218564244E+03 -0.78116284539E+02  0.16883449704E+03  0.22590692061E+03  0.77361424205E+02 0.  0.
          5    1    3    3  501    0 -0.75580715035E+02  0.10100182320E+03 -0.15065476594E+03  0.19655218461E+03  0.47000000000E+01 0. -1.
        -11    1    4    4    0    0 -0.62905561278E+02  0.38709391936E+02 -0.42755386407E+02  0.85343715238E+02  0.00000000000E+00 0.  1.
         12    1    4    4    0    0 -0.62209673497E+02 -0.41012718480E+02 -0.40415031608E+02  0.84767100538E+02  0.00000000000E+00 0. -1.
         -5    1    5    5    0  502  0.98510307370E+02 -0.20582212119E+02 -0.73352942337E+01  0.10101388348E+03  0.47000000000E+01 0.  1.
         13    1    6    6    0    0  0.12289163016E+02 -0.36584721719E+02  0.11982722583E+02  0.40411026112E+02  0.00000000000E+00 0. -1.
        -14    1    6    6    0    0  0.89896479424E+02 -0.41531562820E+02  0.15685177446E+03  0.18549589449E+03  0.00000000000E+00 0.  1.
</event>
<event>
12    1  0.8747122E-002  0.2144808E+03  0.7818608E-02  0.1139109E+00
         21   -1    0    0  503  502  0.00000000000E+00  0.00000000000E+00  0.16754138049E+03  0.16754138049E+03  0.00000000000E+00 0.  1.
         21   -1    0    0  501  503 -0.00000000000E+00 -0.00000000000E+00 -0.43118186100E+03  0.43118186100E+03  0.00000000000E+00 0. -1.
          6    2    1    2  501    0  0.11775689189E+03 -0.52773309958E+02 -0.31713252244E+03  0.38285123416E+03  0.17131935932E+03 0.  0.
         24    2    3    3    0    0  0.69673681692E+02 -0.78497182556E+02 -0.12095430532E+03  0.17918067763E+03  0.80371273918E+02 0.  0.
         -6    2    1    2    0  502 -0.11775689189E+03  0.52773309958E+02  0.53492041922E+02  0.21587200733E+03  0.16458316186E+03 0.  0.
        -24    2    5    5    0    0 -0.11873113023E+03  0.73561563250E+01  0.78353951170E+02  0.16387324277E+03  0.81017922152E+02 0.  0.
          5    1    3    3  501    0  0.48083210201E+02  0.25723872598E+02 -0.19617821712E+03  0.20367055653E+03  0.47000000000E+01 0. -1.
        -11    1    4    4    0    0  0.12210548201E+02 -0.21576605395E+01 -0.69617527799E+02  0.70713175316E+02  0.00000000000E+00 0.  1.
         12    1    4    4    0    0  0.57463133491E+02 -0.76339522017E+02 -0.51336777520E+02  0.10846750232E+03  0.00000000000E+00 0. -1.
         -5    1    5    5    0  502  0.97423833872E+00  0.45417153633E+02 -0.24861909249E+02  0.51998764562E+02  0.47000000000E+01 0.  1.
         13    1    6    6    0    0 -0.20043424760E+01 -0.22465433393E+02  0.59960833365E+01  0.23338082648E+02  0.00000000000E+00 0. -1.
        -14    1    6    6    0    0 -0.11672678776E+03  0.29821589718E+02  0.72357867834E+02  0.14053516012E+03  0.00000000000E+00 0.  1.
</event>
<event>
12    1  0.8747122E-002  0.1778557E+03  0.7818608E-02  0.1169909E+00
         21   -1    0    0  501  502  0.00000000000E+00  0.00000000000E+00  0.28209836377E+03  0.28209836377E+03  0.00000000000E+00 0. -1.
         21   -1    0    0  502  503 -0.00000000000E+00 -0.00000000000E+00 -0.17443569537E+03  0.17443569537E+03  0.00000000000E+00 0. -1.
         -6    2    1    2    0  503  0.44370471493E+01 -0.43059921641E+02 -0.82636037189E+02  0.19606090721E+03  0.17244512302E+03 0.  0.
        -24    2    3    3    0    0  0.50174765651E+02 -0.73280151107E+02 -0.37642312268E+02  0.12498540900E+03  0.79479060992E+02 0.  0.
          6    2    1    2  501    0 -0.44370471493E+01  0.43059921641E+02  0.19029870558E+03  0.26047315193E+03  0.17250745286E+03 0.  0.
         24    2    5    5    0    0 -0.49124919478E+01 -0.10528475024E+02  0.19044730898E+03  0.20667673581E+03  0.79436227646E+02 0.  0.
          5    1    5    5  501    0  0.47544479850E+00  0.53588396666E+02 -0.14860339792E+00  0.53796416125E+02  0.47000000000E+01 0. -1.
        -13    1    6    6    0    0  0.22656856314E+02 -0.33041417690E+02  0.13473278226E+03  0.14056312119E+03  0.00000000000E+00 0.  1.
         14    1    6    6    0    0 -0.27569348262E+02  0.22512942666E+02  0.55714526717E+02  0.66113614622E+02  0.00000000000E+00 0. -1.
         -5    1    3    3    0  503 -0.45737718501E+02  0.30220229466E+02 -0.44993724921E+02  0.71075498204E+02  0.47000000000E+01 0.  1.
         11    1    4    4    0    0  0.19564257139E+02 -0.35787363343E+02 -0.59289602616E+02  0.71963549877E+02  0.00000000000E+00 0. -1.
        -12    1    4    4    0    0  0.30610508512E+02 -0.37492787764E+02  0.21647290348E+02  0.53021859125E+02  0.00000000000E+00 0.  1.
</event>
<event>
12    1  0.8747122E-002  0.2014189E+03  0.7818608E-02  0.1152329E+00
         21   -1    0    0  501  502  0.00000000000E+00  0.00000000000E+00  0.82744850976E+03  0.82744850976E+03  0.00000000000E+00 0. -1.
         21   -1    0    0  502  503 -0.00000000000E+00 -0.00000000000E+00 -0.51803611281E+02  0.51803611281E+02  0.00000000000E+00 0. -1.
         -6    2    1    2    0  503  0.16900899586E+02 -0.10336492699E+03  0.56297605071E+03  0.59792272765E+03  0.17204536041E+03 0.  0.
        -24    2    3    3    0    0 -0.13855240694E+02 -0.13073297797E+03  0.49341108227E+03  0.51695158951E+03  0.80631076916E+02 0.  0.
          6    2    1    2  501    0 -0.16900899586E+02  0.10336492699E+03  0.21266884778E+03  0.28132939339E+03  0.15148676586E+03 0.  0.
         24    2    5    5    0    0  0.25881433028E+02  0.20003119599E+02  0.13209688455E+03  0.15766270356E+03  0.79611354817E+02 0.  0.
          5    1    5    5  501    0 -0.42782332614E+02  0.83361807392E+02  0.80571963222E+02  0.12366668983E+03  0.47000000000E+01 0. -1.
        -11    1    6    6    0    0 -0.20051324784E+02  0.43114688093E+01  0.93289009794E+02  0.95516929061E+02  0.00000000000E+00 0.  1.
         12    1    6    6    0    0  0.45932757813E+02  0.15691650790E+02  0.38807874761E+02  0.62145774500E+02  0.00000000000E+00 0. -1.
         -5    1    3    3    0  503  0.30756140279E+02  0.27368050979E+02  0.69564968431E+02  0.80971138142E+02  0.47000000000E+01 0.  1.
         13    1    4    4    0    0 -0.10840741752E+02 -0.10589123895E+03  0.24297513155E+03  0.26526852569E+03  0.00000000000E+00 0. -1.
        -14    1    4    4    0    0 -0.30144989422E+01 -0.24841739019E+02  0.25043595073E+03  0.25168306383E+03  0.00000000000E+00 0.  1.
</event>
<event>
12    1  0.8747122E-002  0.1781832E+03  0.7818608E-02  0.1170423E+00
         21   -1    0    0  503  502  0.00000000000E+00  0.00000000000E+00  0.19762308943E+04  0.19762308943E+04  0.00000000000E+00 0. -1.
         21   -1    0    0  501  503 -0.00000000000E+00 -0.00000000000E+00 -0.17932504658E+02  0.17932504658E+02  0.00000000000E+00 0. -1.
          6    2    1    2  501    0 -0.49995661181E+01  0.34420762558E+02  0.64030493330E+03  0.66463498977E+03  0.17475547906E+03 0.  0.
         24    2    3    3    0    0  0.64737223846E+02  0.15268854326E+02  0.40600066224E+03  0.41937880350E+03  0.81351072684E+02 0.  0.
         -6    2    1    2    0  502  0.49995661181E+01 -0.34420762558E+02  0.13179934563E+04  0.13295284092E+04  0.17125786208E+03 0.  0.
        -24    2    5    5    0    0  0.39087495860E+02 -0.75957682244E+02  0.10243951993E+04  0.10310165515E+04  0.79449375480E+02 0.  0.
          5    1    3    3  501    0 -0.69736789964E+02  0.19151908232E+02  0.23430427106E+03  0.24525618627E+03  0.47000000000E+01 0. -1.
        -13    1    4    4    0    0  0.23682909015E+02 -0.23715072650E+02  0.59556946312E+02  0.68339700791E+02  0.00000000000E+00 0.  1.
         14    1    4    4    0    0  0.41054314831E+02  0.38983926976E+02  0.34644371592E+03  0.35103910271E+03  0.00000000000E+00 0. -1.
         -5    1    5    5    0  502 -0.34087929742E+02  0.41536919686E+02  0.29359825702E+03  0.29851185768E+03  0.47000000000E+01 0.  1.
         11    1    6    6    0    0 -0.16421187354E+02 -0.38728873589E+02  0.59129406622E+03  0.59278854054E+03  0.00000000000E+00 0. -1.
        -12    1    6    6    0    0  0.55508683214E+02 -0.37228808654E+02  0.43310113310E+03  0.43822801097E+03  0.00000000000E+00 0.  1.
</event>
<event>
12    1  0.8747122E-002  0.1907365E+03  0.7818608E-02  0.1158310E+00
         21   -1    0    0  501  502  0.00000000000E+00  0.00000000000E+00  0.25371650059E+03  0.25371650059E+03  0.00000000000E+00 0.  1.
         21   -1    0    0  502  503 -0.00000000000E+00 -0.00000000000E+00 -0.14173663823E+03  0.14173663823E+03  0.00000000000E+00 0.  1.
         -6    2    1    2    0  503 -0.70381973582E+02  0.44729374317E+02  0.59771320039E+02  0.19988253863E+03  0.17154031427E+03 0.  0.
        -24    2    3    3    0    0 -0.81868048016E+02  0.65699144187E+02 -0.24235271279E+01  0.13308470807E+03  0.81773536089E+02 0.  0.
          6    2    1    2  501    0  0.70381973582E+02 -0.44729374317E+02  0.52208542323E+02  0.19557060019E+03  0.16902008353E+03 0.  0.
         24    2    5    5    0    0 -0.17625683770E+02 -0.49089269742E+02  0.16119807907E+02  0.10023517554E+03  0.84064386497E+02 0.  0.
          5    1    5    5  501    0  0.88007657353E+02  0.43598954245E+01  0.36088734417E+02  0.95335424647E+02  0.47000000000E+01 0. -1.
        -13    1    6    6    0    0 -0.10806493207E+02  0.12255439487E+02  0.32499908583E+02  0.36376093116E+02  0.00000000000E+00 0.  1.
         14    1    6    6    0    0 -0.68191905633E+01 -0.61344709229E+02 -0.16380100677E+02  0.63859082427E+02  0.00000000000E+00 0. -1.
         -5    1    3    3    0  503  0.11486074433E+02 -0.20969769870E+02  0.62194847167E+02  0.66797830567E+02  0.47000000000E+01 0.  1.
         13    1    4    4    0    0 -0.12424312877E+02  0.62232508747E+02  0.10272531929E+01  0.63468921092E+02  0.00000000000E+00 0. -1.
        -14    1    4    4    0    0 -0.69443735138E+02  0.34666354398E+01 -0.34507803208E+01  0.69615786974E+02  0.00000000000E+00 0.  1.
</event>
<event>
12    1  0.8747122E-002  0.1812361E+03  0.7818608E-02  0.1166763E+00
         21   -1    0    0  501  502  0.00000000000E+00  0.00000000000E+00  0.70814714553E+03  0.70814714553E+03  0.00000000000E+00 0. -1.
         21   -1    0    0  502  503 -0.00000000000E+00 -0.00000000000E+00 -0.64355801585E+02  0.64355801585E+02  0.00000000000E+00 0. -1.
         -6    2    1    2    0  503  0.56382985672E+02 -0.13562070341E+02  0.11727351534E+03  0.21586943356E+03  0.17170778701E+03 0.  0.
        -24    2    3    3    0    0  0.53266686128E+02  0.11971640930E+02  0.10740703025E+01  0.96764090430E+02  0.79884138176E+02 0.  0.
          6    2    1    2  501    0 -0.56382985672E+02  0.13562070341E+02  0.52651782860E+03  0.55663351355E+03  0.17104640818E+03 0.  0.
         24    2    5    5    0    0 -0.76259795085E+02  0.25699387472E+02  0.20728641649E+03  0.23651918007E+03  0.80607997244E+02 0.  0.
          5    1    5    5  501    0  0.19876809413E+02 -0.12137317131E+02  0.31923141211E+03  0.32011433348E+03  0.47000000000E+01 0. -1.
        -11    1    6    6    0    0 -0.12072757570E+02 -0.18180460027E+02  0.91340056100E+01  0.23658204932E+02  0.00000000000E+00 0.  1.
         12    1    6    6    0    0 -0.64187037516E+02  0.43879847499E+02  0.19815241088E+03  0.21286097514E+03  0.00000000000E+00 0. -1.
         -5    1    3    3    0  503  0.31162995442E+01 -0.25533711270E+02  0.11619944504E+03  0.11910534313E+03  0.47000000000E+01 0.  1.
         13    1    4    4    0    0 -0.24505375870E+01  0.35986644833E+02  0.12469773226E+01  0.36091532154E+02  0.00000000000E+00 0. -1.
        -14    1    4    4    0    0  0.55717223715E+02 -0.24015003903E+02 -0.17290702012E+00  0.60672558276E+02  0.00000000000E+00 0.  1.
</event>
<event>
12    1  0.8747122E-002  0.1944727E+03  0.7818608E-02  0.1155743E+00
         21   -1    0    0  501  502  0.00000000000E+00  0.00000000000E+00  0.11518033807E+04  0.11518033807E+04  0.00000000000E+00 0. -1.
         21   -1    0    0  502  503 -0.00000000000E+00 -0.00000000000E+00 -0.31901610490E+02  0.31901610490E+02  0.00000000000E+00 0. -1.
         -6    2    1    2    0  503  0.23617448001E+02 -0.73998859189E+02  0.55610757674E+03  0.58913094882E+03  0.17828635097E+03 0.  0.
        -24    2    3    3    0    0 -0.40309117258E+02  0.70388249493E+01  0.20972876124E+03  0.22766990552E+03  0.78568839871E+02 0.  0.
          6    2    1    2  501    0 -0.23617448001E+02  0.73998859189E+02  0.56379419348E+03  0.59457404238E+03  0.17210689776E+03 0.  0.
         24    2    5    5    0    0 -0.22099618060E+02 -0.27142208727E+01  0.13683235903E+03  0.16074723530E+03  0.81368415654E+02 0.  0.
          5    1    5    5  501    0 -0.15178299409E+01  0.76713080061E+02  0.42696183445E+03  0.43382680708E+03  0.47000000000E+01 0. -1.
        -11    1    6    6    0    0  0.21735003210E+02 -0.22474146708E+02  0.82331432044E+02  0.88067941598E+02  0.00000000000E+00 0.  1.
         12    1    6    6    0    0 -0.43834621271E+02  0.19759925835E+02  0.54500926985E+02  0.72679293703E+02  0.00000000000E+00 0. -1.
         -5    1    3    3    0  503  0.63926565260E+02 -0.81037684138E+02  0.34637881551E+03  0.36146104331E+03  0.47000000000E+01 0.  1.
         13    1    4    4    0    0  0.21339930652E+01 -0.27419763148E+02  0.34557927124E+02  0.44166137080E+02  0.00000000000E+00 0. -1.
        -14    1    4    4    0    0 -0.42443110324E+02  0.34458588098E+02  0.17517083411E+03  0.18350376844E+03  0.00000000000E+00 0.  1.
</event>
<event>
12    1  0.8747122E-002  0.1896960E+03  0.7818608E-02  0.1158843E+00
         21   -1    0    0  503  502  0.00000000000E+00  0.00000000000E+00  0.19084194125E+04  0.19084194125E+04  0.00000000000E+00 0. -1.
         21   -1    0    0  501  503 -0.00000000000E+00 -0.00000000000E+00 -0.34528333460E+02  0.34528333460E+02  0.00000000000E+00 0.  1.
          6    2    1    2  501    0 -0.13095999923E+02 -0.78893437898E+02  0.28081467265E+03  0.33861703775E+03  0.17149034410E+03 0.  0.
         24    2    3    3    0    0  0.59528003335E+02 -0.45482917736E+02  0.17072439371E+03  0.20248302942E+03  0.78995440424E+02 0.  0.
         -6    2    1    2    0  502  0.13095999923E+02  0.78893437898E+02  0.15930764064E+04  0.16043307082E+04  0.17201425803E+03 0.  0.
        -24    2    5    5    0    0 -0.55408655779E+02  0.64730869765E+02  0.11247387977E+04  0.11307742999E+04  0.79705392000E+02 0.  0.
          5    1    3    3  501    0 -0.72624003258E+02 -0.33410520161E+02  0.11009027894E+03  0.13613400833E+03  0.47000000000E+01 0. -1.
        -13    1    4    4    0    0  0.37720958836E+01  0.90772711009E+01 -0.43998572678E+01  0.10769600827E+02  0.00000000000E+00 0.  1.
         14    1    4    4    0    0  0.55755907451E+02 -0.54560188837E+02  0.17512425098E+03  0.19171342859E+03  0.00000000000E+00 0. -1.
         -5    1    5    5    0  502  0.68504655702E+02  0.14162568133E+02  0.46833760867E+03  0.47355640834E+03  0.47000000000E+01 0.  1.
         13    1    6    6    0    0 -0.15168903357E+02  0.15952067089E+02  0.77833357811E+03  0.77864479892E+03  0.00000000000E+00 0. -1.
        -14    1    6    6    0    0 -0.40239752422E+02  0.48778802675E+02  0.34640521962E+03  0.35212950096E+03  0.00000000000E+00 0.  1.
</event>
<event>
12    1  0.8747122E-002  0.1754152E+03  0.7818608E-02  0.1172547E+00
         21   -1    0    0  503  502  0.00000000000E+00  0.00000000000E+00  0.16324970617E+03  0.16324970617E+03  0.00000000000E+00 0. -1.
         21   -1    0    0  501  503 -0.00000000000E+00 -0.00000000000E+00 -0.47429567813E+03  0.47429567813E+03  0.00000000000E+00 0. -1.
          6    2    1    2  501    0 -0.29967619821E+02  0.24931782728E+02 -0.40356670947E+03  0.44004157819E+03  0.17102879735E+03 0.  0.
         24    2    3    3    0    0  0.11791597149E+01  0.47642363101E+02 -0.11064657660E+03  0.14455860648E+03  0.79895810991E+02 0.  0.
         -6    2    1    2    0  502  0.29967619821E+02 -0.24931782728E+02  0.92520737506E+02  0.19750380612E+03  0.17008237573E+03 0.  0.
        -24    2    5    5    0    0 -0.13344398666E+02  0.40311824029E+02  0.19121549100E+02  0.90069221243E+02  0.77095491717E+02 0.  0.
          5    1    3    3  501    0 -0.31146779536E+02 -0.22710580373E+02 -0.29292013286E+03  0.29548297171E+03  0.47000000000E+01 0. -1.
        -13    1    4    4    0    0  0.72364719524E+01 -0.12082963898E+02  0.44303078175E+01  0.14764557908E+02  0.00000000000E+00 0.  1.
         14    1    4    4    0    0 -0.60573122375E+01  0.59725326999E+02 -0.11507688442E+03  0.12979404857E+03  0.00000000000E+00 0. -1.
         -5    1    5    5    0  502  0.43312018487E+02 -0.65243606758E+02  0.73399188406E+02  0.10743458487E+03  0.47000000000E+01 0.  1.
         13    1    6    6    0    0  0.27777136639E+02 -0.18693001788E+01 -0.89046706513E+00  0.27854201382E+02  0.00000000000E+00 0. -1.
        -14    1    6    6    0    0 -0.41121535305E+02  0.42181124208E+02  0.20012016165E+02  0.62215019861E+02  0.00000000000E+00 0.  1.
</event>
<event>
12    1  0.8747122E-002  0.1822084E+03  0.7818608E-02  0.1166918E+00
         21   -1    0    0  501  502  0.00000000000E+00  0.00000000000E+00  0.35907984132E+03  0.35907984132E+03  0.00000000000E+00 0.  1.
         21   -1    0    0  502  503 -0.00000000000E+00 -0.00000000000E+00 -0.20007068577E+03  0.20007068577E+03  0.00000000000E+00 0.  1.
         -6    2    1    2    0  503 -0.40976533262E+02  0.22588695183E+02 -0.12745514124E+03  0.22236169588E+03  0.17609822639E+03 0.  0.
        -24    2    3    3    0    0 -0.86183885067E+02 -0.50211162206E+00 -0.45655029191E+02  0.12597581337E+03  0.79734620472E+02 0.  0.
          6    2    1    2  501    0  0.40976533262E+02 -0.22588695183E+02  0.28646429679E+03  0.33678883121E+03  0.17080865920E+03 0.  0.
         24    2    5    5    0    0  0.14536165424E+02 -0.72517231717E+01  0.29387130572E+03  0.30498836670E+03  0.79960439597E+02 0.  0.
          5    1    5    5  501    0  0.26440367838E+02 -0.15336972011E+02 -0.74070089251E+01  0.31800464510E+02  0.47000000000E+01 0. -1.
        -13    1    6    6    0    0  0.47614224824E+02 -0.66927453374E+01  0.15845801207E+03  0.16559241780E+03  0.00000000000E+00 0.  1.
         14    1    6    6    0    0 -0.33078059400E+02 -0.55897783425E+00  0.13541329365E+03  0.13939594889E+03  0.00000000000E+00 0. -1.
         -5    1    3    3    0  503  0.45207351806E+02  0.23090806805E+02 -0.81800112054E+02  0.96385882515E+02  0.47000000000E+01 0.  1.
         13    1    4    4    0    0  0.10191795052E+02  0.16484166592E+02 -0.50695258914E+01  0.20032486800E+02  0.00000000000E+00 0. -1.
        -14    1    4    4    0    0 -0.96375680120E+02 -0.16986278214E+02 -0.40585503300E+02  0.10594332657E+03  0.00000000000E+00 0.  1.
</event>
<event>
12    1  0.8747122E-002  0.2115631E+03  0.7818608E-02  0.1140495E+00
         21   -1    0    0  503  502  0.00000000000E+00  0.00000000000E+00  0.60009986033E+03  0.60009986033E+03  0.00000000000E+00 0.  1.
         21   -1    0    0  501  503 -0.00000000000E+00 -0.00000000000E+00 -0.81766940797E+02  0.81766940797E+02  0.00000000000E+00 0. -1.
          6    2    1    2  501    0 -0.11879969663E+03  0.21147105575E+02  0.15657661185E+03  0.26320180482E+03  0.17377683012E+03 0.  0.
         24    2    3    3    0    0 -0.39918151107E+02  0.29143188336E+02  0.53997845842E+01  0.92430733890E+02  0.77919822122E+02 0.  0.
         -6    2    1    2    0  502  0.11879969663E+03 -0.21147105575E+02  0.36175630768E+03  0.41866499630E+03  0.17277784868E+03 0.  0.
        -24    2    5    5    0    0  0.14287237311E+03  0.15963927909E+02  0.30523756915E+03  0.34674017191E+03  0.79946302018E+02 0.  0.
          5    1    3    3  501    0 -0.78881545522E+02 -0.79960827616E+01  0.15117682727E+03  0.17077107093E+03  0.47000000000E+01 0. -1.
        -11    1    4    4    0    0  0.83033133614E+00 -0.13964201751E+01  0.33991601503E+02  0.34030404231E+02  0.00000000000E+00 0.  1.
         12    1    4    4    0    0 -0.40748482444E+02  0.30539608511E+02 -0.28591816919E+02  0.58400329658E+02  0.00000000000E+00 0. -1.
         -5    1    5    5    0  502 -0.24072676477E+02 -0.37111033484E+02  0.56518738528E+02  0.71924824392E+02  0.47000000000E+01 0.  1.
         11    1    6    6    0    0  0.55742880364E+02 -0.17869675322E+02  0.57915350453E+02  0.82345502764E+02  0.00000000000E+00 0. -1.
        -12    1    6    6    0    0  0.87129492743E+02  0.33833603232E+02  0.24732221870E+03  0.26439466915E+03  0.00000000000E+00 0.  1.
</event>
<event>
12    1  0.8747122E-002  0.1933485E+03  0.7818608E-02  0.1155929E+00
         21   -1    0    0  501  502  0.00000000000E+00  0.00000000000E+00  0.26616041626E+03  0.26616041626E+03  0.00000000000E+00 0. -1.
         21   -1    0    0  502  503 -0.00000000000E+00 -0.00000000000E+00 -0.14486844089E+03  0.14486844089E+03  0.00000000000E+00 0.  1.
         -6    2    1    2    0  503 -0.27425452009E+02 -0.83590140008E+02  0.18877482584E+02  0.19223130081E+03  0.16987361990E+03 0.  0.
        -24    2    3    3    0    0 -0.83297709475E+00 -0.11312103655E+03 -0.79282520484E+01  0.14406626181E+03  0.88854757037E+02 0.  0.
          6    2    1    2  501    0  0.27425452009E+02  0.83590140008E+02  0.10241449278E+03  0.21879755635E+03  0.17217483965E+03 0.  0.
         24    2    5    5    0    0  0.60739460839E+02  0.11164149876E+03  0.78751321945E+02  0.16901063471E+03  0.78801761320E+02 0.  0.
          5    1    5    5  501    0 -0.33314008830E+02 -0.28051358754E+02  0.23663170837E+02  0.49786921640E+02  0.47000000000E+01 0. -1.
        -13    1    6    6    0    0  0.58668995068E+01  0.77643141166E+02  0.17040845523E+02  0.79707391728E+02  0.00000000000E+00 0.  1.
         14    1    6    6    0    0  0.54872561332E+02  0.33998357596E+02  0.61710476422E+02  0.89303242980E+02  0.00000000000E+00 0. -1.
         -5    1    3    3    0  503 -0.26592474914E+02  0.29530896546E+02  0.26805734632E+02  0.48165039002E+02  0.47000000000E+01 0.  1.
         13    1    4    4    0    0  0.19929539450E+02 -0.13431747375E+01 -0.21760270415E+02  0.29538111477E+02  0.00000000000E+00 0. -1.
        -14    1    4    4    0    0 -0.20762516545E+02 -0.11177786182E+03  0.13832018367E+02  0.11452815033E+03  0.00000000000E+00 0.  1.
</event>
<event>
12    1  0.8747122E-002  0.1985915E+03  0.7818608E-02  0.1153246E+00
         21   -1    0    0  501  502  0.00000000000E+00  0.00000000000E+00  0.10251512432E+04  0.10251512432E+04  0.00000000000E+00 0.  1.
         21   -1    0    0  502  503 -0.00000000000E+00 -0.00000000000E+00 -0.89146939511E+02  0.89146939511E+02  0.00000000000E+00 0.  1.
         -6    2    1    2    0  503 -0.80151606609E+02 -0.67887227608E-01  0.44944039753E+02  0.20361370441E+03  0.18169834690E+03 0.  0.
        -24    2    3    3    0    0  0.53052870122E+01 -0.55427331058E+02  0.24791204026E+02  0.99710983196E+02  0.78913505019E+02 0.  0.
          6    2    1    2  501    0  0.80151606609E+02  0.67887227608E-01  0.89106026394E+03  0.91068447830E+03  0.17009861963E+03 0.  0.
         24    2    5    5    0    0  0.28389463964E+02 -0.61037222868E+02  0.40484165109E+03  0.41789265271E+03  0.78778185376E+02 0.  0.
          5    1    5    5  501    0  0.51762142644E+02  0.61105110095E+02  0.48621861285E+03  0.49279182559E+03  0.47000000000E+01 0. -1.
        -11    1    6    6    0    0  0.51260158327E+02 -0.57894534523E+02  0.26112663137E+03  0.27233526869E+03  0.00000000000E+00 0.  1.
         12    1    6    6    0    0 -0.22870694362E+02 -0.31426883445E+01  0.14371501971E+03  0.14555738402E+03  0.00000000000E+00 0. -1.
         -5    1    3    3    0  503 -0.85456893621E+02  0.55359443830E+02  0.20152835727E+02  0.10390272122E+03  0.47000000000E+01 0.  1.
         13    1    4    4    0    0  0.30793808455E+02 -0.11096307939E+02 -0.13925747143E+02  0.35571240104E+02  0.00000000000E+00 0. -1.
        -14    1    4    4    0    0 -0.25488521443E+02 -0.44331023119E+02  0.38716951169E+02  0.64139743092E+02  0.00000000000E+00 0.  1.
</event>
<event>
12    1  0.8747122E-002  0.1789431E+03  0.7818608E-02  0.1168869E+00
         21   -1    0    0  501  502  0.00000000000E+00  0.00000000000E+00  0.35648472503E+03  0.35648472503E+03  0.00000000000E+00 0. -1.
         21   -1    0    0  502  503 -0.00000000000E+00 -0.00000000000E+00 -0.19706362736E+03  0.19706362736E+03  0.00000000000E+00 0. -1.
         -6    2    1    2    0  503 -0.41074214610E+02  0.25768934603E+02 -0.12455800182E+03  0.21789260769E+03  0.17207952688E+03 0.  0.
        -24    2    3    3    0    0 -0.77630779588E+01 -0.47292019021E+02 -0.93207981422E+02  0.13156504228E+03  0.79528813068E+02 0.  0.
          6    2    1    2  501    0  0.41074214610E+02 -0.25768934603E+02  0.28397909949E+03  0.33565574470E+03  0.17224842789E+03 0.  0.
         24    2    5    5    0    0  0.96083783034E+02 -0.75138197389E+01  0.13986436013E+03  0.18025159438E+03  0.60332803622E+02 0.  0.
          5    1    5    5  501    0 -0.55009568424E+02 -0.18255114864E+02  0.14411473936E+03  0.15540415033E+03  0.47000000000E+01 0. -1.
        -11    1    6    6    0    0  0.31645249043E+01  0.25514360638E+01 -0.58592188841E+01  0.71312333989E+01  0.00000000000E+00 0.  1.
         12    1    6    6    0    0  0.92919258130E+02 -0.10065255803E+02  0.14572357901E+03  0.17312036098E+03  0.00000000000E+00 0. -1.
         -5    1    3    3    0  503 -0.33311136651E+02  0.73060953624E+02 -0.31350020400E+02  0.86327565403E+02  0.47000000000E+01 0.  1.
         13    1    4    4    0    0 -0.22694246390E+02 -0.97882233719E+01 -0.87345441877E+02  0.90774800207E+02  0.00000000000E+00 0. -1.
        -14    1    4    4    0    0  0.14931168431E+02 -0.37503795649E+02 -0.58625395448E+01  0.40790242077E+02  0.00000000000E+00 0.  1.
</event>
<event>
12    1  0.8747122E-002  0.2304722E+03  0.7818608E-02  0.1126323E+00
         21   -1    0    0  501  502  0.00000000000E+00  0.00000000000E+00  0.15135000055E+04  0.15135000055E+04  0.00000000000E+00 0. -1.
         21   -1    0    0  502  503 -0.00000000000E+00 -0.00000000000E+00 -0.68578826936E+02  0.68578826936E+02  0.00000000000E+00 0. -1.
         -6    2    1    2    0  503  0.14732094248E+03 -0.41228050664E+02  0.16954764055E+03  0.28604830906E+03  0.17226148858E+03 0.  0.
        -24    2    3    3    0    0  0.29304023724E+02  0.24657559711E+02  0.10232723571E+03  0.13501990249E+03  0.79327106601E+02 0.  0.
          6    2    1    2  501    0 -0.14732094248E+03  0.41228050664E+02  0.12753735380E+04  0.12960305233E+04  0.17237819988E+03 0.  0.
         24    2    5    5    0    0 -0.12550321407E+03 -0.13480088822E+02  0.11174145010E+04  0.11273825434E+04  0.80271180445E+02 0.  0.
          5    1    5    5  501    0 -0.21817728410E+02  0.54708139486E+02  0.15795903694E+03  0.16864797998E+03  0.47000000000E+01 0. -1.
        -11    1    6    6    0    0  0.93163622756E+01 -0.59598529548E+01  0.17433065406E+03  0.17468111346E+03  0.00000000000E+00 0.  1.
         12    1    6    6    0    0 -0.13481957634E+03 -0.75202358673E+01  0.94308384699E+03  0.95270142991E+03  0.00000000000E+00 0. -1.
         -5    1    3    3    0  503  0.11801691875E+03 -0.65885610375E+02  0.67220404836E+02  0.15102840657E+03  0.47000000000E+01 0.  1.
         13    1    4    4    0    0 -0.22038254400E+00  0.13099320451E+02 -0.11145571413E+02  0.17200712975E+02  0.00000000000E+00 0. -1.
        -14    1    4    4    0    0  0.29524406268E+02  0.11558239260E+02  0.11347280712E+03  0.11781918951E+03  0.00000000000E+00 0.  1.
</event>
<event>
12    1  0.8747122E-002  0.2771128E+03  0.7818608E-02  0.1097315E+00
         21   -1    0    0  503  502  0.00000000000E+00  0.00000000000E+00  0.23346894745E+03  0.23346894745E+03  0.00000000000E+00 0.  1.
         21   -1    0    0  501  503 -0.00000000000E+00 -0.00000000000E+00 -0.36504327844E+03  0.36504327844E+03  0.00000000000E+00 0. -1.
          6    2    1    2  501    0 -0.17911240154E+03  0.12255211063E+03 -0.16038627164E+03  0.32018001286E+03  0.17231138181E+03 0.  0.
         24    2    3    3    0    0 -0.14427285304E+03  0.15643124588E+03 -0.11743566558E+03  0.25515359895E+03  0.77632678012E+02 0.  0.
         -6    2    1    2    0  502  0.17911240154E+03 -0.12255211063E+03  0.28811940654E+02  0.27833221302E+03  0.17186745090E+03 0.  0.
        -24    2    5    5    0    0  0.20052855837E+02 -0.22652234511E+02  0.32245682732E+02  0.90412536271E+02  0.78863184722E+02 0.  0.
          5    1    3    3  501    0 -0.34839548498E+02 -0.33879135253E+02 -0.42950606060E+02  0.65026413910E+02  0.47000000000E+01 0. -1.
        -11    1    4    4    0    0 -0.73379639257E+02  0.79326001210E+02 -0.15808342882E+02  0.10921121568E+03  0.00000000000E+00 0.  1.
         12    1    4    4    0    0 -0.70893213781E+02  0.77105244673E+02 -0.10162732270E+03  0.14594238327E+03  0.00000000000E+00 0. -1.
         -5    1    5    5    0  502  0.15905954570E+03 -0.99899876118E+02 -0.34337420780E+01  0.18791967675E+03  0.47000000000E+01 0.  1.
         11    1    6    6    0    0 -0.22819930261E+02 -0.32809983913E+02  0.10734368720E+02  0.41382012195E+02  0.00000000000E+00 0. -1.
        -12    1    6    6    0    0  0.42872786098E+02  0.10157749401E+02  0.21511314012E+02  0.49030524076E+02  0.00000000000E+00 0.  1.
</event>
<event>
12    1  0.8747122E-002  0.1733522E+03  0.7818608E-02  0.1174594E+00
         21   -1    0    0  503  502  0.00000000000E+00  0.00000000000E+00  0.12024366436E+03  0.12024366436E+03  0.00000000000E+00 0.  1.
         21   -1    0    0  501  503 -0.00000000000E+00 -0.00000000000E+00 -0.25621553122E+03  0.25621553122E+03  0.00000000000E+00 0.  1.
          6    2    1    2  501    0  0.66143935341E+01  0.14796894808E+02 -0.35820176778E+02  0.17625594262E+03  0.17181494099E+03 0.  0.
         24    2    3    3    0    0  0.95518071279E+01  0.69030083438E+02 -0.53676020049E+02  0.11889054986E+03  0.79984112661E+02 0.  0.
         -6    2    1    2    0  502 -0.66143935341E+01 -0.14796894808E+02 -0.10015169008E+03  0.20020325296E+03  0.17259282479E+03 0.  0.
        -24    2    5    5    0    0  0.33002568058E+02  0.18150577502E+01 -0.12414210462E+03  0.15077562300E+03  0.78927577032E+02 0.  0.
          5    1    3    3  501    0 -0.29374135938E+01 -0.54233188630E+02  0.17855843272E+02  0.57365392760E+02  0.47000000000E+01 0. -1.
        -13    1    4    4    0    0  0.41154548909E+02  0.26997660787E+02 -0.42720876376E+02  0.65173950794E+02  0.00000000000E+00 0.  1.
         14    1    4    4    0    0 -0.31602741781E+02  0.42032422652E+02 -0.10955143674E+02  0.53716599064E+02  0.00000000000E+00 0. -1.
         -5    1    5    5    0  502 -0.39616961592E+02 -0.16611952559E+02  0.23990414541E+02  0.49427629960E+02  0.47000000000E+01 0.  1.
         11    1    6    6    0    0  0.46443874308E+02 -0.17779737405E+02 -0.41458400595E+02  0.64745281703E+02  0.00000000000E+00 0. -1.
        -12    1    6    6    0    0 -0.13441306249E+02  0.19594795156E+02 -0.82683704030E+02  0.86030341293E+02  0.00000000000E+00 0.  1.
</event>
<event>
12    1  0.8747122E-002  0.1759972E+03  0.7818608E-02  0.1171885E+00
         21   -1    0    0  501  502  0.00000000000E+00  0.00000000000E+00  0.11670538175E+04  0.11670538175E+04  0.00000000000E+00 0.  1.
         21   -1    0    0  502  503 -0.00000000000E+00 -0.00000000000E+00 -0.31153454980E+02  0.31153454980E+02  0.00000000000E+00 0.  1.
         -6    2    1    2    0  503  0.14995795435E+02 -0.28860667960E+02  0.80155327723E+03  0.82064771278E+03  0.17296589320E+03 0.  0.
        -24    2    3    3    0    0 -0.26906184603E+02  0.25740415627E+02  0.27222071502E+03  0.28683865920E+03  0.82375888226E+02 0.  0.
          6    2    1    2  501    0 -0.14995795435E+02  0.28860667960E+02  0.33434708531E+03  0.37755955972E+03  0.17235264909E+03 0.  0.
         24    2    5    5    0    0 -0.69952196056E+01  0.40562782042E+01  0.34090573135E+03  0.35027636338E+03  0.80071384330E+02 0.  0.
          5    1    5    5  501    0 -0.80005758296E+01  0.24804389756E+02 -0.65586460383E+01  0.27283196342E+02  0.47000000000E+01 0. -1.
        -13    1    6    6    0    0  0.67843374662E+01  0.38545243072E+02  0.23029265209E+03  0.23359466733E+03  0.00000000000E+00 0.  1.
         14    1    6    6    0    0 -0.13779557072E+02 -0.34488964868E+02  0.11061307925E+03  0.11668169605E+03  0.00000000000E+00 0. -1.
         -5    1    3    3    0  503  0.41901980039E+02 -0.54601083587E+02  0.52933256221E+03  0.53380905358E+03  0.47000000000E+01 0.  1.
         11    1    4    4    0    0 -0.28572186883E+01  0.47412860957E+02  0.22245644019E+03  0.22747090114E+03  0.00000000000E+00 0. -1.
        -12    1    4    4    0    0 -0.24048965915E+02 -0.21672445330E+02  0.49764274823E+02  0.59367758058E+02  0.00000000000E+00 0.  1.
</event>
<event>
12    1  0.8747122E-002  0.1751209E+03  0.7818608E-02  0.1173018E+00
         21   -1    0    0  503  502  0.00000000000E+00  0.00000000000E+00  0.40678727795E+02  0.40678727795E+02  0.00000000000E+00 0.  1.
         21   -1    0    0  501  503 -0.00000000000E+00 -0.00000000000E+00 -0.75536960506E+03  0.75536960506E+03  0.00000000000E+00 0. -1.
          6    2    1    2  501    0  0.11267774148E+02  0.20570126399E+02 -0.40103925019E+03  0.43760692064E+03  0.17354320488E+03 0.  0.
         24    2    3    3    0    0  0.68571397650E+02 -0.79571764574E+01 -0.20000749659E+03  0.22657761406E+03  0.81049757994E+02 0.  0.
         -6    2    1    2    0  502 -0.11267774148E+02 -0.20570126399E+02 -0.31365162707E+03  0.35844141221E+03  0.17190930747E+03 0.  0.
        -24    2    5    5    0    0  0.52068331979E+02 -0.13556817720E+02 -0.10977889930E+03  0.14479022929E+03  0.77575158807E+02 0.  0.
          5    1    3    3  501    0 -0.57303623501E+02  0.28527302856E+02 -0.20103175361E+03  0.21102930657E+03  0.47000000000E+01 0. -1.
        -13    1    4    4    0    0 -0.17644316629E+02  0.28106434374E+01 -0.51616363368E+02  0.54621155180E+02  0.00000000000E+00 0.  1.
         14    1    4    4    0    0  0.86215714278E+02 -0.10767819895E+02 -0.14839113322E+03  0.17195645888E+03  0.00000000000E+00 0. -1.
         -5    1    5    5    0  502 -0.63336106128E+02 -0.70133086782E+01 -0.20387272777E+03  0.21365118293E+03  0.47000000000E+01 0.  1.
         11    1    6    6    0    0  0.95996492305E+00 -0.26526876903E+02 -0.79879787533E+02  0.84174682578E+02  0.00000000000E+00 0. -1.
        -12    1    6    6    0    0  0.51108367056E+02  0.12970059182E+02 -0.29899111764E+02  0.60615546707E+02  0.00000000000E+00 0.  1.
</event>
<event>
12    1  0.8747122E-002  0.1769541E+03  0.7818608E-02  0.1172662E+00
         21   -1    0    0  503  502  0.00000000000E+00  0.00000000000E+00  0.54303028091E+03  0.54303028091E+03  0.00000000000E+00 0. -1.
         21   -1    0    0  501  503 -0.00000000000E+00 -0.00000000000E+00 -0.55971876567E+02  0.55971876567E+02  0.00000000000E+00 0. -1.
          6    2    1    2  501    0  0.29301612371E+02 -0.31437373629E+02  0.27190257592E+03  0.32042580928E+03  0.16399632776E+03 0.  0.
         24    2    3    3    0    0  0.20579173901E+02 -0.13695723925E+02  0.28561947169E+03  0.29590866637E+03  0.73296527657E+02 0.  0.
         -6    2    1    2    0  502 -0.29301612371E+02  0.31437373629E+02  0.21515582842E+03  0.27857634819E+03  0.17165622132E+03 0.  0.
        -24    2    5    5    0    0 -0.37642700132E+02  0.70051838750E+02  0.21051695526E+03  0.23852313601E+03  0.79067471036E+02 0.  0.
          5    1    3    3  501    0  0.87224384697E+01 -0.17741649704E+02 -0.13716895779E+02  0.24517142918E+02  0.47000000000E+01 0. -1.
        -13    1    4    4    0    0 -0.20794981706E+02  0.10896787240E+02  0.47639087503E+02  0.53109828605E+02  0.00000000000E+00 0.  1.
         14    1    4    4    0    0  0.41374155607E+02 -0.24592511165E+02  0.23798038419E+03  0.24279883776E+03  0.00000000000E+00 0. -1.
         -5    1    5    5    0  502  0.83410877615E+01 -0.38614465121E+02  0.46388731656E+01  0.40053212179E+02  0.47000000000E+01 0.  1.
         11    1    6    6    0    0 -0.56776361925E+02  0.42658632684E+02  0.97178522878E+02  0.12036186906E+03  0.00000000000E+00 0. -1.
        -12    1    6    6    0    0  0.19133661793E+02  0.27393206066E+02  0.11333843238E+03  0.11816126695E+03  0.00000000000E+00 0.  1.
</event>
<event>
12    1  0.8747122E-002  0.2513238E+03  0.7818608E-02  0.1112678E+00
         21   -1    0    0  501  502  0.00000000000E+00  0.00000000000E+00  0.54057739139E+03  0.54057739139E+03  0.00000000000E+00 0.  1.
         21   -1    0    0  502  503 -0.00000000000E+00 -0.00000000000E+00 -0.13648956782E+03  0.13648956782E+03  0.00000000000E+00 0. -1.
         -6    2    1    2    0  503 -0.17808922645E+03 -0.41547266144E+02  0.71182857553E+02  0.25994661991E+03  0.17047961197E+03 0.  0.
        -24    2    3    3    0    0 -0.17721810590E+03 -0.28319235259E+02  0.10554948786E+03  0.22281314538E+03  0.79352172120E+02 0.  0.
          6    2    1    2  501    0  0.17808922645E+03  0.41547266144E+02  0.33290496602E+03  0.41712033929E+03  0.17239986413E+03 0.  0.
         24    2    5    5    0    0  0.12058560938E+03 -0.24058641496E+02  0.27697738477E+03  0.31338613357E+03  0.79841653413E+02 0.  0.
          5    1    5    5  501    0  0.57503617062E+02  0.65605907641E+02  0.55927581247E+02  0.10373420572E+03  0.47000000000E+01 0. -1.
        -11    1    6    6    0    0  0.24239340179E+02  0.27922548568E+02  0.63731268770E+02  0.73680994496E+02  0.00000000000E+00 0.  1.
         12    1    6    6    0    0  0.96346269204E+02 -0.51981190065E+02  0.21324611600E+03  0.23970513907E+03  0.00000000000E+00 0. -1.
         -5    1    3    3    0  503 -0.87112054153E+00 -0.13228030885E+02 -0.34366630311E+02  0.37133474535E+02  0.47000000000E+01 0. -1.
         13    1    4    4    0    0 -0.10623805420E+03  0.20964019222E+02  0.72403101444E+02  0.13026213326E+03  0.00000000000E+00 0. -1.
        -14    1    4    4    0    0 -0.70980051702E+02 -0.49283254482E+02  0.33146386419E+02  0.92551012121E+02  0.00000000000E+00 0.  1.
</event>
<event>
12    1  0.8747122E-002  0.2223489E+03  0.7818608E-02  0.1132232E+00
         21   -1    0    0  503  502  0.00000000000E+00  0.00000000000E+00  0.38994503763E+03  0.38994503763E+03  0.00000000000E+00 0. -1.
         21   -1    0    0  501  503 -0.00000000000E+00 -0.00000000000E+00 -0.14589339766E+03  0.14589339766E+03  0.00000000000E+00 0.  1.
          6    2    1    2  501    0 -0.13967412223E+03 -0.25770638191E+02  0.24488492434E+02  0.22369334691E+03  0.17107320356E+03 0.  0.
         24    2    3    3    0    0 -0.62456124283E+02  0.22116519562E+02  0.66350739642E+02  0.12354177765E+03  0.80437816202E+02 0.  0.
         -6    2    1    2    0  502  0.13967412223E+03  0.25770638191E+02  0.21956314754E+03  0.31214508838E+03  0.17045114909E+03 0.  0.
        -24    2    5    5    0    0  0.48993452610E+02  0.43148379601E+02  0.18969463459E+03  0.21498960575E+03  0.77293823331E+02 0.  0.
          5    1    3    3  501    0 -0.77217997948E+02 -0.47887157753E+02 -0.41862247207E+02  0.10015156926E+03  0.47000000000E+01 0. -1.
        -13    1    4    4    0    0 -0.70263038186E+02 -0.79157787023E+01  0.33134238167E+02  0.78086053982E+02  0.00000000000E+00 0.  1.
         14    1    4    4    0    0  0.78069139028E+01  0.30032298264E+02  0.33216501475E+02  0.45455723665E+02  0.00000000000E+00 0. -1.
         -5    1    5    5    0  502  0.90680669622E+02 -0.17377741410E+02  0.29868512947E+02  0.97155482631E+02  0.47000000000E+01 0.  1.
         13    1    6    6    0    0 -0.20527661966E+01 -0.19354394130E+02  0.50098761463E+02  0.53746556367E+02  0.00000000000E+00 0. -1.
        -14    1    6    6    0    0  0.51046218807E+02  0.62502773730E+02  0.13959587313E+03  0.16124304938E+03  0.00000000000E+00 0.  1.
</event>
<event>
12    1  0.8747122E-002  0.1972101E+03  0.7818608E-02  0.1153052E+00
         21   -1    0    0  503  502  0.00000000000E+00  0.00000000000E+00  0.11008518524E+04  0.11008518524E+04  0.00000000000E+00 0.  1.
         21   -1    0    0  501  503 -0.00000000000E+00 -0.00000000000E+00 -0.10079843826E+03  0.10079843826E+03  0.00000000000E+00 0. -1.
          6    2    1    2  501    0  0.55623224363E+02  0.64708809489E+02  0.14881049860E+02  0.19777074913E+03  0.17779384256E+03 0.  0.
         24    2    3    3    0    0 -0.36746167403E+02  0.19193536154E+02  0.22042109312E+02  0.94440620827E+02  0.81942074847E+02 0.  0.
         -6    2    1    2    0  502 -0.55623224363E+02 -0.64708809489E+02  0.98517236428E+03  0.10038795415E+04  0.17299818921E+03 0.  0.
        -24    2    5    5    0    0 -0.24547229792E+02  0.31843812753E+02  0.55464704492E+03  0.56154226422E+03  0.77972913010E+02 0.  0.
          5    1    3    3  501    0  0.92369391767E+02  0.45515273334E+02 -0.71610594528E+01  0.10333012830E+03  0.47000000000E+01 0. -1.
        -13    1    4    4    0    0  0.55509617538E+01  0.41438898986E+02  0.20648774485E+02  0.46630112731E+02  0.00000000000E+00 0.  1.
         14    1    4    4    0    0 -0.42297129157E+02 -0.22245362832E+02  0.13933348276E+01  0.47810508096E+02  0.00000000000E+00 0. -1.
         -5    1    5    5    0  502 -0.31075994571E+02 -0.96552622241E+02  0.43052531936E+03  0.44233727732E+03  0.47000000000E+01 0.  1.
         13    1    6    6    0    0 -0.43943909471E+02  0.41093163319E+02  0.29895843644E+03  0.30495222900E+03  0.00000000000E+00 0. -1.
        -14    1    6    6    0    0  0.19396679679E+02 -0.92493505665E+01  0.25568860848E+03  0.25659003522E+03  0.00000000000E+00 0.  1.
</event>
<event>
12    1  0.8747122E-002  0.2143627E+03  0.7818608E-02  0.1138269E+00
         21   -1    0    0  501  502  0.00000000000E+00  0.00000000000E+00  0.11438509637E+03  0.11438509637E+03  0.00000000000E+00 0. -1.
         21   -1    0    0  502  503 -0.00000000000E+00 -0.00000000000E+00 -0.41364831405E+03  0.41364831405E+03  0.00000000000E+00 0.  1.
         -6    2    1    2    0  503  0.19165430372E+02 -0.12509300102E+03 -0.19664815489E+03  0.29089840162E+03  0.17301968275E+03 0.  0.
        -24    2    3    3    0    0  0.28812869010E+02 -0.82752626929E+02 -0.36480461832E+02  0.12488165473E+03  0.81156792119E+02 0.  0.
          6    2    1    2  501    0 -0.19165430372E+02  0.12509300102E+03 -0.10261506280E+03  0.23713500880E+03  0.17230086668E+03 0.  0.
         24    2    5    5    0    0  0.21052351710E+02  0.14575544040E+03 -0.74957816026E+02  0.18392392259E+03  0.80755713100E+02 0.  0.
          5    1    5    5  501    0 -0.40217782082E+02 -0.20662439375E+02 -0.27657246770E+02  0.53211086208E+02  0.47000000000E+01 0. -1.
        -11    1    6    6    0    0 -0.83710598720E+01 -0.42234828883E+01 -0.18957938143E+02  0.21149843256E+02  0.00000000000E+00 0.  1.
         12    1    6    6    0    0  0.29423411582E+02  0.14997892329E+03 -0.55999877883E+02  0.16277407933E+03  0.00000000000E+00 0. -1.
         -5    1    3    3    0  503 -0.96474386372E+01 -0.42340374096E+02 -0.16016769306E+03  0.16601674690E+03  0.47000000000E+01 0.  1.
         13    1    4    4    0    0  0.30047577639E+02  0.43277566356E+01 -0.19703258457E+02  0.36191225364E+02  0.00000000000E+00 0. -1.
        -14    1    4    4    0    0 -0.12347086298E+01 -0.87080383565E+02 -0.16777203375E+02  0.88690429362E+02  0.00000000000E+00 0.  1.
</event>
<event>
12    1  0.8747122E-002  0.1992327E+03  0.7818608E-02  0.1154238E+00
         21   -1    0    0  503  502  0.00000000000E+00  0.00000000000E+00  0.88423115558E+03  0.88423115558E+03  0.00000000000E+00 0.  1.
         21   -1    0    0  501  503 -0.00000000000E+00 -0.00000000000E+00 -0.41740684381E+02  0.41740684381E+02  0.00000000000E+00 0.  1.
          6    2    1    2  501    0  0.80034675911E+02  0.13230440430E+01  0.38173447993E+03  0.43059829279E+03  0.18244554473E+03 0.  0.
         24    2    3    3    0    0  0.54808647319E+00  0.15299131541E+02  0.31648242999E+03  0.32670715292E+03  0.79637123578E+02 0.  0.
         -6    2    1    2    0  502 -0.80034675911E+02 -0.13230440430E+01  0.46075599127E+03  0.49537354717E+03  0.16337554270E+03 0.  0.
        -24    2    5    5    0    0 -0.11249686632E+02 -0.47724339618E+02  0.30409364575E+03  0.31803309639E+03  0.79170303586E+02 0.  0.
          5    1    3    3  501    0  0.79486589438E+02 -0.13976087498E+02  0.65252049936E+02  0.10389113987E+03  0.47000000000E+01 0. -1.
        -13    1    4    4    0    0  0.14446578189E+02 -0.99773705601E+01  0.27830142626E+03  0.27885468510E+03  0.00000000000E+00 0.  1.
         14    1    4    4    0    0 -0.13898491716E+02  0.25276502101E+02  0.38181003729E+02  0.47852467817E+02  0.00000000000E+00 0. -1.
         -5    1    5    5    0  502 -0.68784989279E+02  0.46401295575E+02  0.15666234552E+03  0.17734045079E+03  0.47000000000E+01 0.  1.
         13    1    6    6    0    0 -0.12371072069E+02 -0.64195023608E+02  0.15773786862E+03  0.17074917182E+03  0.00000000000E+00 0. -1.
        -14    1    6    6    0    0  0.11213854367E+01  0.16470683990E+02  0.14635577713E+03  0.14728392457E+03  0.00000000000E+00 0.  1.
</event>
<event>
12    1  0.8747122E-002  0.2938966E+03  0.7818608E-02  0.1088351E+00
         21   -1    0    0  501  502  0.00000000000E+00  0.00000000000E+00  0.10871733982E+03  0.10871733982E+03  0.00000000000E+00 0.  1.
         21   -1    0    0  502  503 -0.00000000000E+00 -0.00000000000E+00 -0.80984050158E+03  0.80984050158E+03  0.00000000000E+00 0. -1.
         -6    2    1    2    0  503  0.23546374999E+03 -0.37213763148E+02 -0.41451001850E+03  0.50804312838E+03  0.17164271943E+03 0.  0.
        -24    2    3    3    0    0  0.16887323135E+03 -0.84029316988E+00 -0.38308935697E+03  0.42578332980E+03  0.77557167018E+02 0.  0.
          6    2    1    2  501    0 -0.23546374999E+03  0.37213763148E+02 -0.28661314326E+03  0.41051471302E+03  0.17189297249E+03 0.  0.
         24    2    5    5    0    0 -0.23975818974E+03  0.59101241279E+02 -0.28770851567E+03  0.38769380698E+03  0.80952774621E+02 0.  0.
          5    1    5    5  501    0  0.42944397411E+01 -0.21887478131E+02  0.10953724125E+01  0.22820906037E+02  0.47000000000E+01 0. -1.
        -11    1    6    6    0    0 -0.68854965833E+02  0.54627205885E+02 -0.11423791905E+03  0.14413687971E+03  0.00000000000E+00 0.  1.
         12    1    6    6    0    0 -0.17090322390E+03  0.44740353937E+01 -0.17347059661E+03  0.24355692727E+03  0.00000000000E+00 0. -1.
         -5    1    3    3    0  503  0.66590518642E+02 -0.36373469978E+02 -0.31420661527E+02  0.82259798578E+02  0.47000000000E+01 0.  1.
         13    1    4    4    0    0  0.10772032056E+03  0.24486656404E+01 -0.14938952329E+03  0.18419254353E+03  0.00000000000E+00 0. -1.
        -14    1    4    4    0    0  0.61152910794E+02 -0.32889588103E+01 -0.23369983368E+03  0.24159078627E+03  0.00000000000E+00 0.  1.
</event>
<event>
12    1  0.8747122E-002  0.2196576E+03  0.7818608E-02  0.1136273E+00
         21   -1    0    0  501  502  0.00000000000E+00  0.00000000000E+00  0.25960326384E+04  0.25960326384E+04  0.00000000000E+00 0.  1.
         21   -1    0    0  502  503 -0.00000000000E+00 -0.00000000000E+00 -0.39696943753E+02  0.39696943753E+02  0.00000000000E+00 0.  1.
         -6    2    1    2    0  503  0.10355716016E+03 -0.55718965190E+02  0.31110885086E+03  0.38083879463E+03  0.18552838573E+03 0.  0.
        -24    2    3    3    0    0  0.10835765857E+02 -0.80698825022E+02  0.99546990912E+02  0.14845600495E+03  0.74161093727E+02 0.  0.
          6    2    1    2  501    0 -0.10355716016E+03  0.55718965190E+02  0.22452268438E+04  0.22548907875E+04  0.17222135490E+03 0.  0.
         24    2    5    5    0    0 -0.78462296755E+02  0.17334806757E+02  0.72514613776E+03  0.73411120500E+03  0.81397252140E+02 0.  0.
          5    1    5    5  501    0 -0.25094863400E+02  0.38384158432E+02  0.15200807060E+04  0.15207795825E+04  0.47000000000E+01 0. -1.
        -11    1    6    6    0    0 -0.79644567658E+02 -0.63394652132E+01  0.65939703542E+03  0.66421976506E+03  0.00000000000E+00 0.  1.
         12    1    6    6    0    0  0.11822709026E+01  0.23674271971E+02  0.65749102342E+02  0.69891439938E+02  0.00000000000E+00 0. -1.
         -5    1    3    3    0  503  0.92721394299E+02  0.24979859833E+02  0.21156185994E+03  0.23238278968E+03  0.47000000000E+01 0.  1.
         13    1    4    4    0    0  0.34101006488E+02 -0.69658823410E+02  0.49035778044E+02  0.91759129523E+02  0.00000000000E+00 0. -1.
        -14    1    4    4    0    0 -0.23265240631E+02 -0.11040001612E+02  0.50511212868E+02  0.56696875422E+02  0.00000000000E+00 0.  1.
</event>
<event>
12    1  0.8747122E-002  0.2257485E+03  0.7818608E-02  0.1129721E+00
         21   -1    0    0  503  502  0.00000000000E+00  0.00000000000E+00  0.33227026442E+03  0.33227026442E+03  0.00000000000E+00 0. -1.
         21   -1    0    0  501  503 -0.00000000000E+00 -0.00000000000E+00 -0.18268360340E+03  0.18268360340E+03  0.00000000000E+00 0. -1.
          6    2    1    2  501    0 -0.12444456728E+03  0.75937675813E+02 -0.28723417749E+02  0.22727896155E+03  0.17198171619E+03 0.  0.
         24    2    3    3    0    0  0.33083939637E+01  0.44203163690E+02 -0.20842709167E+02  0.95324067990E+02  0.81776489666E+02 0.  0.
         -6    2    1    2    0  502  0.12444456728E+03 -0.75937675813E+02  0.17831007877E+03  0.28767490626E+03  0.17236411045E+03 0.  0.
        -24    2    5    5    0    0  0.13001622572E+03 -0.87262695554E+02  0.88926454219E+02  0.19728230819E+03  0.80581622452E+02 0.  0.
          5    1    3    3  501    0 -0.12775296125E+03  0.31734512123E+02 -0.78807085811E+01  0.13195489356E+03  0.47000000000E+01 0. -1.
        -13    1    4    4    0    0 -0.16837172699E+01 -0.21679904061E+02  0.80815782699E+01  0.23198384669E+02  0.00000000000E+00 0.  1.
         14    1    4    4    0    0  0.49921112336E+01  0.65883067750E+02 -0.28924287437E+02  0.72125683321E+02  0.00000000000E+00 0. -1.
         -5    1    5    5    0  502 -0.55716584421E+01  0.11325019741E+02  0.89383624547E+02  0.90392598076E+02  0.47000000000E+01 0.  1.
         11    1    6    6    0    0  0.62807962146E+02 -0.76106233347E+02  0.20618252999E+02  0.10080729745E+03  0.00000000000E+00 0. -1.
        -12    1    6    6    0    0  0.67208263579E+02 -0.11156462207E+02  0.68308201220E+02  0.96475010735E+02  0.00000000000E+00 0.  1.
</event>
<event>
12    1  0.8747122E-002  0.2041712E+03  0.7818608E-02  0.1146292E+00
         21   -1    0    0  501  502  0.00000000000E+00  0.00000000000E+00  0.56547508497E+03  0.56547508497E+03  0.00000000000E+00 0. -1.
         21   -1    0    0  502  503 -0.00000000000E+00 -0.00000000000E+00 -0.73729948570E+02  0.73729948570E+02  0.00000000000E+00 0. -1.
         -6    2    1    2    0  503 -0.10755836232E+03 -0.21493215454E+02  0.23695653524E+03  0.31270368808E+03  0.17205940058E+03 0.  0.
        -24    2    3    3    0    0 -0.79866200669E+02  0.61385036514E+00  0.25451908231E+03  0.27287767603E+03  0.57474133241E+02 0.  0.
          6    2    1    2  501    0  0.10755836232E+03  0.21493215454E+02  0.25478860116E+03  0.32650134546E+03  0.17220667145E+03 0.  0.
         24    2    5    5    0    0  0.10313050294E+02  0.55368249435E+02  0.14828034719E+03  0.17827764020E+03  0.81387060269E+02 0.  0.
          5    1    5    5  501    0  0.97245312029E+02 -0.33875033982E+02  0.10650825397E+03  0.14822370526E+03  0.47000000000E+01 0. -1.
        -11    1    6    6    0    0 -0.19394404132E+02 -0.17636325930E+01  0.87803338890E+02  0.89937087076E+02  0.00000000000E+00 0.  1.
         12    1    6    6    0    0  0.29707454426E+02  0.57131882028E+02  0.60477008299E+02  0.88340553119E+02  0.00000000000E+00 0. -1.
         -5    1    3    3    0  503 -0.27692161654E+02 -0.22107065819E+02 -0.17562547072E+02  0.39826012050E+02  0.47000000000E+01 0.  1.
         11    1    4    4    0    0 -0.68249411489E+02 -0.20020432813E+02  0.15437186611E+03  0.16996903526E+03  0.00000000000E+00 0. -1.
        -12    1    4    4    0    0 -0.11616789180E+02  0.20634283178E+02  0.10014721620E+03  0.10290864077E+03  0.00000000000E+00 0.  1.
</event>
<event>
12    1  0.8747122E-002  0.3406281E+03  0.7818608E-02  0.1066576E+00
         21   -1    0    0  503  502  0.00000000000E+00  0.00000000000E+00  0.54463358362E+03  0.54463358362E+03  0.00000000000E+00 0. -1.
         21   -1    0    0  501  503 -0.00000000000E+00 -0.00000000000E+00 -0.21788782387E+03  0.21788782387E+03  0.00000000000E+00 0.  1.
          6    2    1    2  501    0 -0.13718517222E+03  0.25950619204E+03  0.10497356726E+03  0.35643643125E+03  0.17281274407E+03 0.  0.
         24    2    3    3    0    0 -0.36212333155E+01  0.91784021084E+02  0.10538919317E+02  0.12210750615E+03  0.79760606696E+02 0.  0.
         -6    2    1    2    0  502  0.13718517222E+03 -0.25950619204E+03  0.22177219250E+03  0.40608497624E+03  0.17192692454E+03 0.  0.
        -24    2    5    5    0    0 -0.20450770512E+01 -0.82556533387E+02  0.73833889896E+02  0.13663354206E+03  0.79984485823E+02 0.  0.
          5    1    3    3  501    0 -0.13356393891E+03  0.16772217095E+03  0.94434647944E+02  0.23432892510E+03  0.47000000000E+01 0. -1.
        -13    1    4    4    0    0  0.17497966675E+02  0.97637916594E+02  0.41520668645E+01  0.99280316548E+02  0.00000000000E+00 0.  1.
         14    1    4    4    0    0 -0.21119199990E+02 -0.58538955097E+01  0.63868524521E+01  0.22827189602E+02  0.00000000000E+00 0. -1.
         -5    1    5    5    0  502  0.13923024927E+03 -0.17694965865E+03  0.14793830260E+03  0.26945143419E+03  0.47000000000E+01 0.  1.
         11    1    6    6    0    0  0.37382645893E+02 -0.24239951035E+02  0.27433031682E+02  0.52322162297E+02  0.00000000000E+00 0. -1.
        -12    1    6    6    0    0 -0.39427722944E+02 -0.58316582352E+02  0.46400858214E+02  0.84311379758E+02  0.00000000000E+00 0.  1.
</event>
<event>
12    1  0.8747122E-002  0.2274642E+03  0.7818608E-02  0.1128764E+00
         21   -1    0    0  503  502  0.00000000000E+00  0.00000000000E+00  0.26054657332E+03  0.26054657332E+03  0.00000000000E+00 0. -1.
         21   -1    0    0  501  503 -0.00000000000E+00 -0.00000000000E+00 -0.28619496061E+03  0.28619496061E+03  0.00000000000E+00 0. -1.
          6    2    1    2  501    0  0.12927971611E+03  0.76195769604E+02 -0.16540478576E+03  0.27977371356E+03  0.16850978412E+03 0.  0.
         24    2    3    3    0    0  0.10318699329E+03  0.44882373783E+01 -0.47816686424E+02  0.13951733593E+03  0.80690468239E+02 0.  0.
         -6    2    1    2    0  502 -0.12927971611E+03 -0.76195769604E+02  0.13975639846E+03  0.26696782037E+03  0.17094129372E+03 0.  0.
        -24    2    5    5    0    0 -0.13254231851E+03 -0.49923124670E+01  0.77831418011E+02  0.17243015546E+03  0.77987431698E+02 0.  0.
          5    1    3    3  501    0  0.26092722818E+02  0.71707532226E+02 -0.11758809933E+03  0.14025637763E+03  0.47000000000E+01 0. -1.
        -13    1    4    4    0    0  0.21613043843E+02  0.12352216809E+02  0.20949846698E+02  0.32536087671E+02  0.00000000000E+00 0.  1.
         14    1    4    4    0    0  0.81573949449E+02 -0.78639794307E+01 -0.68766533122E+02  0.10698124826E+03  0.00000000000E+00 0. -1.
         -5    1    5    5    0  502  0.32626023987E+01 -0.71203457137E+02  0.61924980450E+02  0.94537664909E+02  0.47000000000E+01 0.  1.
         13    1    6    6    0    0 -0.88843889217E+02  0.33240155897E+02  0.57422724584E+02  0.11088513838E+03  0.00000000000E+00 0. -1.
        -14    1    6    6    0    0 -0.43698429291E+02 -0.38232468364E+02  0.20408693427E+02  0.61545017078E+02  0.00000000000E+00 0.  1.
</event>
<event>
12    1  0.8747122E-002  0.1796468E+03  0.7818608E-02  0.1168503E+00
         21   -1    0    0  501  502  0.00000000000E+00  0.00000000000E+00  0.44666855447E+03  0.44666855447E+03  0.00000000000E+00 0.  1.
         21   -1    0    0  502  503 -0.00000000000E+00 -0.00000000000E+00 -0.44261273165E+03  0.44261273165E+03  0.00000000000E+00 0.  1.
         -6    2    1    2    0  503 -0.31903038249E+02  0.24238755462E+02 -0.40502922495E+03  0.44248879316E+03  0.17361548863E+03 0.  0.
        -24    2    3    3    0    0  0.20411149559E+02  0.57811037586E+02 -0.15806553876E+03  0.18777910613E+03  0.80731326388E+02 0.  0.
          6    2    1    2  501    0  0.31903038249E+02 -0.24238755462E+02  0.40908504777E+03  0.44679249296E+03  0.17512177005E+03 0.  0.
         24    2    5    5    0    0 -0.43688059284E+02 -0.42615537522E+02  0.21515606013E+03  0.23778947291E+03  0.80789681601E+02 0.  0.
          5    1    5    5  501    0  0.75591097534E+02  0.18376782060E+02  0.19392898764E+03  0.20900302005E+03  0.47000000000E+01 0. -1.
        -11    1    6    6    0    0 -0.15185536809E+02  0.83318297757E+01  0.14713875027E+03  0.14815475607E+03  0.00000000000E+00 0.  1.
         12    1    6    6    0    0 -0.28502522475E+02 -0.50947367298E+02  0.68017309864E+02  0.89634716841E+02  0.00000000000E+00 0. -1.
         -5    1    3    3    0  503 -0.52314187808E+02 -0.33572282124E+02 -0.24696368618E+03  0.25470968703E+03  0.47000000000E+01 0.  1.
         11    1    4    4    0    0  0.10837314341E+02 -0.68836037365E+01  0.36438848976E+01  0.13345758864E+02  0.00000000000E+00 0. -1.
        -12    1    4    4    0    0  0.95738352184E+01  0.64694641322E+02 -0.16170942366E+03  0.17443334726E+03  0.00000000000E+00 0.  1.
</event>
<event>
12    1  0.8747122E-002  0.1817391E+03  0.7818608E-02  0.1166666E+00
         21   -1    0    0  503  502  0.00000000000E+00  0.00000000000E+00  0.19745986464E+03  0.19745986464E+03  0.00000000000E+00 0. -1.
         21   -1    0    0  501  503 -0.00000000000E+00 -0.00000000000E+00 -0.21631567614E+03  0.21631567614E+03  0.00000000000E+00 0. -1.
          6    2    1    2  501    0 -0.51116010265E+02  0.16282176463E+02 -0.11001590725E+03  0.21244431345E+03  0.17364080941E+03 0.  0.
         24    2    3    3    0    0 -0.52452644186E+01 -0.15053278749E+01  0.12615289790E+02  0.80228500768E+02  0.79042317705E+02 0.  0.
         -6    2    1    2    0  502  0.51116010265E+02 -0.16282176463E+02  0.91160095752E+02  0.20133122734E+03  0.17130716350E+03 0.  0.
        -24    2    5    5    0    0 -0.85237414325E+01 -0.53928700017E+02  0.16363657053E+02  0.98419819026E+02  0.80235482496E+02 0.  0.
          5    1    3    3  501    0 -0.45870745846E+02  0.17787504338E+02 -0.12263119704E+03  0.13221581268E+03  0.47000000000E+01 0. -1.
        -11    1    4    4    0    0  0.35094034477E+02  0.73881916592E+01 -0.31789927958E+01  0.36003925162E+02  0.00000000000E+00 0.  1.
         12    1    4    4    0    0 -0.40339298896E+02 -0.88935195341E+01  0.15794282586E+02  0.44224575606E+02  0.00000000000E+00 0. -1.
         -5    1    5    5    0  502  0.59639751698E+02  0.37646523554E+02  0.74796438699E+02  0.10291140831E+03  0.47000000000E+01 0.  1.
         11    1    6    6    0    0 -0.13750767673E+02  0.12330871381E+02  0.25333823578E+02  0.31351820006E+02  0.00000000000E+00 0. -1.
        -12    1    6    6    0    0  0.52270262407E+01 -0.66259571398E+02 -0.89701665243E+01  0.67067999020E+02  0.00000000000E+00 0.  1.
</event>
<event>
12    1  0.8747122E-002  0.1909971E+03  0.7818608E-02  0.1158123E+00
         21   -1    0    0  503  502  0.00000000000E+00  0.00000000000E+00  0.30404208857E+03  0.30404208857E+03  0.00000000000E+00 0. -1.
         21   -1    0    0  501  503 -0.00000000000E+00 -0.00000000000E+00 -0.11849076952E+03  0.11849076952E+03  0.00000000000E+00 0. -1.
          6    2    1    2  501    0  0.82617934770E+02  0.85610056235E+00  0.97978197008E+02  0.21466163316E+03  0.17220172360E+03 0.  0.
         24    2    3    3    0    0  0.38837639618E+02  0.44817560767E+02  0.11309582441E+03  0.15063072746E+03  0.79887261505E+02 0.  0.
         -6    2    1    2    0  502 -0.82617934770E+02 -0.85610056235E+00  0.87573122048E+02  0.20787122493E+03  0.16945482700E+03 0.  0.
        -24    2    5    5    0    0  0.50972359965E+01  0.27544871463E+01  0.88925231791E+02  0.11994565568E+03  0.80285082388E+02 0.  0.
          5    1    3    3  501    0  0.43780295152E+02 -0.43961460204E+02 -0.15117627406E+02  0.64030905704E+02  0.47000000000E+01 0. -1.
        -13    1    4    4    0    0 -0.23440800868E+02  0.12751423950E+02  0.16729956479E+02  0.31495418744E+02  0.00000000000E+00 0.  1.
         14    1    4    4    0    0  0.62278440486E+02  0.32066136817E+02  0.96365867935E+02  0.11913530872E+03  0.00000000000E+00 0. -1.
         -5    1    5    5    0  502 -0.87715170766E+02 -0.36105877086E+01 -0.13521097420E+01  0.87925569244E+02  0.47000000000E+01 0.  1.
         13    1    6    6    0    0  0.16232079401E+02  0.30567832505E+02  0.10773659440E+02  0.36248372701E+02  0.00000000000E+00 0. -1.
        -14    1    6    6    0    0 -0.11134843405E+02 -0.27813345359E+02  0.78151572351E+02  0.83697282982E+02  0.00000000000E+00 0.  1.
</event>
<event>
12    1  0.8747122E-002  0.2028822E+03  0.7818608E-02  0.1147456E+00
         21   -1    0    0  503  502  0.00000000000E+00  0.00000000000E+00  0.45277525357E+02  0.45277525357E+02  0.00000000000E+00 0. -1.
         21   -1    0    0  501  503 -0.00000000000E+00 -0.00000000000E+00 -0.20772782340E+04  0.20772782340E+04  0.00000000000E+00 0.  1.
          6    2    1    2  501    0 -0.84904993101E+02 -0.62026586110E+02 -0.18121247695E+04  0.18233792114E+04  0.17279876511E+03 0.  0.
         24    2    3    3    0    0 -0.10551384367E+03 -0.88284865029E+02 -0.16598776848E+04  0.16674449730E+04  0.79065926325E+02 0.  0.
         -6    2    1    2    0  502  0.84904993101E+02  0.62026586110E+02 -0.21987593914E+03  0.29917654791E+03  0.17350799109E+03 0.  0.
        -24    2    5    5    0    0  0.24226033197E+02  0.37794416550E+02 -0.18617690876E+02  0.87525640264E+02  0.72792861485E+02 0.  0.
          5    1    3    3  501    0  0.20608850574E+02  0.26258278919E+02 -0.15224708467E+03  0.15593423846E+03  0.47000000000E+01 0. -1.
        -13    1    4    4    0    0 -0.42470177173E+02 -0.74266338258E+02 -0.66621106850E+03  0.67168176448E+03  0.00000000000E+00 0.  1.
         14    1    4    4    0    0 -0.63043666502E+02 -0.14018526771E+02 -0.99366661633E+03  0.99576320849E+03  0.00000000000E+00 0. -1.
         -5    1    5    5    0  502  0.60678959905E+02  0.24232169560E+02 -0.20125824826E+03  0.21165090765E+03  0.47000000000E+01 0.  1.
         11    1    6    6    0    0 -0.92794976502E+01 -0.17879426202E+02 -0.85085580525E+00  0.20162016604E+02  0.00000000000E+00 0. -1.
        -12    1    6    6    0    0  0.33505530847E+02  0.55673842752E+02 -0.17766835071E+02  0.67363623659E+02  0.00000000000E+00 0.  1.
</event>
<event>
12    1  0.8747122E-002  0.3180214E+03  0.7818608E-02  0.1076607E+00
         21   -1    0    0  503  502  0.00000000000E+00  0.00000000000E+00  0.10692722087E+04  0.10692722087E+04  0.00000000000E+00 0. -1.
         21   -1    0    0  501  503 -0.00000000000E+00 -0.00000000000E+00 -0.11294183923E+03  0.11294183923E+03  0.00000000000E+00 0. -1.
          6    2    1    2  501    0  0.26711602150E+03 -0.13403909863E+02  0.23889453565E+03  0.39745180381E+03  0.17136715978E+03 0.  0.
         24    2    3    3    0    0  0.19735862627E+03 -0.64264695745E+01  0.87389623808E+02  0.23044699198E+03  0.80480698866E+02 0.  0.
         -6    2    1    2    0  502 -0.26711602150E+03  0.13403909863E+02  0.71743583381E+03  0.78476224411E+03  0.17206676148E+03 0.  0.
        -24    2    5    5    0    0 -0.80328194416E+02 -0.32120267623E+02  0.35855134772E+03  0.37759850869E+03  0.80853165715E+02 0.  0.
          5    1    3    3  501    0  0.69757395225E+02 -0.69774402881E+01  0.15150491184E+03  0.16700481183E+03  0.47000000000E+01 0. -1.
        -11    1    4    4    0    0  0.66577454729E+02 -0.36908602046E+02  0.49916368912E+02  0.91029919633E+02  0.00000000000E+00 0.  1.
         12    1    4    4    0    0  0.13078117154E+03  0.30482132471E+02  0.37473254896E+02  0.13941707235E+03  0.00000000000E+00 0. -1.
         -5    1    5    5    0  502 -0.18678782708E+03  0.45524177486E+02  0.35888448609E+03  0.40716373542E+03  0.47000000000E+01 0.  1.
         13    1    6    6    0    0 -0.81604683875E+02 -0.23171520998E+02  0.35866295645E+03  0.36855848944E+03  0.00000000000E+00 0. -1.
        -14    1    6    6    0    0  0.12764894592E+01 -0.89487466248E+01 -0.11160872711E+00  0.90400192479E+01  0.00000000000E+00 0.  1.
</event>
<event>
12    1  0.8747122E-002  0.1809734E+03  0.7818608E-02  0.1167585E+00
         21   -1    0    0  501  502  0.00000000000E+00  0.00000000000E+00  0.13956216986E+04  0.13956216986E+04  0.00000000000E+00 0. -1.
         21   -1    0    0  502  503 -0.00000000000E+00 -0.00000000000E+00 -0.31777020130E+02  0.31777020130E+02  0.00000000000E+00 0. -1.
         -6    2    1    2    0  503  0.20716441172E+02 -0.40983718405E+02  0.31272814350E+03  0.36131737793E+03  0.17505004927E+03 0.  0.
        -24    2    3    3    0    0  0.21629476621E+02 -0.59084979102E+02  0.80884868734E+02  0.12871926245E+03  0.77893629525E+02 0.  0.
          6    2    1    2  501    0 -0.20716441172E+02  0.40983718405E+02  0.10511165350E+04  0.10660813408E+04  0.17197272749E+03 0.  0.
         24    2    5    5    0    0 -0.27369343249E+02 -0.17008687777E+02  0.28142604722E+03  0.29416624365E+03  0.79339664961E+02 0.  0.
          5    1    5    5  501    0  0.66529020767E+01  0.57992406183E+02  0.76969048778E+03  0.77191509718E+03  0.47000000000E+01 0. -1.
        -13    1    6    6    0    0  0.10497813390E+02  0.25738107745E+02  0.74952068283E+02  0.79940395396E+02  0.00000000000E+00 0.  1.
         14    1    6    6    0    0 -0.37867156639E+02 -0.42746795522E+02  0.20647397894E+03  0.21422584825E+03  0.00000000000E+00 0. -1.
         -5    1    3    3    0  503 -0.91303544874E+00  0.18101260697E+02  0.23184327477E+03  0.23259811549E+03  0.47000000000E+01 0.  1.
         13    1    4    4    0    0  0.22728287022E+02 -0.72119913280E+01 -0.85435533630E+01  0.25329432563E+02  0.00000000000E+00 0. -1.
        -14    1    4    4    0    0 -0.10988104016E+01 -0.51872987774E+02  0.89428422097E+02  0.10338982989E+03  0.00000000000E+00 0.  1.
</event>
<event>
12    1  0.8747122E-002  0.2247102E+03  0.7818608E-02  0.1130570E+00
         21   -1    0    0  503  502  0.00000000000E+00  0.00000000000E+00  0.81635794905E+03  0.81635794905E+03  0.00000000000E+00 0.  1.
         21   -1    0    0  501  503 -0.00000000000E+00 -0.00000000000E+00 -0.97533865989E+02  0.97533865989E+02  0.00000000000E+00 0.  1.
          6    2    1    2  501    0 -0.12323104621E+03  0.73469356855E+02  0.82574267520E+02  0.23940170804E+03  0.17294805870E+03 0.  0.
         24    2    3    3    0    0 -0.15815099803E+02  0.54898162265E+02 -0.67496900889E+01  0.98391303405E+02  0.79820828532E+02 0.  0.
         -6    2    1    2    0  502  0.12323104621E+03 -0.73469356855E+02  0.63624981554E+03  0.67449010701E+03  0.17187041491E+03 0.  0.
        -24    2    5    5    0    0  0.10111683700E+03 -0.63935645401E+02  0.25807913345E+03  0.29552429760E+03  0.80108612971E+02 0.  0.
          5    1    3    3  501    0 -0.10741594641E+03  0.18571194590E+02  0.89323957609E+02  0.14101040463E+03  0.47000000000E+01 0. -1.
        -13    1    4    4    0    0 -0.34630223346E+02  0.60388803973E+02 -0.22593698787E+02  0.73188354532E+02  0.00000000000E+00 0.  1.
         14    1    4    4    0    0  0.18815123542E+02 -0.54906417079E+01  0.15844008698E+02  0.25202948873E+02  0.00000000000E+00 0. -1.
         -5    1    5    5    0  502  0.22114209210E+02 -0.95337114541E+01  0.37817068209E+03  0.37896580940E+03  0.47000000000E+01 0.  1.
         11    1    6    6    0    0  0.79072955325E+02 -0.35378626833E+01  0.15492287181E+03  0.17397167858E+03  0.00000000000E+00 0. -1.
        -12    1    6    6    0    0  0.22043881676E+02 -0.60397782717E+02  0.10315626164E+03  0.12155261903E+03  0.00000000000E+00 0.  1.
</event>
<event>
12    1  0.8747122E-002  0.1866629E+03  0.7818608E-02  0.1163758E+00
         21   -1    0    0  501  502  0.00000000000E+00  0.00000000000E+00  0.84677306921E+02  0.84677306921E+02  0.00000000000E+00 0.  1.
         21   -1    0    0  502  503 -0.00000000000E+00 -0.00000000000E+00 -0.41600219907E+03  0.41600219907E+03  0.00000000000E+00 0.  1.
         -6    2    1    2    0  503  0.62067506641E+02 -0.36910725687E+02 -0.23129222962E+03  0.29721899861E+03  0.17212861644E+03 0.  0.
        -24    2    3    3    0    0  0.63540262182E+02 -0.41583917929E+02 -0.25193922836E+03  0.27548431915E+03  0.81557637057E+02 0.  0.
          6    2    1    2  501    0 -0.62067506641E+02  0.36910725687E+02 -0.10003266252E+03  0.20346050738E+03  0.16178648720E+03 0.  0.
         24    2    5    5    0    0 -0.18322067487E+02  0.79425861057E+02 -0.59164491237E+02  0.12988403283E+03  0.82007678906E+02 0.  0.
          5    1    5    5  501    0 -0.43745439154E+02 -0.42515135370E+02 -0.40868171283E+02  0.73576474545E+02  0.47000000000E+01 0. -1.
        -13    1    6    6    0    0 -0.57574632168E+01  0.81494227856E+02 -0.74072647501E+02  0.11027789744E+03  0.00000000000E+00 0.  1.
         14    1    6    6    0    0 -0.12564604270E+02 -0.20683667983E+01  0.14908156264E+02  0.19606135389E+02  0.00000000000E+00 0. -1.
         -5    1    3    3    0  503 -0.14727555412E+01  0.46731922417E+01  0.20646998734E+02  0.21734679462E+02  0.47000000000E+01 0.  1.
         11    1    4    4    0    0  0.33919294023E+02  0.19647099472E+02 -0.58357965227E+02  0.70300633924E+02  0.00000000000E+00 0. -1.
        -12    1    4    4    0    0  0.29620968159E+02 -0.61231017401E+02 -0.19358126313E+03  0.20518368522E+03  0.00000000000E+00 0.  1.
</event>
<event>
12    1  0.8747122E-002  0.1732771E+03  0.7818608E-02  0.1174483E+00
         21   -1    0    0  503  502  0.00000000000E+00  0.00000000000E+00  0.38433429937E+03  0.38433429937E+03  0.00000000000E+00 0. -1.
         21   -1    0    0  501  503 -0.00000000000E+00 -0.00000000000E+00 -0.12238970492E+03  0.12238970492E+03  0.00000000000E+00 0. -1.
          6    2    1    2  501    0 -0.83695952937E+01 -0.14029808591E+02 -0.21424322449E+02  0.17459650442E+03  0.17250522342E+03 0.  0.
         24    2    3    3    0    0 -0.46372161746E+02 -0.42636497141E+02  0.27847716823E+02  0.10594986181E+03  0.80508568566E+02 0.  0.
         -6    2    1    2    0  502  0.83695952937E+01  0.14029808591E+02  0.28336891690E+03  0.33212749987E+03  0.17246404683E+03 0.  0.
        -24    2    5    5    0    0  0.42377489451E+01  0.45134562759E+02  0.28718913017E+03  0.30017031108E+03  0.74629296484E+02 0.  0.
          5    1    3    3  501    0  0.38002566453E+02  0.28606688549E+02 -0.49272039272E+02  0.68646642604E+02  0.47000000000E+01 0. -1.
        -13    1    4    4    0    0 -0.28594975308E+01  0.18556415600E+02  0.24396008031E+02  0.30784452146E+02  0.00000000000E+00 0.  1.
         14    1    4    4    0    0 -0.43512664216E+02 -0.61192912741E+02  0.34517087917E+01  0.75165409667E+02  0.00000000000E+00 0. -1.
         -5    1    5    5    0  502  0.41318463486E+01 -0.31104754168E+02 -0.38202132673E+01  0.31957188792E+02  0.47000000000E+01 0.  1.
         11    1    6    6    0    0  0.36016752210E+02  0.40772137931E+02  0.15987586058E+03  0.16887825339E+03  0.00000000000E+00 0. -1.
        -12    1    6    6    0    0 -0.31779003265E+02  0.43624248276E+01  0.12731326959E+03  0.13129205769E+03  0.00000000000E+00 0.  1.
</event>
<event>
12    1  0.8747122E-002  0.1880342E+03  0.7818608E-02  0.1160440E+00
         21   -1    0    0  501  502  0.00000000000E+00  0.00000000000E+00  0.10237044525E+03  0.10237044525E+03  0.00000000000E+00 0. -1.
         21   -1    0    0  502  503 -0.00000000000E+00 -0.00000000000E+00 -0.39403947573E+03  0.39403947573E+03  0.00000000000E+00 0. -1.
         -6    2    1    2    0  503  0.75457643371E+02 -0.87930488766E+01 -0.23414928410E+03  0.29977477427E+03  0.17107850360E+03 0.  0.
        -24    2    3    3    0    0  0.34497924773E+02 -0.38768197983E+01 -0.24209060033E+03  0.25750158703E+03  0.80585805253E+02 0.  0.
          6    2    1    2  501    0 -0.75457643371E+02  0.87930488766E+01 -0.57519746380E+02  0.19663514670E+03  0.17200490122E+03 0.  0.
         24    2    5    5    0    0 -0.45271827395E+02  0.16623301713E+02  0.33787011211E+02  0.10003540380E+03  0.80868086241E+02 0.  0.
          5    1    5    5  501    0 -0.30185815977E+02 -0.78302528365E+01 -0.91306757591E+02  0.96599742895E+02  0.47000000000E+01 0. -1.
        -13    1    6    6    0    0  0.45561825122E+01 -0.22648980426E+02 -0.75591598331E+01  0.24307941311E+02  0.00000000000E+00 0.  1.
         14    1    6    6    0    0 -0.49828009907E+02  0.39272282139E+02  0.41346171044E+02  0.75727462493E+02  0.00000000000E+00 0. -1.
         -5    1    3    3    0  503  0.40959718598E+02 -0.49162290784E+01  0.79413162337E+01  0.42273187241E+02  0.47000000000E+01 0.  1.
         11    1    4    4    0    0 -0.49730224889E+00  0.31230332311E+02 -0.14683182164E+03  0.15011717028E+03  0.00000000000E+00 0. -1.
        -12    1    4    4    0    0  0.34995227022E+02 -0.35107152109E+02 -0.95258778693E+02  0.10738441675E+03  0.00000000000E+00 0.  1.
</event>
<event>
12    1  0.8747122E-002  0.2097247E+03  0.7818608E-02  0.1144812E+00
         21   -1    0    0  501  502  0.00000000000E+00  0.00000000000E+00  0.24030302115E+03  0.24030302115E+03  0.00000000000E+00 0.  1.
         21   -1    0    0  502  503 -0.00000000000E+00 -0.00000000000E+00 -0.26511007724E+03  0.26511007724E+03  0.00000000000E+00 0. -1.
         -6    2    1    2    0  503  0.10247135706E+03  0.64032281154E+02 -0.16363784820E+03  0.26601089475E+03  0.17141743993E+03 0.  0.
        -24    2    3    3    0    0  0.85423875057E+02  0.84709212419E+02 -0.18219038841E+03  0.23308007518E+03  0.81609403382E+02 0.  0.
          6    2    1    2  501    0 -0.10247135706E+03 -0.64032281154E+02  0.13883079211E+03  0.23940220363E+03  0.15309772767E+03 0.  0.
         24    2    5    5    0    0 -0.10919033229E+03 -0.48809981127E+02  0.60710624779E+02  0.15939149441E+03  0.86109962295E+02 0.  0.
          5    1    5    5  501    0  0.67189752263E+01 -0.15222300027E+02  0.78120167331E+02  0.80010709220E+02  0.47000000000E+01 0. -1.
        -11    1    6    6    0    0 -0.48645016718E+02 -0.21912900639E+02  0.74585359719E+02  0.91703264666E+02  0.00000000000E+00 0.  1.
         12    1    6    6    0    0 -0.60545315571E+02 -0.26897080488E+02 -0.13874734940E+02  0.67688229745E+02  0.00000000000E+00 0. -1.
         -5    1    3    3    0  503  0.17047482006E+02 -0.20676931266E+02  0.18552540206E+02  0.32930819568E+02  0.47000000000E+01 0.  1.
         11    1    4    4    0    0 -0.69404156342E+01  0.36330120194E+02 -0.25716280935E+02  0.45048574978E+02  0.00000000000E+00 0. -1.
        -12    1    4    4    0    0  0.92364290691E+02  0.48379092225E+02 -0.15647410747E+03  0.18803150020E+03  0.00000000000E+00 0.  1.
</event>
<event>
12    1  0.8747122E-002  0.1744646E+03  0.7818608E-02  0.1173303E+00
         21   -1    0    0  503  502  0.00000000000E+00  0.00000000000E+00  0.12018107507E+04  0.12018107507E+04  0.00000000000E+00 0.  1.
         21   -1    0    0  501  503 -0.00000000000E+00 -0.00000000000E+00 -0.27495941619E+02  0.27495941619E+02  0.00000000000E+00 0.  1.
          6    2    1    2  501    0 -0.23400314853E+02  0.17010558394E+02  0.76034956012E+03  0.78007943037E+03  0.17191721925E+03 0.  0.
         24    2    3    3    0    0  0.48750309658E+02  0.23328962684E+02  0.52682130925E+03  0.53553256614E+03  0.79583945136E+02 0.  0.
         -6    2    1    2    0  502  0.23400314853E+02 -0.17010558394E+02  0.41396524893E+03  0.44922726192E+03  0.17204932926E+03 0.  0.
        -24    2    5    5    0    0  0.50453568200E+02 -0.35497189232E+02  0.13228512847E+03  0.16560883111E+03  0.78238844177E+02 0.  0.
          5    1    3    3  501    0 -0.72150624510E+02 -0.63184042901E+01  0.23352825087E+03  0.24454686423E+03  0.47000000000E+01 0. -1.
        -13    1    4    4    0    0  0.34110373455E+02  0.52966403780E+02  0.35920670546E+03  0.36468947716E+03  0.00000000000E+00 0.  1.
         14    1    4    4    0    0  0.14639936203E+02 -0.29637441096E+02  0.16761460379E+03  0.17084308897E+03  0.00000000000E+00 0. -1.
         -5    1    5    5    0  502 -0.27053253347E+02  0.18486630838E+02  0.28168012046E+03  0.28361843082E+03  0.47000000000E+01 0.  1.
         13    1    6    6    0    0 -0.13171544195E+02 -0.15639135101E+02  0.74951626414E+02  0.77690529830E+02  0.00000000000E+00 0. -1.
        -14    1    6    6    0    0  0.63625112395E+02 -0.19858054131E+02  0.57333502058E+02  0.87918301277E+02  0.00000000000E+00 0.  1.
</event>
<event>
12    1  0.8747122E-002  0.1863233E+03  0.7818608E-02  0.1162525E+00
         21   -1    0    0  501  502  0.00000000000E+00  0.00000000000E+00  0.33574442292E+03  0.33574442292E+03  0.00000000000E+00 0.  1.
         21   -1    0    0  502  503 -0.00000000000E+00 -0.00000000000E+00 -0.10414093631E+03  0.10414093631E+03  0.00000000000E+00 0.  1.
         -6    2    1    2    0  503 -0.37694550392E+02  0.54056956712E+02  0.15018256305E+03  0.23931394860E+03  0.17427945964E+03 0.  0.
        -24    2    3    3    0    0 -0.56582205518E+02  0.39994328586E+02  0.17495025848E+03  0.20481714060E+03  0.80878772497E+02 0.  0.
          6    2    1    2  501    0  0.37694550392E+02 -0.54056956712E+02  0.81420923558E+02  0.20057141063E+03  0.17104528720E+03 0.  0.
         24    2    5    5    0    0  0.49982333120E+02  0.62484972042E+01  0.97744317099E+02  0.13672565468E+03  0.81256850675E+02 0.  0.
          5    1    5    5  501    0 -0.12287782728E+02 -0.60305453916E+02 -0.16323393542E+02  0.63845755953E+02  0.47000000000E+01 0. -1.
        -13    1    6    6    0    0  0.18120122276E+02 -0.20058879989E+02  0.90911688229E+02  0.94845308552E+02  0.00000000000E+00 0.  1.
         14    1    6    6    0    0  0.31862210845E+02  0.26307377193E+02  0.68326288702E+01  0.41880346130E+02  0.00000000000E+00 0. -1.
         -5    1    3    3    0  503  0.18887655126E+02  0.14062628126E+02 -0.24767695423E+02  0.34496808005E+02  0.47000000000E+01 0.  1.
         11    1    4    4    0    0 -0.90923019490E+01  0.22912099755E+01  0.12743983154E+03  0.12778431148E+03  0.00000000000E+00 0. -1.
        -12    1    4    4    0    0 -0.47489903569E+02  0.37703118610E+02  0.47510426941E+02  0.77032829119E+02  0.00000000000E+00 0.  1.
</event>
<event>
12    1  0.8747122E-002  0.2111909E+03  0.7818608E-02  0.1140741E+00
         21   -1    0    0  501  502  0.00000000000E+00  0.00000000000E+00  0.25728685653E+03  0.25728685653E+03  0.00000000000E+00 0.  1.
         21   -1    0    0  502  503 -0.00000000000E+00 -0.00000000000E+00 -0.26242155936E+03  0.26242155936E+03  0.00000000000E+00 0. -1.
         -6    2    1    2    0  503 -0.83649687876E+02 -0.88000251892E+02 -0.15436131065E+03  0.26158943034E+03  0.17280133455E+03 0.  0.
        -24    2    3    3    0    0 -0.23948542456E+02  0.18860069273E+02 -0.82507561830E+02  0.11957391631E+03  0.81001165449E+02 0.  0.
          6    2    1    2  501    0  0.83649687876E+02  0.88000251892E+02  0.14922660782E+03  0.25811898555E+03  0.17209159074E+03 0.  0.
         24    2    5    5    0    0  0.18137942333E+02  0.11181526963E+03  0.81585030962E+02  0.16087487624E+03  0.79956044512E+02 0.  0.
          5    1    5    5  501    0  0.65511745544E+02 -0.23815017739E+02  0.67641576862E+02  0.97244109305E+02  0.47000000000E+01 0. -1.
        -11    1    6    6    0    0  0.22694733828E+02  0.15071226990E+02  0.53494590879E+02  0.60032192029E+02  0.00000000000E+00 0.  1.
         12    1    6    6    0    0 -0.45567914951E+01  0.96744042640E+02  0.28090440083E+02  0.10084268421E+03  0.00000000000E+00 0. -1.
         -5    1    3    3    0  503 -0.59701145420E+02 -0.10686032116E+03 -0.71853748823E+02  0.14201551402E+03  0.47000000000E+01 0.  1.
         13    1    4    4    0    0 -0.43920729275E+02 -0.41708637609E+01 -0.16926574913E+02  0.47253946955E+02  0.00000000000E+00 0. -1.
        -14    1    4    4    0    0  0.19972186818E+02  0.23030933033E+02 -0.65580986917E+02  0.72319969356E+02  0.00000000000E+00 0.  1.
</event>
<event>
12    1  0.8747122E-002  0.2151980E+03  0.7818608E-02  0.1137743E+00
         21   -1    0    0  501  502  0.00000000000E+00  0.00000000000E+00  0.20311970504E+04  0.20311970504E+04  0.00000000000E+00 0. -1.
         21   -1    0    0  502  503 -0.00000000000E+00 -0.00000000000E+00 -0.22773482678E+02  0.22773482678E+02  0.00000000000E+00 0. -1.
         -6    2    1    2    0  503 -0.11157722204E+03  0.63131232699E+02  0.10748904031E+04  0.10962205864E+04  0.17284434138E+03 0.  0.
        -24    2    3    3    0    0 -0.36876218089E+02  0.75893929039E+02  0.46654665733E+03  0.48315669950E+03  0.93031547742E+02 0.  0.
          6    2    1    2  501    0  0.11157722204E+03 -0.63131232699E+02  0.93353316465E+03  0.95774994670E+03  0.17136441256E+03 0.  0.
         24    2    5    5    0    0  0.53208169116E+02 -0.10399739246E+03  0.65370939080E+03  0.66895863146E+03  0.80765810066E+02 0.  0.
          5    1    5    5  501    0  0.58369052929E+02  0.40866159764E+02  0.27982377384E+03  0.28879131525E+03  0.47000000000E+01 0. -1.
        -13    1    6    6    0    0 -0.19395246927E+02 -0.19988438864E+02  0.19626810332E+03  0.19823441092E+03  0.00000000000E+00 0.  1.
         14    1    6    6    0    0  0.72603416043E+02 -0.84008953600E+02  0.45744128748E+03  0.47072422054E+03  0.00000000000E+00 0. -1.
         -5    1    3    3    0  503 -0.74701003955E+02 -0.12762696340E+02  0.60834374572E+03  0.61306388685E+03  0.47000000000E+01 0.  1.
         13    1    4    4    0    0 -0.56199007686E+02  0.83189865844E+02  0.32623244256E+03  0.34133046865E+03  0.00000000000E+00 0. -1.
        -14    1    4    4    0    0  0.19322789596E+02 -0.72959368047E+01  0.14031421477E+03  0.14182623085E+03  0.00000000000E+00 0.  1.
</event>
<event>
12    1  0.8747122E-002  0.1791449E+03  0.7818608E-02  0.1168660E+00
         21   -1    0    0  503  502  0.00000000000E+00  0.00000000000E+00  0.59750798241E+02  0.59750798241E+02  0.00000000000E+00 0.  1.
         21   -1    0    0  501  503 -0.00000000000E+00 -0.00000000000E+00 -0.53734676732E+03  0.53734676732E+03  0.00000000000E+00 0.  1.
          6    2    1    2  501    0 -0.56429263304E+02  0.92128730627E+01 -0.24849169044E+03  0.30633479686E+03  0.16977558352E+03 0.  0.
         24    2    3    3    0    0 -0.29321395937E+02  0.83055416275E+01 -0.49936484573E+02  0.10588051404E+03  0.88251370981E+02 0.  0.
         -6    2    1    2    0  502  0.56429263304E+02 -0.92128730627E+01 -0.22910427864E+03  0.29076276871E+03  0.16966165857E+03 0.  0.
        -24    2    5    5    0    0 -0.21299360745E+02 -0.13275335589E+02 -0.56421519134E+02  0.10129069153E+03  0.80290217749E+02 0.  0.
          5    1    3    3  501    0 -0.27107867368E+02  0.90733143513E+00 -0.19855520587E+03  0.20045428282E+03  0.47000000000E+01 0. -1.
        -11    1    4    4    0    0 -0.12702991102E+01 -0.26860589053E+02 -0.54392695728E+02  0.60676768640E+02  0.00000000000E+00 0.  1.
         12    1    4    4    0    0 -0.28051096826E+02  0.35166130680E+02  0.44562111540E+01  0.45203745398E+02  0.00000000000E+00 0. -1.
         -5    1    5    5    0  502  0.77728624049E+02  0.40624625259E+01 -0.17268275951E+03  0.18947207718E+03  0.47000000000E+01 0.  1.
         11    1    6    6    0    0  0.30032613688E+02  0.17292449161E+01 -0.14817001774E+02  0.33533441733E+02  0.00000000000E+00 0. -1.
        -12    1    6    6    0    0 -0.51331974433E+02 -0.15004580505E+02 -0.41604517360E+02  0.67757249797E+02  0.00000000000E+00 0.  1.
</event>
<event>
12    1  0.8747122E-002  0.2188695E+03  0.7818608E-02  0.1135711E+00
         21   -1    0    0  503  502  0.00000000000E+00  0.00000000000E+00  0.30893144510E+03  0.30893144510E+03  0.00000000000E+00 0. -1.
         21   -1    0    0  501  503 -0.00000000000E+00 -0.00000000000E+00 -0.54418460175E+03  0.54418460175E+03  0.00000000000E+00 0. -1.
          6    2    1    2  501    0  0.68774152478E+01  0.12788805209E+03 -0.47961245719E+03  0.52506826666E+03  0.17107285832E+03 0.  0.
         24    2    3    3    0    0  0.32299576044E+02  0.74153070680E+02 -0.14340175950E+03  0.18361042486E+03  0.81282119712E+02 0.  0.
         -6    2    1    2    0  502 -0.68774152478E+01 -0.12788805209E+03  0.24435930054E+03  0.32804778019E+03  0.17748584626E+03 0.  0.
        -24    2    5    5    0    0 -0.40570570864E+02 -0.64271856255E+02  0.22925311076E+03  0.25434204041E+03  0.79724789116E+02 0.  0.
          5    1    3    3  501    0 -0.25422160796E+02  0.53734981406E+02 -0.33621069769E+03  0.34145784180E+03  0.47000000000E+01 0. -1.
        -13    1    4    4    0    0 -0.25016123836E+00 -0.16237694678E+02 -0.36096129443E+02  0.39581003901E+02  0.00000000000E+00 0.  1.
         14    1    4    4    0    0  0.32549737283E+02  0.90390765358E+02 -0.10730563006E+03  0.14402942096E+03  0.00000000000E+00 0. -1.
         -5    1    5    5    0  502  0.33693155616E+02 -0.63616195831E+02  0.15106189783E+02  0.73705739785E+02  0.47000000000E+01 0.  1.
         13    1    6    6    0    0 -0.16113604725E-01  0.15214038085E+02  0.71492213473E+02  0.73093117335E+02  0.00000000000E+00 0. -1.
        -14    1    6    6    0    0 -0.40554457259E+02 -0.79485894340E+02  0.15776089729E+03  0.18124892307E+03  0.00000000000E+00 0.  1.
</event>
<event>
12    1  0.8747122E-002  0.2129981E+03  0.7818608E-02  0.1139289E+00
         21   -1    0    0  501  502  0.00000000000E+00  0.00000000000E+00  0.11658262014E+04  0.11658262014E+04  0.00000000000E+00 0. -1.
         21   -1    0    0  502  503 -0.00000000000E+00 -0.00000000000E+00 -0.50336192507E+02  0.50336192507E+02  0.00000000000E+00 0. -1.
         -6    2    1    2    0  503 -0.37597669498E+02  0.11954719212E+03  0.26758936964E+03  0.34201209261E+03  0.17222974439E+03 0.  0.
        -24    2    3    3    0    0 -0.52059832894E+02  0.34459723665E+01  0.11258546882E+03  0.14775209501E+03  0.80206563721E+02 0.  0.
          6    2    1    2  501    0  0.37597669498E+02 -0.11954719212E+03  0.84790063926E+03  0.87415030130E+03  0.17175022364E+03 0.  0.
         24    2    5    5    0    0  0.12340028354E+02 -0.23632894520E+02  0.17680664869E+03  0.19575017225E+03  0.79666485505E+02 0.  0.
          5    1    5    5  501    0  0.25257641144E+02 -0.95914297596E+02  0.67109399057E+03  0.67840012905E+03  0.47000000000E+01 0. -1.
        -11    1    6    6    0    0  0.15467183581E+01  0.29026531987E+02  0.78465680612E+02  0.83676728729E+02  0.00000000000E+00 0.  1.
         12    1    6    6    0    0  0.10793309996E+02 -0.52659426507E+02  0.98340968076E+02  0.11207344352E+03  0.00000000000E+00 0. -1.
         -5    1    3    3    0  503  0.14462163395E+02  0.11610121975E+03  0.15500390082E+03  0.19425999760E+03  0.47000000000E+01 0.  1.
         13    1    4    4    0    0 -0.21684355768E+02  0.28568313123E+02  0.90837803849E+01  0.36998308959E+02  0.00000000000E+00 0. -1.
        -14    1    4    4    0    0 -0.30375477125E+02 -0.25122340756E+02  0.10350168844E+03  0.11075378605E+03  0.00000000000E+00 0.  1.
</event>
<event>
12    1  0.8747122E-002  0.2209892E+03  0.7818608E-02  0.1135953E+00
         21   -1    0    0  501  502  0.00000000000E+00  0.00000000000E+00  0.10796189658E+04  0.10796189658E+04  0.00000000000E+00 0.  1.
         21   -1    0    0  502  503 -0.00000000000E+00 -0.00000000000E+00 -0.16707474771E+03  0.16707474771E+03  0.00000000000E+00 0. -1.
         -6    2    1    2    0  503  0.92757674868E+02 -0.91692070282E+02 -0.86289156634E+02  0.22370577034E+03  0.15995946716E+03 0.  0.
        -24    2    3    3    0    0  0.68603330609E+02 -0.86763399839E+02 -0.23155090915E+02  0.15576664764E+03  0.10720441111E+03 0.  0.
          6    2    1    2  501    0 -0.92757674868E+02  0.91692070282E+02  0.99883337474E+03  0.10229879432E+04  0.17839506556E+03 0.  0.
         24    2    5    5    0    0 -0.11744390936E+03  0.89061282038E+02  0.56620874793E+03  0.58962609791E+03  0.73086286677E+02 0.  0.
          5    1    5    5  501    0  0.24686234496E+02  0.26307882434E+01  0.43262462681E+03  0.43336184528E+03  0.47000000000E+01 0. -1.
        -11    1    6    6    0    0 -0.80036542622E+02  0.87023965936E+02  0.49762137335E+03  0.51147438843E+03  0.00000000000E+00 0.  1.
         12    1    6    6    0    0 -0.37407366742E+02  0.20373161019E+01  0.68587374579E+02  0.78151709483E+02  0.00000000000E+00 0. -1.
         -5    1    3    3    0  503  0.24154344259E+02 -0.49286704426E+01 -0.63134065720E+02  0.67939122700E+02  0.47000000000E+01 0.  1.
         13    1    4    4    0    0  0.65900852099E+02 -0.86198004244E+02 -0.56482867669E+02  0.12232470144E+03  0.00000000000E+00 0. -1.
        -14    1    4    4    0    0  0.27024785101E+01 -0.56539559555E+00  0.33327776754E+02  0.33441946200E+02  0.00000000000E+00 0.  1.
</event>
<event>
12    1  0.8747122E-002  0.2337071E+03  0.7818608E-02  0.1125142E+00
         21   -1    0    0  501  502  0.00000000000E+00  0.00000000000E+00  0.45452068730E+03  0.45452068730E+03  0.00000000000E+00 0.  1.
         21   -1    0    0  502  503 -0.00000000000E+00 -0.00000000000E+00 -0.14803132686E+03  0.14803132686E+03  0.00000000000E+00 0. -1.
         -6    2    1    2    0  503 -0.14819529999E+03  0.15791511675E+02  0.16945977319E+02  0.23432070408E+03  0.18002168601E+03 0.  0.
        -24    2    3    3    0    0 -0.10550808858E+03  0.59956212175E+02 -0.40419848137E+02  0.15014442049E+03  0.78631283519E+02 0.  0.
          6    2    1    2  501    0  0.14819529999E+03 -0.15791511675E+02  0.28954338313E+03  0.36823131008E+03  0.17189446829E+03 0.  0.
         24    2    5    5    0    0  0.68415781957E+02  0.38334730371E+02  0.22683897193E+03  0.25312981244E+03  0.80427060021E+02 0.  0.
          5    1    5    5  501    0  0.79779518036E+02 -0.54126242046E+02  0.62704411196E+02  0.11510149764E+03  0.47000000000E+01 0. -1.
        -13    1    6    6    0    0  0.85575612533E+02  0.38316611613E+02  0.17516259955E+03  0.19867884756E+03  0.00000000000E+00 0.  1.
         14    1    6    6    0    0 -0.17159830576E+02  0.18118758619E-01  0.51676372377E+02  0.54450964874E+02  0.00000000000E+00 0. -1.
         -5    1    3    3    0  503 -0.42687211418E+02 -0.44164700501E+02  0.57365825456E+02  0.84176283591E+02  0.47000000000E+01 0.  1.
         13    1    4    4    0    0 -0.72725771515E+02  0.78379750575E+02 -0.27780707201E+02  0.11047257956E+03  0.00000000000E+00 0. -1.
        -14    1    4    4    0    0 -0.32782317060E+02 -0.18423538400E+02 -0.12639140936E+02  0.39671840928E+02  0.00000000000E+00 0.  1.
</event>
<event>
12    1  0.8747122E-002  0.2101280E+03  0.7818608E-02  0.1141612E+00
         21   -1    0    0  501  502  0.00000000000E+00  0.00000000000E+00  0.61674052553E+03  0.61674052553E+03  0.00000000000E+00 0.  1.
         21   -1    0    0  502  503 -0.00000000000E+00 -0.00000000000E+00 -0.79169707475E+02  0.79169707475E+02  0.00000000000E+00 0. -1.
         -6    2    1    2    0  503  0.11819673251E+03 -0.16443873887E+02  0.37778668236E+03  0.43193153109E+03  0.17204999742E+03 0.  0.
        -24    2    3    3    0    0  0.23430120647E+02  0.46228487421E+02  0.16430590632E+03  0.19005415030E+03  0.80237806500E+02 0.  0.
          6    2    1    2  501    0 -0.11819673251E+03  0.16443873887E+02  0.15978413570E+03  0.26397870192E+03  0.17295350960E+03 0.  0.
         24    2    5    5    0    0 -0.33869106701E+02 -0.12991075332E+02  0.10303527588E+02  0.89783102348E+02  0.81479803384E+02 0.  0.
          5    1    5    5  501    0 -0.84327625811E+02  0.29434949219E+02  0.14948060811E+03  0.17419559957E+03  0.47000000000E+01 0. -1.
        -13    1    6    6    0    0  0.57151312463E+01 -0.26012453097E+02  0.32940756110E+02  0.42360404323E+02  0.00000000000E+00 0.  1.
         14    1    6    6    0    0 -0.39584237947E+02  0.13021377766E+02 -0.22637228522E+02  0.47422698024E+02  0.00000000000E+00 0. -1.
         -5    1    3    3    0  503  0.94766611865E+02 -0.62672361308E+02  0.21348077604E+03  0.24187738079E+03  0.47000000000E+01 0.  1.
         11    1    4    4    0    0 -0.25396137850E+02  0.32861003990E+02  0.99501253223E+02  0.10782072525E+03  0.00000000000E+00 0. -1.
        -12    1    4    4    0    0  0.48826258497E+02  0.13367483431E+02  0.64804653095E+02  0.82233425046E+02  0.00000000000E+00 0.  1.
</event>
<event>
12    1  0.8747122E-002  0.3411523E+03  0.7818608E-02  0.1066420E+00
         21   -1    0    0  501  502  0.00000000000E+00  0.00000000000E+00  0.94535281623E+03  0.94535281623E+03  0.00000000000E+00 0.  1.
         21   -1    0    0  502  503 -0.00000000000E+00 -0.00000000000E+00 -0.12773442679E+03  0.12773442679E+03  0.00000000000E+00 0. -1.
         -6    2    1    2    0  503  0.25038217298E+03 -0.15281745360E+03  0.30196121835E+03  0.45479343618E+03  0.17208162462E+03 0.  0.
        -24    2    3    3    0    0  0.20710659742E+03 -0.92966292824E+02  0.14389559327E+03  0.28026043438E+03  0.79398331328E+02 0.  0.
          6    2    1    2  501    0 -0.25038217298E+03  0.15281745360E+03  0.51565717108E+03  0.61829380684E+03  0.17418526580E+03 0.  0.
         24    2    5    5    0    0 -0.14906003980E+03  0.95171509273E+02  0.18764649746E+03  0.27015256886E+03  0.80589644581E+02 0.  0.
          5    1    5    5  501    0 -0.10132213318E+03  0.57645944330E+02  0.32801067363E+03  0.34814123798E+03  0.47000000000E+01 0. -1.
        -11    1    6    6    0    0 -0.37092918898E+02  0.12862795304E+02  0.95921179668E+02  0.10364462767E+03  0.00000000000E+00 0.  1.
         12    1    6    6    0    0 -0.11196712090E+03  0.82308713969E+02  0.91725317788E+02  0.16650794119E+03  0.00000000000E+00 0. -1.
         -5    1    3    3    0  503  0.43275575562E+02 -0.59851160778E+02  0.15806562508E+03  0.17453300180E+03  0.47000000000E+01 0.  1.
         11    1    4    4    0    0  0.15246330483E+03 -0.32794234620E+02  0.72096909100E+02  0.17180944516E+03  0.00000000000E+00 0. -1.
        -12    1    4    4    0    0  0.54643292590E+02 -0.60172058205E+02  0.71798684171E+02  0.10845098922E+03  0.00000000000E+00 0.  1.
</event>
<event>
12    1  0.8747122E-002  0.1927462E+03  0.7818608E-02  0.1156019E+00
         21   -1    0    0  501  502  0.00000000000E+00  0.00000000000E+00  0.31212018123E+03  0.31212018123E+03  0.00000000000E+00 0. -1.
         21   -1    0    0  502  503 -0.00000000000E+00 -0.00000000000E+00 -0.14379480018E+03  0.14379480018E+03  0.00000000000E+00 0. -1.
         -6    2    1    2    0  503 -0.70380140188E+02 -0.52106708165E+02 -0.10511743725E+02  0.19298184582E+03  0.17164796210E+03 0.  0.
        -24    2    3    3    0    0 -0.32537583468E+02 -0.86417793229E+02 -0.46269363287E+02  0.13045179693E+03  0.79687439532E+02 0.  0.
          6    2    1    2  501    0  0.70380140188E+02  0.52106708165E+02  0.17883712478E+03  0.26293313559E+03  0.17170510599E+03 0.  0.
         24    2    5    5    0    0 -0.20745659806E+02  0.60351162364E+02  0.10073140301E+03  0.14254012822E+03  0.78091148041E+02 0.  0.
          5    1    5    5  501    0  0.91125799994E+02 -0.82444541982E+01  0.78105721772E+02  0.12039300737E+03  0.47000000000E+01 0. -1.
        -11    1    6    6    0    0 -0.41948129450E+02  0.25004303240E+02  0.21769399247E+02  0.53467443258E+02  0.00000000000E+00 0.  1.
         12    1    6    6    0    0  0.21202469645E+02  0.35346859123E+02  0.78962003762E+02  0.89072684966E+02  0.00000000000E+00 0. -1.
         -5    1    3    3    0  503 -0.37842556720E+02  0.34311085064E+02  0.35757619562E+02  0.62530048889E+02  0.47000000000E+01 0.  1.
         11    1    4    4    0    0 -0.50301751140E+02 -0.34444457774E+02 -0.44535685410E+02  0.75499100088E+02  0.00000000000E+00 0. -1.
        -12    1    4    4    0    0  0.17764167672E+02 -0.51973335455E+02 -0.17336778764E+01  0.54952696844E+02  0.00000000000E+00 0.  1.
</event>
<event>
12    1  0.8747122E-002  0.1874333E+03  0.7818608E-02  0.1160830E+00
         21   -1    0    0  501  502  0.00000000000E+00  0.00000000000E+00  0.11807504927E+03  0.11807504927E+03  0.00000000000E+00 0. -1.
         21   -1    0    0  502  503 -0.00000000000E+00 -0.00000000000E+00 -0.32409346949E+03  0.32409346949E+03  0.00000000000E+00 0. -1.
         -6    2    1    2    0  503  0.71590528701E+02 -0.22454815803E+02 -0.16653326362E+03  0.25062136027E+03  0.17160511582E+03 0.  0.
        -24    2    3    3    0    0 -0.12588061473E+02 -0.28779965785E+02 -0.13392851161E+03  0.16000567498E+03  0.81720401867E+02 0.  0.
          6    2    1    2  501    0 -0.71590528701E+02  0.22454815803E+02 -0.39485156602E+02  0.19154715849E+03  0.17176092042E+03 0.  0.
         24    2    5    5    0    0 -0.10877194595E+03 -0.12921937768E+02 -0.32158673419E+02  0.13949199700E+03  0.80159367823E+02 0.  0.
          5    1    5    5  501    0  0.37181417252E+02  0.35376753571E+02 -0.73264831832E+01  0.52055161492E+02  0.47000000000E+01 0. -1.
        -11    1    6    6    0    0  0.21059376427E+01 -0.38211648082E+01 -0.27816441875E+02  0.28156539426E+02  0.00000000000E+00 0.  1.
         12    1    6    6    0    0 -0.11087788360E+03 -0.91007729600E+01 -0.43422315431E+01  0.11133545758E+03  0.00000000000E+00 0. -1.
         -5    1    3    3    0  503  0.84178590173E+02  0.63251499819E+01 -0.32604752008E+02  0.90615685284E+02  0.47000000000E+01 0.  1.
         11    1    4    4    0    0  0.51218341348E+01 -0.27965471770E+01 -0.12784455710E+03  0.12797767243E+03  0.00000000000E+00 0. -1.
        -12    1    4    4    0    0 -0.17709895607E+02 -0.25983418608E+02 -0.60839545159E+01  0.32028002553E+02  0.00000000000E+00 0.  1.
</event>
<event>
12    1  0.8747122E-002  0.1884693E+03  0.7818608E-02  0.1160046E+00
         21   -1    0    0  501  502  0.00000000000E+00  0.00000000000E+00  0.12781228671E+04  0.12781228671E+04  0.00000000000E+00 0.  1.
         21   -1    0    0  502  503 -0.00000000000E+00 -0.00000000000E+00 -0.35611795699E+02  0.35611795699E+02  0.00000000000E+00 0.  1.
         -6    2    1    2    0  503 -0.68517154106E+02 -0.33588079504E+02  0.31205119965E+03  0.36454990775E+03  0.17233085780E+03 0.  0.
        -24    2    3    3    0    0 -0.11480763024E+02 -0.59050125374E+02  0.27284120734E+03  0.29065146944E+03  0.80107596665E+02 0.  0.
          6    2    1    2  501    0  0.68517154106E+02  0.33588079504E+02  0.93045987174E+03  0.94918475503E+03  0.17138660034E+03 0.  0.
         24    2    5    5    0    0  0.62607808790E+02  0.39481494373E+02  0.31149157289E+03  0.33014235124E+03  0.80550890664E+02 0.  0.
          5    1    5    5  501    0  0.59093453154E+01 -0.58934148695E+01  0.61896829885E+03  0.61904240378E+03  0.47000000000E+01 0. -1.
        -13    1    6    6    0    0  0.24822108540E+02  0.22908897633E+02  0.26827158744E+03  0.27038971743E+03  0.00000000000E+00 0.  1.
         14    1    6    6    0    0  0.37785700250E+02  0.16572596741E+02  0.43219985448E+02  0.59752633818E+02  0.00000000000E+00 0. -1.
         -5    1    3    3    0  503 -0.57036391081E+02  0.25462045870E+02  0.39209992314E+02  0.73898438311E+02  0.47000000000E+01 0.  1.
         11    1    4    4    0    0 -0.32889117772E+02 -0.44509824653E+02  0.25025754415E+03  0.25630383720E+03  0.00000000000E+00 0. -1.
        -12    1    4    4    0    0  0.21408354747E+02 -0.14540300721E+02  0.22583663185E+02  0.34347632246E+02  0.00000000000E+00 0.  1.
</event>
<event>
12    1  0.8747122E-002  0.2232337E+03  0.7818608E-02  0.1131756E+00
         21   -1    0    0  501  502  0.00000000000E+00  0.00000000000E+00  0.42043370597E+03  0.42043370597E+03  0.00000000000E+00 0.  1.
         21   -1    0    0  502  503 -0.00000000000E+00 -0.00000000000E+00 -0.12821613913E+03  0.12821613913E+03  0.00000000000E+00 0.  1.
         -6    2    1    2    0  503  0.10653831517E+03  0.92447505710E+02  0.67397502501E+02  0.23182600556E+03  0.17118387658E+03 0.  0.
        -24    2    3    3    0    0  0.79877409698E+02  0.17074500183E+02  0.93779299499E+02  0.14750529010E+03  0.79317806684E+02 0.  0.
          6    2    1    2  501    0 -0.10653831517E+03 -0.92447505710E+02  0.22482006434E+03  0.31682383953E+03  0.17302118383E+03 0.  0.
         24    2    5    5    0    0  0.15496011274E+01 -0.78604295333E+02  0.93063630156E+02  0.14577858215E+03  0.80059473198E+02 0.  0.
          5    1    5    5  501    0 -0.10808791629E+03 -0.13843210377E+02  0.13175643419E+03  0.17104525738E+03  0.47000000000E+01 0. -1.
        -11    1    6    6    0    0 -0.12820157819E+02 -0.91340529221E+02  0.70138322800E+02  0.11587421219E+03  0.00000000000E+00 0.  1.
         12    1    6    6    0    0  0.14369758946E+02  0.12736233887E+02  0.22925307356E+02  0.29904369968E+02  0.00000000000E+00 0. -1.
         -5    1    3    3    0  503  0.26660905470E+02  0.75373005527E+02 -0.26381796998E+02  0.84320715459E+02  0.47000000000E+01 0.  1.
         13    1    4    4    0    0  0.75743318587E+02  0.55096748437E+01  0.28554442859E+02  0.81134228501E+02  0.00000000000E+00 0. -1.
        -14    1    4    4    0    0  0.41340911107E+01  0.11564825340E+02  0.65224856640E+02  0.66371061601E+02  0.00000000000E+00 0.  1.
</event>
<event>
12    1  0.8747122E-002  0.1782454E+03  0.7818608E-02  0.1170529E+00
         21   -1    0    0  503  502  0.00000000000E+00  0.00000000000E+00  0.14429936268E+03  0.14429936268E+03  0.00000000000E+00 0. -1.
         21   -1    0    0  501  503 -0.00000000000E+00 -0.00000000000E+00 -0.36127116753E+03  0.36127116753E+03  0.00000000000E+00 0. -1.
          6    2    1    2  501    0 -0.22628990089E+02 -0.17779130395E+02 -0.26849745243E+03  0.32002726328E+03  0.17175097849E+03 0.  0.
         24    2    3    3    0    0  0.11442806652E+02 -0.14660425490E+02 -0.27320171052E+03  0.28517279875E+03  0.79614600521E+02 0.  0.
         -6    2    1    2    0  502  0.22628990089E+02  0.17779130395E+02  0.51525647582E+02  0.18554326693E+03  0.17590691536E+03 0.  0.
        -24    2    5    5    0    0 -0.23199918478E+02  0.16882257618E+02  0.90931900868E+02  0.12491294415E+03  0.80693160690E+02 0.  0.
          5    1    3    3  501    0 -0.34071796742E+02 -0.31187049050E+01  0.47042580930E+01  0.34854464530E+02  0.47000000000E+01 0. -1.
        -11    1    4    4    0    0 -0.12491015147E+02 -0.26590167975E+02 -0.35987807780E+02  0.46456267620E+02  0.00000000000E+00 0.  1.
         12    1    4    4    0    0  0.23933821799E+02  0.11929742485E+02 -0.23721390274E+03  0.23871653113E+03  0.00000000000E+00 0. -1.
         -5    1    5    5    0  502  0.45828908568E+02  0.89687277732E+00 -0.39406253286E+02  0.60630322771E+02  0.47000000000E+01 0. -1.
         11    1    6    6    0    0 -0.46302912503E+02  0.29289474001E+02  0.78907829641E+02  0.96063929610E+02  0.00000000000E+00 0. -1.
        -12    1    6    6    0    0  0.23102994025E+02 -0.12407216383E+02  0.12024071227E+02  0.28849014544E+02  0.00000000000E+00 0.  1.
</event>
<event>
12    1  0.8747122E-002  0.2105183E+03  0.7818608E-02  0.1141309E+00
         21   -1    0    0  503  502  0.00000000000E+00  0.00000000000E+00  0.10141131752E+04  0.10141131752E+04  0.00000000000E+00 0.  1.
         21   -1    0    0  501  503 -0.00000000000E+00 -0.00000000000E+00 -0.56727153680E+02  0.56727153680E+02  0.00000000000E+00 0. -1.
          6    2    1    2  501    0 -0.61369690887E+02 -0.10141383130E+03  0.22122364586E+03  0.30538151504E+03  0.17397403283E+03 0.  0.
         24    2    3    3    0    0 -0.10049032311E+03 -0.58272428660E+02  0.19729457640E+03  0.24224440350E+03  0.79140509036E+02 0.  0.
         -6    2    1    2    0  502  0.61369690887E+02  0.10141383130E+03  0.73616237569E+03  0.76545881387E+03  0.17303510689E+03 0.  0.
        -24    2    5    5    0    0  0.47163263345E+02  0.10331785307E+03  0.31761904301E+03  0.34664374823E+03  0.79881659537E+02 0.  0.
          5    1    3    3  501    0  0.39120632227E+02 -0.43141402643E+02  0.23929069467E+02  0.63137111538E+02  0.47000000000E+01 0. -1.
        -11    1    4    4    0    0 -0.78020775185E+02 -0.16972379995E+02  0.68729851978E+02  0.10535224533E+03  0.00000000000E+00 0.  1.
         12    1    4    4    0    0 -0.22469547929E+02 -0.41300048665E+02  0.12856472442E+03  0.13689215817E+03  0.00000000000E+00 0. -1.
         -5    1    5    5    0  502  0.14206427543E+02 -0.19040217672E+01  0.41854333267E+03  0.41881506564E+03  0.47000000000E+01 0.  1.
         13    1    6    6    0    0  0.41623516556E+02  0.41860596481E+02  0.70571044133E+02  0.92005972296E+02  0.00000000000E+00 0. -1.
        -14    1    6    6    0    0  0.55397467888E+01  0.61457256589E+02  0.24704799888E+03  0.25463777593E+03  0.00000000000E+00 0.  1.
</event>
<event>
12    1  0.8747122E-002  0.3259308E+03  0.7818608E-02  0.1072955E+00
         21   -1    0    0  501  502  0.00000000000E+00  0.00000000000E+00  0.90454291186E+03  0.90454291186E+03  0.00000000000E+00 0.  1.
         21   -1    0    0  502  503 -0.00000000000E+00 -0.00000000000E+00 -0.16771364746E+03  0.16771364746E+03  0.00000000000E+00 0.  1.
         -6    2    1    2    0  503 -0.27022282100E+03 -0.59836706983E+02  0.66195949828E+03  0.73783710832E+03  0.17208258642E+03 0.  0.
        -24    2    3    3    0    0 -0.18852783656E+03 -0.78818131287E+02  0.33698172472E+03  0.40217804280E+03  0.80221271127E+02 0.  0.
          6    2    1    2  501    0  0.27022282100E+03  0.59836706983E+02  0.74869766120E+02  0.33441945101E+03  0.17213390961E+03 0.  0.
         24    2    5    5    0    0  0.19165289569E+03  0.10428544270E+03  0.32286379650E+02  0.23449769125E+03  0.79627073936E+02 0.  0.
          5    1    5    5  501    0  0.78569925312E+02 -0.44448735715E+02  0.42583386470E+02  0.99921759759E+02  0.47000000000E+01 0. -1.
        -13    1    6    6    0    0  0.17595330003E+03  0.61098182365E+02  0.23902206782E+02  0.18778675983E+03  0.00000000000E+00 0.  1.
         14    1    6    6    0    0  0.15699595664E+02  0.43187260333E+02  0.83841728682E+01  0.46710931416E+02  0.00000000000E+00 0. -1.
         -5    1    3    3    0  503 -0.81694984445E+02  0.18981424304E+02  0.32497777356E+03  0.33565906551E+03  0.47000000000E+01 0.  1.
         13    1    4    4    0    0 -0.37455364492E+02  0.19731405298E+01  0.11994715995E+03  0.12567465454E+03  0.00000000000E+00 0. -1.
        -14    1    4    4    0    0 -0.15107247207E+03 -0.80791271817E+02  0.21703456477E+03  0.27650338826E+03  0.00000000000E+00 0.  1.
</event>
<event>
12    1  0.8747122E-002  0.2307223E+03  0.7818608E-02  0.1126852E+00
         21   -1    0    0  501  502  0.00000000000E+00  0.00000000000E+00  0.12301279508E+03  0.12301279508E+03  0.00000000000E+00 0. -1.
         21   -1    0    0  502  503 -0.00000000000E+00 -0.00000000000E+00 -0.44112118729E+03  0.44112118729E+03  0.00000000000E+00 0. -1.
         -6    2    1    2    0  503  0.50792625110E+01  0.15161886956E+03 -0.10673972650E+03  0.25421674411E+03  0.17383527622E+03 0.  0.
        -24    2    3    3    0    0  0.68373132700E+02  0.93747848826E+02 -0.42240557665E+02  0.14680444582E+03  0.79396071473E+02 0.  0.
          6    2    1    2  501    0 -0.50792625110E+01 -0.15161886956E+03 -0.21136866571E+03  0.30991723826E+03  0.16839804397E+03 0.  0.
         24    2    5    5    0    0  0.30648624386E+02 -0.14922675415E+03 -0.11450491504E+03  0.20653986978E+03  0.79620223003E+02 0.  0.
          5    1    5    5  501    0 -0.35727886897E+02 -0.23921154037E+01 -0.96863750674E+02  0.10337736848E+03  0.47000000000E+01 0. -1.
        -11    1    6    6    0    0  0.20333125725E+02 -0.23443918707E+00 -0.39265204109E+01  0.20710106857E+02  0.00000000000E+00 0.  1.
         12    1    6    6    0    0  0.10315498661E+02 -0.14899231497E+03 -0.11057839463E+03  0.18582976293E+03  0.00000000000E+00 0. -1.
         -5    1    3    3    0  503 -0.63293870189E+02  0.57871020731E+02 -0.64499168832E+02  0.10741229829E+03  0.47000000000E+01 0.  1.
         11    1    4    4    0    0 -0.71482474313E+01  0.48214281460E+02  0.64033504953E+00  0.48745506531E+02  0.00000000000E+00 0. -1.
        -12    1    4    4    0    0  0.75521380131E+02  0.45533567367E+02 -0.42880892714E+02  0.98058939287E+02  0.00000000000E+00 0.  1.
</event>
<event>
12    1  0.8747122E-002  0.1807118E+03  0.7818608E-02  0.1167764E+00
         21   -1    0    0  503  502  0.00000000000E+00  0.00000000000E+00  0.32137203641E+03  0.32137203641E+03  0.00000000000E+00 0.  1.
         21   -1    0    0  501  503 -0.00000000000E+00 -0.00000000000E+00 -0.10117475872E+03  0.10117475872E+03  0.00000000000E+00 0.  1.
          6    2    1    2  501    0  0.46662497258E+02  0.31530400853E+02  0.13247524312E+03  0.22406796774E+03  0.17171257759E+03 0.  0.
         24    2    3    3    0    0  0.60846512024E+02 -0.31257360322E+02  0.42045732498E+02  0.11296857252E+03  0.79465301585E+02 0.  0.
         -6    2    1    2    0  502 -0.46662497258E+02 -0.31530400853E+02  0.87722034571E+02  0.19847882739E+03  0.16889977722E+03 0.  0.
        -24    2    5    5    0    0 -0.74225874410E+02 -0.85478741737E+00  0.10597630869E+03  0.15313523310E+03  0.81909770602E+02 0.  0.
          5    1    3    3  501    0 -0.14184014766E+02  0.62787761175E+02  0.90429510617E+02  0.11109939522E+03  0.47000000000E+01 0. -1.
        -11    1    4    4    0    0  0.35508852945E+02  0.24663014714E+02  0.21040968728E+02  0.48081860377E+02  0.00000000000E+00 0.  1.
         12    1    4    4    0    0  0.25337659079E+02 -0.55920375036E+02  0.21004763771E+02  0.64886712143E+02  0.00000000000E+00 0. -1.
         -5    1    5    5    0  502  0.27563377152E+02 -0.30675613435E+02 -0.18254274120E+02  0.45343594292E+02  0.47000000000E+01 0.  1.
         11    1    6    6    0    0  0.10172245564E+02  0.17554717296E+02  0.38512553082E+02  0.43529983046E+02  0.00000000000E+00 0. -1.
        -12    1    6    6    0    0 -0.84398119974E+02 -0.18409504714E+02  0.67463755609E+02  0.10960525006E+03  0.00000000000E+00 0.  1.
</event>
<event>
12    1  0.8747122E-002  0.1815211E+03  0.7818608E-02  0.1166422E+00
         21   -1    0    0  501  502  0.00000000000E+00  0.00000000000E+00  0.20478274749E+03  0.20478274749E+03  0.00000000000E+00 0. -1.
         21   -1    0    0  502  503 -0.00000000000E+00 -0.00000000000E+00 -0.41462626640E+03  0.41462626640E+03  0.00000000000E+00 0. -1.
         -6    2    1    2    0  503  0.53030496604E+02  0.18488546020E+02 -0.34737805085E+03  0.39194568611E+03  0.17261474662E+03 0.  0.
        -24    2    3    3    0    0 -0.90124204983E+00  0.55331837476E+02 -0.28597917282E+03  0.30217947430E+03  0.80410962743E+02 0.  0.
          6    2    1    2  501    0 -0.53030496604E+02 -0.18488546020E+02  0.13753453194E+03  0.22746332778E+03  0.17224911641E+03 0.  0.
         24    2    5    5    0    0 -0.90804080071E+02  0.16203730986E+02  0.68573764585E+02  0.14139315219E+03  0.82351201825E+02 0.  0.
          5    1    5    5  501    0  0.37773583467E+02 -0.34692277006E+02  0.68960767351E+02  0.86070175586E+02  0.47000000000E+01 0. -1.
        -13    1    6    6    0    0 -0.46103501452E+02  0.40690238255E+02  0.76570373647E+01  0.61966592262E+02  0.00000000000E+00 0.  1.
         14    1    6    6    0    0 -0.44700578619E+02 -0.24486507269E+02  0.60916727220E+02  0.79426559930E+02  0.00000000000E+00 0. -1.
         -5    1    3    3    0  503  0.53931738654E+02 -0.36843291456E+02 -0.61398878029E+02  0.89766211811E+02  0.47000000000E+01 0.  1.
         13    1    4    4    0    0  0.23531895144E+02  0.45239751454E+02 -0.82482430775E+02  0.96972865211E+02  0.00000000000E+00 0. -1.
        -14    1    4    4    0    0 -0.24433137194E+02  0.10092086022E+02 -0.20349674204E+03  0.20520660909E+03  0.00000000000E+00 0.  1.
</event>
<event>
12    1  0.8747122E-002  0.2879602E+03  0.7818608E-02  0.1091494E+00
         21   -1    0    0  501  502  0.00000000000E+00  0.00000000000E+00  0.84921000848E+02  0.84921000848E+02  0.00000000000E+00 0. -1.
         21   -1    0    0  502  503 -0.00000000000E+00 -0.00000000000E+00 -0.97580976913E+03  0.97580976913E+03  0.00000000000E+00 0.  1.
         -6    2    1    2    0  503  0.23083094563E+03 -0.96849444179E+01 -0.42565367717E+03  0.51358841952E+03  0.17092480265E+03 0.  0.
        -24    2    3    3    0    0  0.69854184019E+02  0.39246629121E+02 -0.12556342029E+03  0.16951855896E+03  0.80934939269E+02 0.  0.
          6    2    1    2  501    0 -0.23083094563E+03  0.96849444179E+01 -0.46523509111E+03  0.54714235046E+03  0.17188466499E+03 0.  0.
         24    2    5    5    0    0 -0.11804668926E+03 -0.24615659581E+02 -0.13846167471E+03  0.19972361812E+03  0.78593490369E+02 0.  0.
          5    1    5    5  501    0 -0.11278425637E+03  0.34300603998E+02 -0.32677341640E+03  0.34741873234E+03  0.47000000000E+01 0. -1.
        -11    1    6    6    0    0  0.11287727969E+01  0.12243475307E+02 -0.36800238775E+02  0.38799927700E+02  0.00000000000E+00 0.  1.
         12    1    6    6    0    0 -0.11917546206E+03 -0.36859134888E+02 -0.10166143594E+03  0.16092369042E+03  0.00000000000E+00 0. -1.
         -5    1    3    3    0  503  0.16097676161E+03 -0.48931573539E+02 -0.30009025688E+03  0.34406986056E+03  0.47000000000E+01 0.  1.
         11    1    4    4    0    0  0.79006735605E+02  0.33119010995E+02 -0.63887756388E+02  0.10686710708E+03  0.00000000000E+00 0. -1.
        -12    1    4    4    0    0 -0.91525515862E+01  0.61276181260E+01 -0.61675663899E+02  0.62651451873E+02  0.00000000000E+00 0.  1.
</event>
<event>
12    1  0.8747122E-002  0.1940619E+03  0.7818608E-02  0.1158345E+00
         21   -1    0    0  503  502  0.00000000000E+00  0.00000000000E+00  0.17124157756E+03  0.17124157756E+03  0.00000000000E+00 0.  1.
         21   -1    0    0  501  503 -0.00000000000E+00 -0.00000000000E+00 -0.22600989426E+03  0.22600989426E+03  0.00000000000E+00 0.  1.
          6    2    1    2  501    0 -0.19580664677E+02  0.52385190195E+02 -0.91763787966E+02  0.21466399846E+03  0.18582903129E+03 0.  0.
         24    2    3    3    0    0  0.64258315140E+02  0.18810082641E+02 -0.46382607323E+02  0.11348196477E+03  0.79018097880E+02 0.  0.
         -6    2    1    2    0  502  0.19580664677E+02 -0.52385190195E+02  0.36995471262E+02  0.18258747337E+03  0.16982906099E+03 0.  0.
        -24    2    5    5    0    0 -0.40294780879E+02  0.12372243842E+02  0.24724518510E+02  0.93417632475E+02  0.79616646865E+02 0.  0.
          5    1    3    3  501    0 -0.83838979818E+02  0.33575107553E+02 -0.45381180643E+02  0.10118203369E+03  0.47000000000E+01 0. -1.
        -13    1    4    4    0    0  0.32634212484E+01 -0.25835554931E+02 -0.27032483028E+01  0.26180782422E+02  0.00000000000E+00 0.  1.
         14    1    4    4    0    0  0.60994893892E+02  0.44645637572E+02 -0.43679359020E+02  0.87301182349E+02  0.00000000000E+00 0. -1.
         -5    1    5    5    0  502  0.59875445556E+02 -0.64757434036E+02  0.12270952753E+02  0.89169840893E+02  0.47000000000E+01 0.  1.
         13    1    6    6    0    0  0.17322771980E+01 -0.27798578062E+02 -0.47190543506E+01  0.28249446021E+02  0.00000000000E+00 0. -1.
        -14    1    6    6    0    0 -0.42027058077E+02  0.40170821903E+02  0.29443572860E+02  0.65168186454E+02  0.00000000000E+00 0.  1.
</event>
<event>
12    1  0.8747122E-002  0.2064516E+03  0.7818608E-02  0.1144440E+00
         21   -1    0    0  503  502  0.00000000000E+00  0.00000000000E+00  0.52706689098E+03  0.52706689098E+03  0.00000000000E+00 0.  1.
         21   -1    0    0  501  503 -0.00000000000E+00 -0.00000000000E+00 -0.10264928237E+03  0.10264928237E+03  0.00000000000E+00 0. -1.
          6    2    1    2  501    0  0.35988888939E+02 -0.10913953062E+03  0.66891673382E+02  0.21686381634E+03  0.17131486100E+03 0.  0.
         24    2    3    3    0    0  0.20991134359E+02 -0.66550376912E+02 -0.28769988198E+02  0.11097702702E+03  0.81354827246E+02 0.  0.
         -6    2    1    2    0  502 -0.35988888939E+02  0.10913953062E+03  0.35752593524E+03  0.41285235701E+03  0.17150987450E+03 0.  0.
        -24    2    5    5    0    0 -0.41867973170E+02 -0.35687710918E+01  0.19570428093E+03  0.21550478872E+03  0.79852896527E+02 0.  0.
          5    1    3    3  501    0  0.14997754579E+02 -0.42589153709E+02  0.95661661581E+02  0.10588678932E+03  0.47000000000E+01 0. -1.
        -13    1    4    4    0    0 -0.30606205773E+02 -0.26239500283E+02 -0.23888322958E+01  0.40385117638E+02  0.00000000000E+00 0.  1.
         14    1    4    4    0    0  0.51597340132E+02 -0.40310876629E+02 -0.26381155903E+02  0.70591909381E+02  0.00000000000E+00 0. -1.
         -5    1    5    5    0  502  0.58790842312E+01  0.11270830171E+03  0.16182165431E+03  0.19734756829E+03  0.47000000000E+01 0.  1.
         13    1    6    6    0    0 -0.15210913558E+02 -0.31613856224E+02  0.32659461038E+02  0.47931703411E+02  0.00000000000E+00 0. -1.
        -14    1    6    6    0    0 -0.26657059612E+02  0.28045085132E+02  0.16304481989E+03  0.16757308531E+03  0.00000000000E+00 0.  1.
</event>
<event>
12    1  0.8747122E-002  0.1774093E+03  0.7818608E-02  0.1170520E+00
         21   -1    0    0  503  502  0.00000000000E+00  0.00000000000E+00  0.87039113434E+03  0.87039113434E+03  0.00000000000E+00 0. -1.
         21   -1    0    0  501  503 -0.00000000000E+00 -0.00000000000E+00 -0.44783397616E+02  0.44783397616E+02  0.00000000000E+00 0. -1.
          6    2    1    2  501    0 -0.65706436018E+01 -0.41053464146E+02  0.20954229720E+03  0.27407338705E+03  0.17169649646E+03 0.  0.
         24    2    3    3    0    0 -0.64637164315E+02 -0.55166666566E+02  0.13806424258E+03  0.18078830999E+03  0.80008461038E+02 0.  0.
         -6    2    1    2    0  502  0.65706436018E+01  0.41053464146E+02  0.61606543953E+03  0.64110114491E+03  0.17246881443E+03 0.  0.
        -24    2    5    5    0    0  0.30301453073E+02  0.73012077137E+02  0.56496668644E+03  0.57615750143E+03  0.80753750319E+02 0.  0.
          5    1    3    3  501    0  0.58066520714E+02  0.14113202421E+02  0.71478054610E+02  0.93285077056E+02  0.47000000000E+01 0. -1.
        -11    1    4    4    0    0 -0.36704214981E+02 -0.62397896168E+02  0.49644318932E+02  0.87779583309E+02  0.00000000000E+00 0.  1.
         12    1    4    4    0    0 -0.27932949334E+02  0.72312296021E+01  0.88419923653E+02  0.93008726681E+02  0.00000000000E+00 0. -1.
         -5    1    5    5    0  502 -0.23730809471E+02 -0.31958612991E+02  0.51098753085E+02  0.64943643487E+02  0.47000000000E+01 0.  1.
         13    1    6    6    0    0  0.12425536061E+02  0.36440493333E+02  0.48404861268E+03  0.48557735010E+03  0.00000000000E+00 0. -1.
        -14    1    6    6    0    0  0.17875917012E+02  0.36571583804E+02  0.80918073769E+02  0.90580151321E+02  0.00000000000E+00 0.  1.
</event>
<event>
12    1  0.8747122E-002  0.1963802E+03  0.7818608E-02  0.1152974E+00
         21   -1    0    0  501  502  0.00000000000E+00  0.00000000000E+00  0.75763040132E+03  0.75763040132E+03  0.00000000000E+00 0. -1.
         21   -1    0    0  502  503 -0.00000000000E+00 -0.00000000000E+00 -0.51462604043E+02  0.51462604043E+02  0.00000000000E+00 0. -1.
         -6    2    1    2    0  503  0.12327080870E+02  0.92269488842E+02  0.30421830190E+03  0.36173566919E+03  0.17215778709E+03 0.  0.
        -24    2    3    3    0    0 -0.14697119835E+01  0.55727150286E+02  0.67306838714E+02  0.12157983355E+03  0.84520826169E+02 0.  0.
          6    2    1    2  501    0 -0.12327080870E+02 -0.92269488842E+02  0.40194949537E+03  0.44735733617E+03  0.17291493257E+03 0.  0.
         24    2    5    5    0    0 -0.16433981916E+02 -0.58858059962E+01  0.29224745993E+03  0.30758740422E+03  0.94322398854E+02 0.  0.
          5    1    5    5  501    0  0.41069010463E+01 -0.86383682846E+02  0.10970203544E+03  0.13976993196E+03  0.47000000000E+01 0. -1.
        -11    1    6    6    0    0 -0.40285791345E+02  0.29231658578E+02  0.11467694277E+03  0.12501294353E+03  0.00000000000E+00 0.  1.
         12    1    6    6    0    0  0.23851809429E+02 -0.35117464575E+02  0.17757051715E+03  0.18257446068E+03  0.00000000000E+00 0. -1.
         -5    1    3    3    0  503  0.13796792853E+02  0.36542338556E+02  0.23691146319E+03  0.24015583564E+03  0.47000000000E+01 0.  1.
         11    1    4    4    0    0  0.28022393416E+02  0.44925242060E+02  0.67688524298E+01  0.53379296268E+02  0.00000000000E+00 0. -1.
        -12    1    4    4    0    0 -0.29492105399E+02  0.10801908226E+02  0.60537986285E+02  0.68200537282E+02  0.00000000000E+00 0.  1.
</event>
<event>
12    1  0.8747122E-002  0.1832265E+03  0.7818608E-02  0.1164941E+00
         21   -1    0    0  501  502  0.00000000000E+00  0.00000000000E+00  0.98521716561E+03  0.98521716561E+03  0.00000000000E+00 0. -1.
         21   -1    0    0  502  503 -0.00000000000E+00 -0.00000000000E+00 -0.34024335420E+02  0.34024335420E+02  0.00000000000E+00 0. -1.
         -6    2    1    2    0  503  0.24673621879E+02  0.58694148057E+02  0.44354282717E+03  0.47953744091E+03  0.17079849843E+03 0.  0.
        -24    2    3    3    0    0  0.66990319758E+02  0.17844888780E+02  0.36943366646E+03  0.38480823420E+03  0.82401457485E+02 0.  0.
          6    2    1    2  501    0 -0.24673621879E+02 -0.58694148057E+02  0.50765000301E+03  0.53970406012E+03  0.17180848732E+03 0.  0.
         24    2    5    5    0    0 -0.28996185912E+02 -0.13273271714E+02  0.11181465975E+03  0.14122012124E+03  0.80147651044E+02 0.  0.
          5    1    5    5  501    0  0.43225640339E+01 -0.45420876344E+02  0.39583534326E+03  0.39848393888E+03  0.47000000000E+01 0. -1.
        -11    1    6    6    0    0  0.27286889933E+02  0.15420120200E+01  0.44617585126E+02  0.52322854144E+02  0.00000000000E+00 0.  1.
         12    1    6    6    0    0 -0.56283075845E+02 -0.14815283734E+02  0.67197074624E+02  0.88897267094E+02  0.00000000000E+00 0. -1.
         -5    1    3    3    0  503 -0.42316697879E+02  0.40849259277E+02  0.74109160712E+02  0.94729206713E+02  0.47000000000E+01 0.  1.
         11    1    4    4    0    0  0.31983026856E+02  0.16926341925E+02  0.41710632808E+02  0.55219488834E+02  0.00000000000E+00 0. -1.
        -12    1    4    4    0    0  0.35007292902E+02  0.91854685500E+00  0.32772303365E+03  0.32958874536E+03  0.00000000000E+00 0.  1.
</event>
<event>
12    1  0.8747122E-002  0.1789357E+03  0.7818608E-02  0.1168839E+00
         21   -1    0    0  503  502  0.00000000000E+00  0.00000000000E+00  0.21091263985E+02  0.21091263985E+02  0.00000000000E+00 0.  1.
         21   -1    0    0  501  503 -0.00000000000E+00 -0.00000000000E+00 -0.15865479280E+04  0.15865479280E+04  0.00000000000E+00 0.  1.
          6    2    1    2  501    0  0.14488546574E+02 -0.49046136488E+02 -0.61565336534E+03  0.64112951576E+03  0.17147171264E+03 0.  0.
         24    2    3    3    0    0 -0.14547619087E+02  0.36900701068E+02 -0.25518883964E+03  0.26939476881E+03  0.76674002272E+02 0.  0.
         -6    2    1    2    0  502 -0.14488546574E+02  0.49046136488E+02 -0.94980329872E+03  0.96650967627E+03  0.17146196832E+03 0.  0.
        -24    2    5    5    0    0 -0.22229006677E+02  0.14696904942E+02 -0.21734997732E+03  0.23319545818E+03  0.80180928657E+02 0.  0.
          5    1    3    3  501    0  0.29036165661E+02 -0.85946837556E+02 -0.36046452570E+03  0.37173474695E+03  0.47000000000E+01 0. -1.
        -13    1    4    4    0    0 -0.26531798008E+02 -0.16371904059E+02 -0.10773952772E+03  0.11215962456E+03  0.00000000000E+00 0.  1.
         14    1    4    4    0    0  0.11984178921E+02  0.53272605127E+02 -0.14744931192E+03  0.15723514425E+03  0.00000000000E+00 0. -1.
         -5    1    5    5    0  502  0.77404601028E+01  0.34349231546E+02 -0.73245332139E+03  0.73331421809E+03  0.47000000000E+01 0.  1.
         11    1    6    6    0    0 -0.19103614380E+02  0.23745385128E+01 -0.21946542732E+03  0.22030810313E+03  0.00000000000E+00 0. -1.
        -12    1    6    6    0    0 -0.31253922961E+01  0.12322366430E+02  0.21154499991E+01  0.12887355048E+02  0.00000000000E+00 0.  1.
</event>
<event>
12    1  0.8747122E-002  0.3969343E+03  0.7818608E-02  0.1045020E+00
         21   -1    0    0  501  502  0.00000000000E+00  0.00000000000E+00  0.58705488472E+03  0.58705488472E+03  0.00000000000E+00 0.  1.
         21   -1    0    0  502  503 -0.00000000000E+00 -0.00000000000E+00 -0.33845753940E+03  0.33845753940E+03  0.00000000000E+00 0. -1.
         -6    2    1    2    0  503 -0.30036725747E+03  0.19170667345E+03  0.33709949012E+03  0.52076182055E+03  0.17488530383E+03 0.  0.
        -24    2    3    3    0    0 -0.31787268877E+03  0.17065481494E+03  0.31223628995E+03  0.48348059747E+03  0.78076086235E+02 0.  0.
          6    2    1    2  501    0  0.30036725747E+03 -0.19170667345E+03 -0.88502144793E+02  0.40475060357E+03  0.17034812431E+03 0.  0.
         24    2    5    5    0    0  0.14155193036E+03 -0.16826797729E+03 -0.52392790917E+02  0.24013694666E+03  0.81053608446E+02 0.  0.
          5    1    5    5  501    0  0.15881532712E+03 -0.23438696152E+02 -0.36109353876E+02  0.16461365691E+03  0.47000000000E+01 0. -1.
        -13    1    6    6    0    0  0.57553993903E+02 -0.60108385181E+02  0.19490844933E+02  0.85471476057E+02  0.00000000000E+00 0.  1.
         14    1    6    6    0    0  0.83997936456E+02 -0.10815959211E+03 -0.71883635850E+02  0.15466547061E+03  0.00000000000E+00 0. -1.
         -5    1    3    3    0  503  0.17505431296E+02  0.21051858509E+02  0.24863200163E+02  0.37281223074E+02  0.47000000000E+01 0.  1.
         11    1    4    4    0    0 -0.81989220819E+02  0.74619734575E+02  0.64902946837E+02  0.12846295040E+03  0.00000000000E+00 0. -1.
        -12    1    4    4    0    0 -0.23588346795E+03  0.96035080363E+02  0.24733334312E+03  0.35501764707E+03  0.00000000000E+00 0.  1.
</event>
<event>
12    1  0.8747122E-002  0.2223916E+03  0.7818608E-02  0.1132259E+00
         21   -1    0    0  503  502  0.00000000000E+00  0.00000000000E+00  0.44524126604E+02  0.44524126604E+02  0.00000000000E+00 0. -1.
         21   -1    0    0  501  503 -0.00000000000E+00 -0.00000000000E+00 -0.18840663226E+04  0.18840663226E+04  0.00000000000E+00 0.  1.
          6    2    1    2  501    0 -0.11435663896E+03 -0.84106421858E+02 -0.15400880819E+04  0.15560621271E+04  0.17119203340E+03 0.  0.
         24    2    3    3    0    0 -0.10478290457E+03 -0.49600466571E+01 -0.11742422910E+04  0.11816011307E+04  0.79575215742E+02 0.  0.
         -6    2    1    2    0  502  0.11435663896E+03  0.84106421858E+02 -0.29945411412E+03  0.37252832213E+03  0.17015655513E+03 0.  0.
        -24    2    5    5    0    0  0.10159920053E+03  0.20081758760E+02 -0.10453094459E+03  0.16690964171E+03  0.78780933832E+02 0.  0.
          5    1    3    3  501    0 -0.95737343923E+01 -0.79146375201E+02 -0.36584579090E+03  0.37446099639E+03  0.47000000000E+01 0. -1.
        -11    1    4    4    0    0 -0.22871241332E+02 -0.22567009612E+02 -0.64212620469E+03  0.64292956562E+03  0.00000000000E+00 0.  1.
         12    1    4    4    0    0 -0.81911663239E+02  0.17606962955E+02 -0.53211608628E+03  0.53867156505E+03  0.00000000000E+00 0. -1.
         -5    1    5    5    0  502  0.12757438435E+02  0.64024663097E+02 -0.19492316953E+03  0.20561868042E+03  0.47000000000E+01 0.  1.
         11    1    6    6    0    0  0.63664878507E+02  0.36816062389E+02 -0.10149252660E+03  0.12533703427E+03  0.00000000000E+00 0. -1.
        -12    1    6    6    0    0  0.37934322022E+02 -0.16734303629E+02 -0.30384179944E+01  0.41572607437E+02  0.00000000000E+00 0.  1.
</event>
<event>
12    1  0.8747122E-002  0.2361235E+03  0.7818608E-02  0.1122861E+00
         21   -1    0    0  503  502  0.00000000000E+00  0.00000000000E+00  0.59541739892E+02  0.59541739892E+02  0.00000000000E+00 0.  1.
         21   -1    0    0  501  503 -0.00000000000E+00 -0.00000000000E+00 -0.92925667304E+03  0.92925667304E+03  0.00000000000E+00 0.  1.
          6    2    1    2  501    0  0.49963028050E+02 -0.15027898903E+03 -0.46745655350E+03  0.52370787495E+03  0.17514060110E+03 0.  0.
         24    2    3    3    0    0  0.97971787360E+02 -0.71626295025E+02 -0.27999063177E+03  0.31476613892E+03  0.77163275412E+02 0.  0.
         -6    2    1    2    0  502 -0.49963028050E+02  0.15027898903E+03 -0.40225837965E+03  0.46509053798E+03  0.17151479764E+03 0.  0.
        -24    2    5    5    0    0 -0.44465007104E+01  0.36214086370E+02 -0.27477268025E+03  0.28801075418E+03  0.78223636413E+02 0.  0.
          5    1    3    3  501    0 -0.48008759310E+02 -0.78652694006E+02 -0.18746592174E+03  0.20894173603E+03  0.47000000000E+01 0. -1.
        -11    1    4    4    0    0  0.34259491471E+02 -0.68885384695E+02 -0.12011515616E+03  0.14264136749E+03  0.00000000000E+00 0.  1.
         12    1    4    4    0    0  0.63712295889E+02 -0.27409103297E+01 -0.15987547561E+03  0.17212477142E+03  0.00000000000E+00 0. -1.
         -5    1    5    5    0  502 -0.45516527340E+02  0.11406490266E+03 -0.12748569940E+03  0.17707978380E+03  0.47000000000E+01 0.  1.
         13    1    6    6    0    0  0.30215645661E+02  0.17152469934E+02 -0.57623385909E+02  0.67287792884E+02  0.00000000000E+00 0. -1.
        -14    1    6    6    0    0 -0.34662146372E+02  0.19061616436E+02 -0.21714929434E+03  0.22072296130E+03  0.00000000000E+00 0.  1.
</event>
<event>
12    1  0.8747122E-002  0.2050012E+03  0.7818608E-02  0.1145932E+00
         21   -1    0    0  501  502  0.00000000000E+00  0.00000000000E+00  0.22477768952E+03  0.22477768952E+03  0.00000000000E+00 0.  1.
         21   -1    0    0  502  503 -0.00000000000E+00 -0.00000000000E+00 -0.25173988398E+03  0.25173988398E+03  0.00000000000E+00 0.  1.
         -6    2    1    2    0  503 -0.10824513058E+03  0.88819015517E+01 -0.13580120325E+03  0.24590130166E+03  0.17386657783E+03 0.  0.
        -24    2    3    3    0    0 -0.88699536456E+02  0.44255371683E+02 -0.15558236332E+03  0.20066086695E+03  0.78947869257E+02 0.  0.
          6    2    1    2  501    0  0.10824513058E+03 -0.88819015517E+01  0.10883900880E+03  0.23061627184E+03  0.17187797571E+03 0.  0.
         24    2    5    5    0    0  0.56715634360E+02 -0.37601757052E+02  0.13055179716E+03  0.16757934410E+03  0.80053166790E+02 0.  0.
          5    1    5    5  501    0  0.51529496216E+02  0.28719855500E+02 -0.21712788365E+02  0.63036927739E+02  0.47000000000E+01 0. -1.
        -13    1    6    6    0    0  0.44355244979E+02  0.10932285645E+02  0.28346787138E+02  0.53762840026E+02  0.00000000000E+00 0.  1.
         14    1    6    6    0    0  0.12360389381E+02 -0.48534042696E+02  0.10220501003E+03  0.11381650408E+03  0.00000000000E+00 0. -1.
         -5    1    3    3    0  503 -0.19545594120E+02 -0.35373470131E+02  0.19781160069E+02  0.45240434705E+02  0.47000000000E+01 0.  1.
         13    1    4    4    0    0  0.14407740165E+02  0.11734479529E+02 -0.21359266824E+02  0.28310762366E+02  0.00000000000E+00 0. -1.
        -14    1    4    4    0    0 -0.10310727662E+03  0.32520892154E+02 -0.13422309650E+03  0.17235010459E+03  0.00000000000E+00 0.  1.
</event>
<event>
12    1  0.8747122E-002  0.2123979E+03  0.7818608E-02  0.1139815E+00
         21   -1    0    0  503  502  0.00000000000E+00  0.00000000000E+00  0.20790290753E+03  0.20790290753E+03  0.00000000000E+00 0. -1.
         21   -1    0    0  501  503 -0.00000000000E+00 -0.00000000000E+00 -0.21873810251E+03  0.21873810251E+03  0.00000000000E+00 0.  1.
          6    2    1    2  501    0 -0.50330900053E+02  0.11440924232E+03  0.17154811723E+02  0.21240676168E+03  0.17087911112E+03 0.  0.
         24    2    3    3    0    0 -0.10008432619E+03  0.87475137744E+02  0.15116776623E+02  0.15559925348E+03  0.79459666983E+02 0.  0.
         -6    2    1    2    0  502  0.50330900053E+02 -0.11440924232E+03 -0.27990006707E+02  0.21423424836E+03  0.17172710464E+03 0.  0.
        -24    2    5    5    0    0 -0.83997189352E+01 -0.11029688121E+03 -0.59908286399E+02  0.14709957998E+03  0.76245172752E+02 0.  0.
          5    1    3    3  501    0  0.49753426133E+02  0.26934104572E+02  0.20380351005E+01  0.56807508202E+02  0.47000000000E+01 0. -1.
        -11    1    4    4    0    0 -0.61731836848E+02  0.66467807691E+02 -0.27245465567E+02  0.94715914892E+02  0.00000000000E+00 0.  1.
         12    1    4    4    0    0 -0.38352489338E+02  0.21007330053E+02  0.42362242190E+02  0.60883338589E+02  0.00000000000E+00 0. -1.
         -5    1    5    5    0  502  0.58730618988E+02 -0.41123611077E+01  0.31918279692E+02  0.67134668385E+02  0.47000000000E+01 0.  1.
         11    1    6    6    0    0 -0.50668014488E+01 -0.46040762269E+01 -0.38633414564E+02  0.39235324845E+02  0.00000000000E+00 0. -1.
        -12    1    6    6    0    0 -0.33329174864E+01 -0.10569280498E+03 -0.21274871835E+02  0.10786425513E+03  0.00000000000E+00 0.  1.
</event>
<event>
12    1  0.8747122E-002  0.2318600E+03  0.7818608E-02  0.1125822E+00
         21   -1    0    0  503  502  0.00000000000E+00  0.00000000000E+00  0.24315017604E+03  0.24315017604E+03  0.00000000000E+00 0.  1.
         21   -1    0    0  501  503 -0.00000000000E+00 -0.00000000000E+00 -0.21904850108E+03  0.21904850108E+03  0.00000000000E+00 0. -1.
          6    2    1    2  501    0  0.29797380179E+02  0.14865601456E+03  0.24059825257E+02  0.23310501841E+03  0.17542115006E+03 0.  0.
         24    2    3    3    0    0 -0.27078929603E+02  0.57216311393E+02  0.21502748544E+02  0.12528682621E+03  0.10595964283E+03 0.  0.
         -6    2    1    2    0  502 -0.29797380179E+02 -0.14865601456E+03  0.41849698168E-01  0.22909365870E+03  0.17174809512E+03 0.  0.
        -24    2    5    5    0    0 -0.55703930254E+02 -0.14211452329E+03 -0.43239506763E+02  0.17801228967E+03  0.80741902089E+02 0.  0.
          5    1    3    3  501    0  0.56876309782E+02  0.91439703162E+02  0.25570767130E+01  0.10781819220E+03  0.47000000000E+01 0. -1.
        -13    1    4    4    0    0 -0.81141136831E+01  0.53630698374E+02  0.60816549093E+02  0.81490755872E+02  0.00000000000E+00 0.  1.
         14    1    4    4    0    0 -0.18964815920E+02  0.35856130188E+01 -0.39313800548E+02  0.43796070339E+02  0.00000000000E+00 0. -1.
         -5    1    5    5    0  502  0.25906550074E+02 -0.65414912618E+01  0.43281356461E+02  0.51081369028E+02  0.47000000000E+01 0.  1.
         11    1    6    6    0    0 -0.49667582725E+02 -0.84833787513E+02 -0.63414639876E+02  0.11698314762E+03  0.00000000000E+00 0. -1.
        -12    1    6    6    0    0 -0.60363475282E+01 -0.57280735781E+02  0.20175133113E+02  0.61029142048E+02  0.00000000000E+00 0.  1.
</event>
<event>
12    1  0.8747122E-002  0.2006460E+03  0.7818608E-02  0.1150539E+00
         21   -1    0    0  503  502  0.00000000000E+00  0.00000000000E+00  0.44024317093E+02  0.44024317093E+02  0.00000000000E+00 0. -1.
         21   -1    0    0  501  503 -0.00000000000E+00 -0.00000000000E+00 -0.16941891818E+04  0.16941891818E+04  0.00000000000E+00 0. -1.
          6    2    1    2  501    0 -0.88277248559E+02  0.76707223978E+01 -0.14321823429E+04  0.14461691100E+04  0.18001977307E+03 0.  0.
         24    2    3    3    0    0  0.19657929532E+02 -0.10830505929E+02 -0.45963251989E+03  0.46746203102E+03  0.82188582291E+02 0.  0.
         -6    2    1    2    0  502  0.88277248559E+02 -0.76707223978E+01 -0.21798252180E+03  0.29204438892E+03  0.17297928401E+03 0.  0.
        -24    2    5    5    0    0  0.80980718343E+02  0.56379047579E+02 -0.18026433298E+03  0.21720880812E+03  0.70341757351E+02 0.  0.
          5    1    3    3  501    0 -0.10793517809E+03  0.18501228326E+02 -0.97254982305E+03  0.97870707898E+03  0.47000000000E+01 0. -1.
        -11    1    4    4    0    0 -0.16150161444E+02 -0.37314832500E+02 -0.21963977865E+03  0.22337156669E+03  0.00000000000E+00 0.  1.
         12    1    4    4    0    0  0.35808090976E+02  0.26484326571E+02 -0.23999274124E+03  0.24409046434E+03  0.00000000000E+00 0. -1.
         -5    1    5    5    0  502  0.72965302158E+01 -0.64049769977E+02 -0.37718188812E+02  0.74835580806E+02  0.47000000000E+01 0.  1.
         11    1    6    6    0    0  0.28354835440E+02  0.30500950892E+02 -0.19310747147E+02  0.45904353318E+02  0.00000000000E+00 0. -1.
        -12    1    6    6    0    0  0.52625882903E+02  0.25878096687E+02 -0.16095358584E+03  0.17130445480E+03  0.00000000000E+00 0.  1.
</event>
<event>
12    1  0.8747122E-002  0.1985815E+03  0.7818608E-02  0.1151099E+00
         21   -1    0    0  501  502  0.00000000000E+00  0.00000000000E+00  0.17867358163E+03  0.17867358163E+03  0.00000000000E+00 0.  1.
         21   -1    0    0  502  503 -0.00000000000E+00 -0.00000000000E+00 -0.21989433578E+03  0.21989433578E+03  0.00000000000E+00 0. -1.
         -6    2    1    2    0  503  0.89509185322E+02 -0.41186813998E+02 -0.19317589994E+02  0.19951887664E+03  0.17241335490E+03 0.  0.
        -24    2    3    3    0    0  0.54336669484E+02 -0.24567668904E+02 -0.79758221594E+02  0.12748789857E+03  0.79597401735E+02 0.  0.
          6    2    1    2  501    0 -0.89509185322E+02  0.41186813998E+02 -0.21903164159E+02  0.19904904076E+03  0.17155909805E+03 0.  0.
         24    2    5    5    0    0 -0.71701486038E+02  0.10070752270E+02 -0.77478889543E+02  0.13274613959E+03  0.79850085167E+02 0.  0.
          5    1    5    5  501    0 -0.17807699284E+02  0.31116061729E+02  0.55575725384E+02  0.66302901167E+02  0.47000000000E+01 0. -1.
        -11    1    6    6    0    0  0.15737708192E+02  0.47812030658E+01 -0.10318132960E+01  0.16480291277E+02  0.00000000000E+00 0.  1.
         12    1    6    6    0    0 -0.87439194230E+02  0.52895492039E+01 -0.76447076247E+02  0.11626584832E+03  0.00000000000E+00 0. -1.
         -5    1    3    3    0  503  0.35172515838E+02 -0.16619145095E+02  0.60440631601E+02  0.72030978074E+02  0.47000000000E+01 0.  1.
         11    1    4    4    0    0  0.21080275011E+02  0.26845154678E+02 -0.46875550123E+02  0.57985838992E+02  0.00000000000E+00 0. -1.
        -12    1    4    4    0    0  0.33256394474E+02 -0.51412823582E+02 -0.32882671471E+02  0.69502059575E+02  0.00000000000E+00 0.  1.
</event>
<event>
12    1  0.8747122E-002  0.3989900E+03  0.7818608E-02  0.1044239E+00
         21   -1    0    0  503  502  0.00000000000E+00  0.00000000000E+00  0.47570134958E+03  0.47570134958E+03  0.00000000000E+00 0.  1.
         21   -1    0    0  501  503 -0.00000000000E+00 -0.00000000000E+00 -0.47963807074E+03  0.47963807074E+03  0.00000000000E+00 0. -1.
          6    2    1    2  501    0 -0.32305540727E+03  0.15680331443E+03 -0.26554547033E+03  0.47927798275E+03  0.17389914419E+03 0.  0.
         24    2    3    3    0    0 -0.30758195310E+03  0.17857975031E+03 -0.21787756595E+03  0.42443311013E+03  0.78584006913E+02 0.  0.
         -6    2    1    2    0  502  0.32305540727E+03 -0.15680331443E+03  0.26160874917E+03  0.47606143757E+03  0.17100666396E+03 0.  0.
        -24    2    5    5    0    0  0.16832194577E+03 -0.10707043493E+03  0.71641293852E+02  0.22601038781E+03  0.78433825264E+02 0.  0.
          5    1    3    3  501    0 -0.15473454179E+02 -0.21776435888E+02 -0.47667904378E+02  0.54844872614E+02  0.47000000000E+01 0. -1.
        -11    1    4    4    0    0 -0.13443095606E+03  0.38513808351E+02 -0.64363666690E+02  0.15394049815E+03  0.00000000000E+00 0.  1.
         12    1    4    4    0    0 -0.17315099703E+03  0.14006594196E+03 -0.15351389926E+03  0.27049261198E+03  0.00000000000E+00 0. -1.
         -5    1    5    5    0  502  0.15473346150E+03 -0.49732879491E+02  0.18996745532E+03  0.25005104977E+03  0.47000000000E+01 0.  1.
         11    1    6    6    0    0  0.43602411377E+02 -0.62570213530E+02  0.51603741972E+02  0.92082289744E+02  0.00000000000E+00 0. -1.
        -12    1    6    6    0    0  0.12471953440E+03 -0.44500221404E+02  0.20037551880E+02  0.13392809806E+03  0.00000000000E+00 0.  1.
</event>
<event>
12    1  0.8747122E-002  0.1823415E+03  0.7818608E-02  0.1165942E+00
         21   -1    0    0  503  502  0.00000000000E+00  0.00000000000E+00  0.51811931673E+02  0.51811931673E+02  0.00000000000E+00 0.  1.
         21   -1    0    0  501  503 -0.00000000000E+00 -0.00000000000E+00 -0.64147243152E+03  0.64147243152E+03  0.00000000000E+00 0.  1.
          6    2    1    2  501    0  0.48018412335E+02  0.64421809446E+01 -0.32544078484E+03  0.37225399971E+03  0.17410935141E+03 0.  0.
         24    2    3    3    0    0  0.94660268308E+02  0.80196481334E+01 -0.28219932255E+03  0.30845850463E+03  0.80531424185E+02 0.  0.
         -6    2    1    2    0  502 -0.48018412335E+02 -0.64421809446E+01 -0.26421971501E+03  0.32103036348E+03  0.17578727730E+03 0.  0.
        -24    2    5    5    0    0  0.19173680038E+02  0.89896243224E+01 -0.22926792305E+03  0.24359241637E+03  0.79530129030E+02 0.  0.
          5    1    3    3  501    0 -0.46641855974E+02 -0.15774671888E+01 -0.43241462288E+02  0.63795495077E+02  0.47000000000E+01 0. -1.
        -13    1    4    4    0    0  0.79239111029E+02  0.39017325805E+02 -0.22335531954E+03  0.24018490210E+03  0.00000000000E+00 0.  1.
         14    1    4    4    0    0  0.15421157280E+02 -0.30997677671E+02 -0.58844003004E+02  0.68273602530E+02  0.00000000000E+00 0. -1.
         -5    1    5    5    0  502 -0.67192092373E+02 -0.15431805267E+02 -0.34951791962E+02  0.77437947110E+02  0.47000000000E+01 0.  1.
         13    1    6    6    0    0  0.39994525833E+02  0.79029394107E+01 -0.57062734464E+02  0.70129695653E+02  0.00000000000E+00 0. -1.
        -14    1    6    6    0    0 -0.20820845795E+02  0.10866849117E+01 -0.17220518859E+03  0.17346272072E+03  0.00000000000E+00 0.  1.
</event>
<event>
12    1  0.8747122E-002  0.2212807E+03  0.7818608E-02  0.1132999E+00
         21   -1    0    0  501  502  0.00000000000E+00  0.00000000000E+00  0.15258953867E+04  0.15258953867E+04  0.00000000000E+00 0.  1.
         21   -1    0    0  502  503 -0.00000000000E+00 -0.00000000000E+00 -0.43327939249E+02  0.43327939249E+02  0.00000000000E+00 0.  1.
         -6    2    1    2    0  503  0.11337993601E+03 -0.79482083705E+02  0.11422756864E+04  0.11635114493E+04  0.17260572809E+03 0.  0.
        -24    2    3    3    0    0  0.94879034785E+02  0.13045305160E+02  0.63670554792E+03  0.64918970567E+03  0.82952444029E+02 0.  0.
          6    2    1    2  501    0 -0.11337993601E+03  0.79482083705E+02  0.34029176107E+03  0.40571187668E+03  0.17213724961E+03 0.  0.
         24    2    5    5    0    0 -0.80526437021E+02 -0.20403778199E+02  0.17296323232E+03  0.20803166942E+03  0.80374588806E+02 0.  0.
          5    1    5    5  501    0 -0.32853498992E+02  0.99885861904E+02  0.16732852875E+03  0.19768020725E+03  0.47000000000E+01 0. -1.
        -13    1    6    6    0    0 -0.87312073955E+02 -0.86687861352E+01  0.17354408279E+03  0.19446360786E+03  0.00000000000E+00 0.  1.
         14    1    6    6    0    0  0.67856369347E+01 -0.11734992064E+02 -0.58085047001E+00  0.13568061564E+02  0.00000000000E+00 0. -1.
         -5    1    3    3    0  503  0.18500901227E+02 -0.92527388866E+02  0.50557013847E+03  0.51432174361E+03  0.47000000000E+01 0.  1.
         13    1    4    4    0    0 -0.50069777201E+01  0.93124002418E+01  0.99667069584E+01  0.14530171085E+02  0.00000000000E+00 0. -1.
        -14    1    4    4    0    0  0.99886012505E+02  0.37329049187E+01  0.62673884096E+03  0.63465953458E+03  0.00000000000E+00 0.  1.
</event>
<event>
12    1  0.8747122E-002  0.1813692E+03  0.7818608E-02  0.1166660E+00
         21   -1    0    0  503  502  0.00000000000E+00  0.00000000000E+00  0.38049746253E+03  0.38049746253E+03  0.00000000000E+00 0.  1.
         21   -1    0    0  501  503 -0.00000000000E+00 -0.00000000000E+00 -0.37085735078E+03  0.37085735078E+03  0.00000000000E+00 0.  1.
          6    2    1    2  501    0 -0.55978351646E+02  0.11494588293E+02 -0.32437150553E+03  0.37127776611E+03  0.17136103582E+03 0.  0.
         24    2    3    3    0    0 -0.22532557294E+02 -0.52743761992E+02 -0.23696616103E+03  0.25766891498E+03  0.83370784502E+02 0.  0.
         -6    2    1    2    0  502  0.55978351646E+02 -0.11494588293E+02  0.33401161728E+03  0.38007704720E+03  0.17213105449E+03 0.  0.
        -24    2    5    5    0    0  0.63734487196E+02 -0.68952441828E+02  0.22732603008E+03  0.25856380888E+03  0.79759608945E+02 0.  0.
          5    1    3    3  501    0 -0.33445794352E+02  0.64238350285E+02 -0.87405344496E+02  0.11360885112E+03  0.47000000000E+01 0. -1.
        -11    1    4    4    0    0 -0.31069013298E+02  0.73279326411E+01 -0.13750300926E+03  0.14115969588E+03  0.00000000000E+00 0.  1.
         12    1    4    4    0    0  0.85364560036E+01 -0.60071694633E+02 -0.99463151768E+02  0.11650921911E+03  0.00000000000E+00 0. -1.
         -5    1    5    5    0  502 -0.77561355496E+01  0.57457853535E+02  0.10668558720E+03  0.12151323832E+03  0.47000000000E+01 0.  1.
         13    1    6    6    0    0  0.46758374381E+02 -0.40240829863E+02  0.53778589780E+02  0.81840128797E+02  0.00000000000E+00 0. -1.
        -14    1    6    6    0    0  0.16976112815E+02 -0.28711611965E+02  0.17354744030E+03  0.17672368008E+03  0.00000000000E+00 0.  1.
</event>
<event>
12    1  0.8747122E-002  0.3172419E+03  0.7818608E-02  0.1076954E+00
         21   -1    0    0  501  502  0.00000000000E+00  0.00000000000E+00  0.10869217050E+04  0.10869217050E+04  0.00000000000E+00 0.  1.
         21   -1    0    0  502  503 -0.00000000000E+00 -0.00000000000E+00 -0.95637880183E+02  0.95637880183E+02  0.00000000000E+00 0.  1.
         -6    2    1    2    0  503 -0.21748333127E+03  0.15407409914E+03  0.60217044193E+03  0.68051215191E+03  0.17160920828E+03 0.  0.
        -24    2    3    3    0    0 -0.21355471064E+03  0.10362175902E+03  0.39992956653E+03  0.47198317464E+03  0.80506990840E+02 0.  0.
          6    2    1    2  501    0  0.21748333127E+03 -0.15407409914E+03  0.38911338286E+03  0.50204743324E+03  0.17205979513E+03 0.  0.
         24    2    5    5    0    0  0.60104979433E+02 -0.21448772856E+02  0.75529582618E+02  0.12692836871E+03  0.79582878335E+02 0.  0.
          5    1    5    5  501    0  0.15737835184E+03 -0.13262532628E+03  0.31358380025E+03  0.37511906453E+03  0.47000000000E+01 0. -1.
        -11    1    6    6    0    0  0.29961124511E+01 -0.25690559484E+02 -0.67042994076E+01  0.26719452969E+02  0.00000000000E+00 0.  1.
         12    1    6    6    0    0  0.57108866982E+02  0.42417866274E+01  0.82233882025E+02  0.10020891574E+03  0.00000000000E+00 0. -1.
         -5    1    3    3    0  503 -0.39286206280E+01  0.50452340116E+02  0.20224087539E+03  0.20852897727E+03  0.47000000000E+01 0.  1.
         13    1    4    4    0    0 -0.20066351512E+02  0.15854651630E+02  0.91152172364E+01  0.27149873418E+02  0.00000000000E+00 0. -1.
        -14    1    4    4    0    0 -0.19348835913E+03  0.87767107392E+02  0.39081434930E+03  0.44483330122E+03  0.00000000000E+00 0.  1.
</event>
<event>
12    1  0.8747122E-002  0.2311699E+03  0.7818608E-02  0.1126043E+00
         21   -1    0    0  501  502  0.00000000000E+00  0.00000000000E+00  0.55074787721E+02  0.55074787721E+02  0.00000000000E+00 0. -1.
         21   -1    0    0  502  503 -0.00000000000E+00 -0.00000000000E+00 -0.96803387916E+03  0.96803387916E+03  0.00000000000E+00 0.  1.
         -6    2    1    2    0  503  0.42205225637E+02  0.14860256666E+03 -0.48412057380E+03  0.53593108141E+03  0.17025096228E+03 0.  0.
        -24    2    3    3    0    0 -0.11773331336E+02  0.15587807746E+03 -0.37128591690E+03  0.41055019185E+03  0.79130535026E+02 0.  0.
          6    2    1    2  501    0 -0.42205225637E+02 -0.14860256666E+03 -0.42883851764E+03  0.48717758547E+03  0.17197535197E+03 0.  0.
         24    2    5    5    0    0 -0.81538896407E+02 -0.13374594986E+03 -0.39495777096E+03  0.43297563242E+03  0.83304781959E+02 0.  0.
          5    1    5    5  501    0  0.39333670771E+02 -0.14856616795E+02 -0.33880746681E+02  0.54201953051E+02  0.47000000000E+01 0. -1.
        -11    1    6    6    0    0 -0.64023831277E+02 -0.12264984433E+03 -0.24313764576E+03  0.27974622441E+03  0.00000000000E+00 0.  1.
         12    1    6    6    0    0 -0.17515065131E+02 -0.11096105535E+02 -0.15182012520E+03  0.15322940801E+03  0.00000000000E+00 0. -1.
         -5    1    3    3    0  503  0.53978556972E+02 -0.72755108027E+01 -0.11283465690E+03  0.12538088956E+03  0.47000000000E+01 0.  1.
         13    1    4    4    0    0  0.81470132547E+01  0.55798459232E+02 -0.57277984554E+02  0.80377916072E+02  0.00000000000E+00 0. -1.
        -14    1    4    4    0    0 -0.19920344590E+02  0.10007961823E+03 -0.31400793235E+03  0.33017227577E+03  0.00000000000E+00 0.  1.
</event>
<event>
12    1  0.8747122E-002  0.2542128E+03  0.7818608E-02  0.1110916E+00
         21   -1    0    0  501  502  0.00000000000E+00  0.00000000000E+00  0.20458524660E+04  0.20458524660E+04  0.00000000000E+00 0. -1.
         21   -1    0    0  502  503 -0.00000000000E+00 -0.00000000000E+00 -0.57449617296E+02  0.57449617296E+02  0.00000000000E+00 0.  1.
         -6    2    1    2    0  503 -0.47264109842E+02  0.18013336386E+03  0.28763079965E+03  0.38386929592E+03  0.17303824604E+03 0.  0.
        -24    2    3    3    0    0  0.39402306071E+02  0.90489832278E+02  0.16684793769E+03  0.21020980109E+03  0.81295600715E+02 0.  0.
          6    2    1    2  501    0  0.47264109842E+02 -0.18013336386E+03  0.17007720491E+04  0.17194327874E+04  0.17070917548E+03 0.  0.
         24    2    5    5    0    0  0.68228521492E+02 -0.19794060325E+03  0.15511162585E+04  0.15671976075E+04  0.79442307074E+02 0.  0.
          5    1    5    5  501    0 -0.20964411650E+02  0.17807239391E+02  0.14965579058E+03  0.15223517986E+03  0.47000000000E+01 0. -1.
        -11    1    6    6    0    0  0.66211093233E+02 -0.79376950922E+02  0.61940877165E+03  0.62797439088E+03  0.00000000000E+00 0.  1.
         12    1    6    6    0    0  0.20174282589E+01 -0.11856365233E+03  0.93170748684E+03  0.93922321666E+03  0.00000000000E+00 0. -1.
         -5    1    3    3    0  503 -0.86666415913E+02  0.89643531579E+02  0.12078286196E+03  0.17365949483E+03  0.47000000000E+01 0.  1.
         13    1    4    4    0    0  0.46835724594E+02  0.84018635788E+02  0.17345709120E+03  0.19834333552E+03  0.00000000000E+00 0. -1.
        -14    1    4    4    0    0 -0.74334185229E+01  0.64711964903E+01 -0.66091535148E+01  0.11866465570E+02  0.00000000000E+00 0.  1.
</event>
<event>
12    1  0.8747122E-002  0.2880684E+03  0.7818608E-02  0.1091376E+00
         21   -1    0    0  503  502  0.00000000000E+00  0.00000000000E+00  0.36332247678E+03  0.36332247678E+03  0.00000000000E+00 0. -1.
         21   -1    0    0  501  503 -0.00000000000E+00 -0.00000000000E+00 -0.29684789628E+03  0.29684789628E+03  0.00000000000E+00 0. -1.
          6    2    1    2  501    0 -0.73767855086E+02  0.21897409061E+03  0.19183075777E+03  0.34600870368E+03  0.17184770756E+03 0.  0.
         24    2    3    3    0    0 -0.51493107998E+02  0.19738709445E+03  0.21536715497E+03  0.30678862267E+03  0.78249871170E+02 0.  0.
         -6    2    1    2    0  502  0.73767855086E+02 -0.21897409061E+03 -0.12535617727E+03  0.31416166938E+03  0.17202335459E+03 0.  0.
        -24    2    5    5    0    0  0.10165722715E+02 -0.30893551053E+02 -0.16775461552E+02  0.87818163998E+02  0.79830197310E+02 0.  0.
          5    1    3    3  501    0 -0.22274747088E+02  0.21586996161E+02 -0.23536397197E+02  0.39220081006E+02  0.47000000000E+01 0. -1.
        -11    1    4    4    0    0 -0.27353178611E+02  0.30965306386E+02  0.12253011109E+02  0.43095044505E+02  0.00000000000E+00 0.  1.
         12    1    4    4    0    0 -0.24139929388E+02  0.16642178806E+03  0.20311414386E+03  0.26369357817E+03  0.00000000000E+00 0. -1.
         -5    1    5    5    0  502  0.63602132371E+02 -0.18808053956E+03 -0.10858071572E+03  0.22634350538E+03  0.47000000000E+01 0.  1.
         13    1    6    6    0    0  0.41337169841E+02 -0.13089562821E+01 -0.17322330776E+02  0.44839024527E+02  0.00000000000E+00 0. -1.
        -14    1    6    6    0    0 -0.31171447126E+02 -0.29584594771E+02  0.54686922384E+00  0.42979139471E+02  0.00000000000E+00 0.  1.
</event>
<event>
12    1  0.8747122E-002  0.2265169E+03  0.7818608E-02  0.1129154E+00
         21   -1    0    0  501  502  0.00000000000E+00  0.00000000000E+00  0.16424374095E+03  0.16424374095E+03  0.00000000000E+00 0. -1.
         21   -1    0    0  502  503 -0.00000000000E+00 -0.00000000000E+00 -0.63055764729E+03  0.63055764729E+03  0.00000000000E+00 0. -1.
         -6    2    1    2    0  503  0.56467136113E+02  0.13693572998E+03 -0.51551791127E+03  0.56300201214E+03  0.17109242307E+03 0.  0.
        -24    2    3    3    0    0 -0.13200697640E+02  0.29995192861E+02 -0.28169067211E+03  0.29656786773E+03  0.86769207673E+02 0.  0.
          6    2    1    2  501    0 -0.56467136113E+02 -0.13693572998E+03  0.49204004934E+02  0.23179937610E+03  0.17137673427E+03 0.  0.
         24    2    5    5    0    0  0.27804447315E+02 -0.10469127395E+03  0.38584326049E+02  0.14082535619E+03  0.81299942176E+02 0.  0.
          5    1    5    5  501    0 -0.84271583428E+02 -0.32244456036E+02  0.10619678885E+02  0.90974019907E+02  0.47000000000E+01 0. -1.
        -13    1    6    6    0    0 -0.78760183948E+01 -0.92884037690E+02  0.43598163277E+02  0.10290906648E+03  0.00000000000E+00 0.  1.
         14    1    6    6    0    0  0.35680465710E+02 -0.11807236258E+02 -0.50138372280E+01  0.37916289706E+02  0.00000000000E+00 0. -1.
         -5    1    3    3    0  503  0.69667833753E+02  0.10694053712E+03 -0.23382723916E+03  0.26643414442E+03  0.47000000000E+01 0.  1.
         11    1    4    4    0    0  0.23364036508E+02  0.34474722655E+01 -0.21326618544E+03  0.21456987001E+03  0.00000000000E+00 0. -1.
        -12    1    4    4    0    0 -0.36564734148E+02  0.26547720596E+02 -0.68424486672E+02  0.81997997710E+02  0.00000000000E+00 0.  1.
</event>
<event>
12    1  0.8747122E-002  0.2087404E+03  0.7818608E-02  0.1144041E+00
         21   -1    0    0  503  502  0.00000000000E+00  0.00000000000E+00  0.26993400830E+04  0.26993400830E+04  0.00000000000E+00 0.  1.
         21   -1    0    0  501  503 -0.00000000000E+00 -0.00000000000E+00 -0.15736995056E+02  0.15736995056E+02  0.00000000000E+00 0.  1.
          6    2    1    2  501    0  0.43759394867E+02  0.96728626196E+02  0.12324450338E+04  0.12499973316E+04  0.17972550138E+03 0.  0.
         24    2    3    3    0    0 -0.99670913758E+01  0.10443855635E+03  0.55636368935E+03  0.57172448629E+03  0.79508354458E+02 0.  0.
         -6    2    1    2    0  502 -0.43759394867E+02 -0.96728626196E+02  0.14511580541E+04  0.14650797464E+04  0.17125318588E+03 0.  0.
        -24    2    5    5    0    0  0.38787416984E+02 -0.43677349750E+02  0.87419765619E+03  0.87981587019E+03  0.80263620379E+02 0.  0.
          5    1    3    3  501    0  0.53726486243E+02 -0.77099301503E+01  0.67608134446E+03  0.67827284530E+03  0.47000000000E+01 0. -1.
        -13    1    4    4    0    0  0.89378458443E+01  0.53942659980E+02  0.44106503583E+03  0.44444129138E+03  0.00000000000E+00 0.  1.
         14    1    4    4    0    0 -0.18904937220E+02  0.50495896366E+02  0.11529865352E+03  0.12728319490E+03  0.00000000000E+00 0. -1.
         -5    1    5    5    0  502 -0.82546811851E+02 -0.53051276445E+02  0.57696039790E+03  0.58526387623E+03  0.47000000000E+01 0.  1.
         13    1    6    6    0    0  0.43279751890E+02 -0.40143830009E+02  0.30893057693E+03  0.31451989662E+03  0.00000000000E+00 0. -1.
        -14    1    6    6    0    0 -0.44923349055E+01 -0.35335197414E+01  0.56526707926E+03  0.56529597357E+03  0.00000000000E+00 0.  1.
</event>
<event>
12    1  0.8747122E-002  0.2052064E+03  0.7818608E-02  0.1146307E+00
         21   -1    0    0  501  502  0.00000000000E+00  0.00000000000E+00  0.22064579303E+03  0.22064579303E+03  0.00000000000E+00 0.  1.
         21   -1    0    0  502  503 -0.00000000000E+00 -0.00000000000E+00 -0.21540264250E+03  0.21540264250E+03  0.00000000000E+00 0.  1.
         -6    2    1    2    0  503  0.32255964959E+00 -0.11183385528E+03 -0.76754146766E+02  0.21506602634E+03  0.16689901560E+03 0.  0.
        -24    2    3    3    0    0 -0.56565403813E+02 -0.62595132582E+02 -0.77045250436E+02  0.13968123383E+03  0.80355963931E+02 0.  0.
          6    2    1    2  501    0 -0.32255964959E+00  0.11183385528E+03  0.81997297302E+02  0.22098240920E+03  0.17205450642E+03 0.  0.
         24    2    5    5    0    0  0.32957118903E+02  0.78892283888E+02  0.11490810422E+03  0.16355510435E+03  0.78969839822E+02 0.  0.
          5    1    5    5  501    0 -0.33279678553E+02  0.32941571387E+02 -0.32910806914E+02  0.57427304845E+02  0.47000000000E+01 0. -1.
        -13    1    6    6    0    0 -0.23794062866E+02  0.42049100945E+02  0.54722905730E+02  0.72999183074E+02  0.00000000000E+00 0.  1.
         14    1    6    6    0    0  0.56751181769E+02  0.36843182943E+02  0.60185198485E+02  0.90555921277E+02  0.00000000000E+00 0. -1.
         -5    1    3    3    0  503  0.56887963462E+02 -0.49238722693E+02  0.29110366984E+00  0.75384792503E+02  0.47000000000E+01 0.  1.
         11    1    4    4    0    0 -0.33784433040E+01 -0.36714819784E+02 -0.71280700090E+02  0.80251667124E+02  0.00000000000E+00 0. -1.
        -12    1    4    4    0    0 -0.53186960509E+02 -0.25880312798E+02 -0.57645503458E+01  0.59429566710E+02  0.00000000000E+00 0.  1.
</event>
<event>
12    1  0.8747122E-002  0.2435373E+03  0.7818608E-02  0.1118134E+00
         21   -1    0    0  501  502  0.00000000000E+00  0.00000000000E+00  0.22466054429E+03  0.22466054429E+03  0.00000000000E+00 0. -1.
         21   -1    0    0  502  503 -0.00000000000E+00 -0.00000000000E+00 -0.51513038547E+03  0.51513038547E+03  0.00000000000E+00 0. -1.
         -6    2    1    2    0  503  0.67695474874E+02 -0.15711111649E+03 -0.40514081427E+03  0.47060722346E+03  0.16752760709E+03 0.  0.
        -24    2    3    3    0    0  0.77668363173E+02 -0.76109035595E+02 -0.34142704341E+03  0.36696201032E+03  0.79143736978E+02 0.  0.
          6    2    1    2  501    0 -0.67695474874E+02  0.15711111649E+03  0.11467097310E+03  0.26918370630E+03  0.17333163423E+03 0.  0.
         24    2    5    5    0    0 -0.86015813848E+02  0.16063889787E+03  0.13538607420E+03  0.24091206901E+03  0.80657672715E+02 0.  0.
          5    1    5    5  501    0  0.18320338974E+02 -0.35277813790E+01 -0.20715101100E+02  0.28271637292E+02  0.47000000000E+01 0. -1.
        -11    1    6    6    0    0 -0.42057994344E+01 -0.54172487363E+01  0.23795300075E+02  0.24763918075E+02  0.00000000000E+00 0.  1.
         12    1    6    6    0    0 -0.81810014414E+02  0.16605614660E+03  0.11159077412E+03  0.21614815094E+03  0.00000000000E+00 0. -1.
         -5    1    3    3    0  503 -0.99728882990E+01 -0.81002080894E+02 -0.63713770860E+02  0.10364521314E+03  0.47000000000E+01 0.  1.
         11    1    4    4    0    0  0.58346684602E+02 -0.87135430679E+02 -0.22252278479E+03  0.24599452968E+03  0.00000000000E+00 0. -1.
        -12    1    4    4    0    0  0.19321678571E+02  0.11026395084E+02 -0.11890425863E+03  0.12096748063E+03  0.00000000000E+00 0.  1.
</event>
<event>
12    1  0.8747122E-002  0.1834750E+03  0.7818608E-02  0.1165930E+00
         21   -1    0    0  503  502  0.00000000000E+00  0.00000000000E+00  0.67680645337E+02  0.67680645337E+02  0.00000000000E+00 0. -1.
         21   -1    0    0  501  503 -0.00000000000E+00 -0.00000000000E+00 -0.48523479348E+03  0.48523479348E+03  0.00000000000E+00 0. -1.
          6    2    1    2  501    0  0.59908955245E+02 -0.22386704914E+02 -0.18693873329E+03  0.26193347951E+03  0.17196746846E+03 0.  0.
         24    2    3    3    0    0  0.54989574241E+02 -0.65945384016E+02 -0.77168614375E+02  0.14364092758E+03  0.85469726123E+02 0.  0.
         -6    2    1    2    0  502 -0.59908955245E+02  0.22386704914E+02 -0.23061541485E+03  0.29098195931E+03  0.16551973780E+03 0.  0.
        -24    2    5    5    0    0  0.29190860753E+02  0.16224678539E+02 -0.10006803523E+03  0.13273703488E+03  0.80561542994E+02 0.  0.
          5    1    3    3  501    0  0.49193810037E+01  0.43558679101E+02 -0.10977011892E+03  0.11829255193E+03  0.47000000000E+01 0. -1.
        -11    1    4    4    0    0  0.49302183075E+02 -0.54443566286E+02 -0.95986728528E+02  0.12086463180E+03  0.00000000000E+00 0.  1.
         12    1    4    4    0    0  0.56873911661E+01 -0.11501817730E+02  0.18818114153E+02  0.22776295784E+02  0.00000000000E+00 0. -1.
         -5    1    5    5    0  502 -0.89099815998E+02  0.61620263757E+01 -0.13054737962E+03  0.15824492443E+03  0.47000000000E+01 0.  1.
         11    1    6    6    0    0  0.34101344177E+02  0.10901072323E+02 -0.11265950022E+03  0.11821124329E+03  0.00000000000E+00 0. -1.
        -12    1    6    6    0    0 -0.49104834240E+01  0.53236062159E+01  0.12591464990E+02  0.14525791585E+02  0.00000000000E+00 0.  1.
</event>
<event>
12    1  0.8747122E-002  0.1768081E+03  0.7818608E-02  0.1172213E+00
         21   -1    0    0  501  502  0.00000000000E+00  0.00000000000E+00  0.67810350460E+02  0.67810350460E+02  0.00000000000E+00 0. -1.
         21   -1    0    0  502  503 -0.00000000000E+00 -0.00000000000E+00 -0.69674995282E+03  0.69674995282E+03  0.00000000000E+00 0. -1.
         -6    2    1    2    0  503 -0.61614186253E+01 -0.44290989723E+02 -0.54592367486E+03  0.57384124677E+03  0.17105982250E+03 0.  0.
        -24    2    3    3    0    0 -0.50818941235E+02 -0.36571072327E+02 -0.49593331539E+03  0.50620237119E+03  0.79818413690E+02 0.  0.
          6    2    1    2  501    0  0.61614186253E+01  0.44290989723E+02 -0.83015927497E+02  0.19071905651E+03  0.16577834432E+03 0.  0.
         24    2    5    5    0    0 -0.16629312797E+02  0.34977968324E+02  0.11898179858E+02  0.92551202392E+02  0.83211574123E+02 0.  0.
          5    1    5    5  501    0  0.22790731422E+02  0.93130213993E+01 -0.94914107355E+02  0.98167854114E+02  0.47000000000E+01 0. -1.
        -11    1    6    6    0    0 -0.36358448816E+02  0.52664578372E+02  0.12867167957E+01  0.64008985740E+02  0.00000000000E+00 0.  1.
         12    1    6    6    0    0  0.19729136019E+02 -0.17686610048E+02  0.10611463063E+02  0.28542216651E+02  0.00000000000E+00 0. -1.
         -5    1    3    3    0  503  0.44657522610E+02 -0.77199173968E+01 -0.49990359475E+02  0.67638875588E+02  0.47000000000E+01 0.  1.
         13    1    4    4    0    0  0.68458487939E+01  0.18011788857E+02 -0.15235118054E+03  0.15356488008E+03  0.00000000000E+00 0. -1.
        -14    1    4    4    0    0 -0.57664790029E+02 -0.54582861183E+02 -0.34358213485E+03  0.35263749111E+03  0.00000000000E+00 0.  1.
</event>
<event>
12    1  0.8747122E-002  0.2433741E+03  0.7818608E-02  0.1117603E+00
         21   -1    0    0  501  502  0.00000000000E+00  0.00000000000E+00  0.25571640952E+03  0.25571640952E+03  0.00000000000E+00 0. -1.
         21   -1    0    0  502  503 -0.00000000000E+00 -0.00000000000E+00 -0.24822224588E+03  0.24822224588E+03  0.00000000000E+00 0.  1.
         -6    2    1    2    0  503  0.90843553924E+02 -0.14726025381E+03 -0.61827995874E+02  0.25088427713E+03  0.17082764940E+03 0.  0.
        -24    2    3    3    0    0  0.34080608465E+02 -0.54833636336E+02  0.32874600363E+02  0.10681698963E+03  0.78491492389E+02 0.  0.
          6    2    1    2  501    0 -0.90843553924E+02  0.14726025381E+03  0.69322159507E+02  0.25305437827E+03  0.17115146193E+03 0.  0.
         24    2    5    5    0    0 -0.11685605354E+03  0.67074875294E+02  0.60089617049E+02  0.16812102260E+03  0.80619724754E+02 0.  0.
          5    1    5    5  501    0  0.26012499619E+02  0.80185378513E+02  0.92325424587E+01  0.84933355662E+02  0.47000000000E+01 0. -1.
        -13    1    6    6    0    0 -0.60780085016E+02  0.77745217215E+02  0.27736529625E+02  0.10250781731E+03  0.00000000000E+00 0.  1.
         14    1    6    6    0    0 -0.56075968527E+02 -0.10670341922E+02  0.32353087423E+02  0.65613205293E+02  0.00000000000E+00 0. -1.
         -5    1    3    3    0  503  0.56762945459E+02 -0.92426617471E+02 -0.94702596237E+02  0.14406728750E+03  0.47000000000E+01 0.  1.
         13    1    4    4    0    0 -0.12786161619E+02 -0.17254653312E+01  0.33590146594E+02  0.35982789049E+02  0.00000000000E+00 0. -1.
        -14    1    4    4    0    0  0.46866770084E+02 -0.53108171004E+02 -0.71554623061E+00  0.70834200581E+02  0.00000000000E+00 0.  1.
</event>
<event>
12    1  0.8747122E-002  0.2013539E+03  0.7818608E-02  0.1148707E+00
         21   -1    0    0  503  502  0.00000000000E+00  0.00000000000E+00  0.17696577681E+03  0.17696577681E+03  0.00000000000E+00 0.  1.
         21   -1    0    0  501  503 -0.00000000000E+00 -0.00000000000E+00 -0.24605616521E+03  0.24605616521E+03  0.00000000000E+00 0.  1.
          6    2    1    2  501    0  0.68406449867E+02  0.82239406328E+02  0.21944891399E+02  0.20204494421E+03  0.16999358484E+03 0.  0.
         24    2    3    3    0    0  0.92325037154E+02  0.64635143508E+02  0.62449642439E+02  0.15159959017E+03  0.79880308198E+02 0.  0.
         -6    2    1    2    0  502 -0.68406449867E+02 -0.82239406328E+02 -0.91035279796E+02  0.22097699781E+03  0.17058912351E+03 0.  0.
        -24    2    5    5    0    0 -0.72308552952E+02 -0.82711027357E+02 -0.63657804768E+01  0.13608610932E+03  0.80057886004E+02 0.  0.
          5    1    3    3  501    0 -0.23918587287E+02  0.17604262820E+02 -0.40504751040E+02  0.50445354038E+02  0.47000000000E+01 0. -1.
        -11    1    4    4    0    0  0.77678292608E+02  0.25887236290E+02  0.67098504067E+01  0.82152834630E+02  0.00000000000E+00 0.  1.
         12    1    4    4    0    0  0.14646744546E+02  0.38747907218E+02  0.55739792032E+02  0.69446755542E+02  0.00000000000E+00 0. -1.
         -5    1    5    5    0  502  0.39021030851E+01  0.47162102960E+00 -0.84669499320E+02  0.84890888498E+02  0.47000000000E+01 0.  1.
         11    1    6    6    0    0 -0.42959853060E+02  0.45595361071E+01  0.42175948879E+01  0.43406525444E+02  0.00000000000E+00 0. -1.
        -12    1    6    6    0    0 -0.29348699892E+02 -0.87270563464E+02 -0.10583375365E+02  0.92679583873E+02  0.00000000000E+00 0.  1.
</event>
<event>
12    1  0.8747122E-002  0.1837207E+03  0.7818608E-02  0.1164836E+00
         21   -1    0    0  501  502  0.00000000000E+00  0.00000000000E+00  0.97751435304E+03  0.97751435304E+03  0.00000000000E+00 0.  1.
         21   -1    0    0  502  503 -0.00000000000E+00 -0.00000000000E+00 -0.14528470142E+03  0.14528470142E+03  0.00000000000E+00 0. -1.
         -6    2    1    2    0  503 -0.59510307830E+02  0.17297813108E+02 -0.75732397307E+02  0.19643606532E+03  0.17032627713E+03 0.  0.
        -24    2    3    3    0    0 -0.51902759542E+02 -0.88003101716E+01 -0.11480069685E+03  0.14860920196E+03  0.78320833776E+02 0.  0.
          6    2    1    2  501    0  0.59510307830E+02 -0.17297813108E+02  0.90796204893E+03  0.92636298913E+03  0.17295263591E+03 0.  0.
         24    2    5    5    0    0  0.59351823239E+02 -0.44534911937E+02  0.31674814450E+03  0.33450333055E+03  0.77827333258E+02 0.  0.
          5    1    5    5  501    0  0.15848459125E+00  0.27237098828E+02  0.59121390443E+03  0.59185965858E+03  0.47000000000E+01 0. -1.
        -13    1    6    6    0    0  0.74867952316E+01 -0.15599544222E+02  0.22204504726E+03  0.22271820962E+03  0.00000000000E+00 0.  1.
         14    1    6    6    0    0  0.51865028007E+02 -0.28935367715E+02  0.94703097240E+02  0.11178512093E+03  0.00000000000E+00 0. -1.
         -5    1    3    3    0  503 -0.76075482880E+01  0.26098123280E+02  0.39068299542E+02  0.47826863359E+02  0.47000000000E+01 0.  1.
         11    1    4    4    0    0  0.15831574452E+02 -0.69465760732E+01 -0.25262404308E+01  0.17472136661E+02  0.00000000000E+00 0. -1.
        -12    1    4    4    0    0 -0.67734333994E+02 -0.18537340985E+01 -0.11227445642E+03  0.13113706530E+03  0.00000000000E+00 0.  1.
</event>
<event>
12    1  0.8747122E-002  0.2609402E+03  0.7818608E-02  0.1106582E+00
         21   -1    0    0  503  502  0.00000000000E+00  0.00000000000E+00  0.25625505719E+03  0.25625505719E+03  0.00000000000E+00 0. -1.
         21   -1    0    0  501  503 -0.00000000000E+00 -0.00000000000E+00 -0.49468401726E+03  0.49468401726E+03  0.00000000000E+00 0. -1.
          6    2    1    2  501    0  0.18854061718E+03 -0.54993876407E+02 -0.37466865059E+03  0.45657356996E+03  0.17178747416E+03 0.  0.
         24    2    3    3    0    0  0.27176728264E+02  0.10394093242E+02 -0.10677264667E+03  0.13703601327E+03  0.80819917849E+02 0.  0.
         -6    2    1    2    0  502 -0.18854061718E+03  0.54993876407E+02  0.13623969053E+03  0.29436550449E+03  0.17180775941E+03 0.  0.
        -24    2    5    5    0    0 -0.32631831727E+02 -0.17505671261E+02  0.67292507873E+02  0.10905620147E+03  0.77418915610E+02 0.  0.
          5    1    3    3  501    0  0.16136388891E+03 -0.65387969650E+02 -0.26789600392E+03  0.31953755669E+03  0.47000000000E+01 0. -1.
        -11    1    4    4    0    0  0.36876077620E+02  0.54681001167E+01 -0.85946996610E+01  0.38257209540E+02  0.00000000000E+00 0.  1.
         12    1    4    4    0    0 -0.96993493561E+01  0.49259931257E+01 -0.98177947013E+02  0.98778803728E+02  0.00000000000E+00 0. -1.
         -5    1    5    5    0  502 -0.15590878545E+03  0.72499547668E+02  0.68947182652E+02  0.18530930303E+03  0.47000000000E+01 0.  1.
         13    1    6    6    0    0 -0.50094342575E+02 -0.33513680085E+02  0.57888119111E+02  0.83568201160E+02  0.00000000000E+00 0. -1.
        -14    1    6    6    0    0  0.17462510848E+02  0.16008008824E+02  0.94043887615E+01  0.25488000306E+02  0.00000000000E+00 0.  1.
</event>
<event>
12    1  0.8747122E-002  0.2539571E+03  0.7818608E-02  0.1111284E+00
         21   -1    0    0  503  502  0.00000000000E+00  0.00000000000E+00  0.22024644151E+03  0.22024644151E+03  0.00000000000E+00 0.  1.
         21   -1    0    0  501  503 -0.00000000000E+00 -0.00000000000E+00 -0.52565982917E+03  0.52565982917E+03  0.00000000000E+00 0.  1.
          6    2    1    2  501    0 -0.34256597484E+02 -0.18177782847E+03 -0.40221255581E+03  0.47412639323E+03  0.16971801114E+03 0.  0.
         24    2    3    3    0    0 -0.82800821161E+02 -0.14947383807E+03 -0.26857506757E+03  0.32824576494E+03  0.80089393948E+02 0.  0.
         -6    2    1    2    0  502  0.34256597484E+02  0.18177782847E+03  0.96799168159E+02  0.27177987745E+03  0.17400439488E+03 0.  0.
        -24    2    5    5    0    0  0.54832978548E+02  0.10899161788E+03 -0.31194173891E+01  0.14637240699E+03  0.80804223027E+02 0.  0.
          5    1    3    3  501    0  0.48544223677E+02 -0.32303990398E+02 -0.13363748824E+03  0.14588062829E+03  0.47000000000E+01 0.  1.
        -13    1    4    4    0    0 -0.11953191928E+02 -0.73878984050E+02 -0.62154963743E+02  0.97284236130E+02  0.00000000000E+00 0.  1.
         14    1    4    4    0    0 -0.70847629234E+02 -0.75594854022E+02 -0.20642010383E+03  0.23096152881E+03  0.00000000000E+00 0. -1.
         -5    1    5    5    0  502 -0.20576381064E+02  0.72786210589E+02  0.99918585548E+02  0.12540747046E+03  0.47000000000E+01 0.  1.
         11    1    6    6    0    0  0.26700301139E+02  0.47879616900E+01 -0.24254253025E+02  0.36388177308E+02  0.00000000000E+00 0. -1.
        -12    1    6    6    0    0  0.28132677410E+02  0.10420365619E+03  0.21134835635E+02  0.10998422968E+03  0.00000000000E+00 0.  1.
</event>
<event>
12    1  0.8747122E-002  0.1821554E+03  0.7818608E-02  0.1165733E+00
         21   -1    0    0  501  502  0.00000000000E+00  0.00000000000E+00  0.26610591758E+03  0.26610591758E+03  0.00000000000E+00 0.  1.
         21   -1    0    0  502  503 -0.00000000000E+00 -0.00000000000E+00 -0.16225428405E+03  0.16225428405E+03  0.00000000000E+00 0.  1.
         -6    2    1    2    0  503  0.26335076749E+02  0.54637825807E+02 -0.51130825782E+02  0.18919556598E+03  0.17176080043E+03 0.  0.
        -24    2    3    3    0    0 -0.46753296085E+02  0.65433247525E+01 -0.32374463512E+02  0.99591534815E+02  0.81496516033E+02 0.  0.
          6    2    1    2  501    0 -0.26335076749E+02 -0.54637825807E+02  0.15498245931E+03  0.23916463566E+03  0.17175951787E+03 0.  0.
         24    2    5    5    0    0 -0.36224781853E+02 -0.16957517422E+02  0.11119336391E+02  0.90046226184E+02  0.79905512893E+02 0.  0.
          5    1    5    5  501    0  0.98897051047E+01 -0.37680308385E+02  0.14386312292E+03  0.14911840947E+03  0.47000000000E+01 0. -1.
        -11    1    6    6    0    0 -0.60981834468E+02 -0.20012329520E+02  0.10899099787E+02  0.65100444270E+02  0.00000000000E+00 0.  1.
         12    1    6    6    0    0  0.24757052615E+02  0.30548120987E+01  0.22023660328E+00  0.24945781914E+02  0.00000000000E+00 0. -1.
         -5    1    3    3    0  503  0.73088372833E+02  0.48094501054E+02 -0.18756362269E+02  0.89604031163E+02  0.47000000000E+01 0.  1.
         13    1    4    4    0    0  0.13712105227E+02 -0.11857510190E+02  0.12550559712E+02  0.22048558382E+02  0.00000000000E+00 0. -1.
        -14    1    4    4    0    0 -0.60465401312E+02  0.18400834942E+02 -0.44925023224E+02  0.77542976433E+02  0.00000000000E+00 0.  1.
</event>
<event>
12    1  0.8747122E-002  0.1749187E+03  0.7818608E-02  0.1173423E+00
         21   -1    0    0  501  502  0.00000000000E+00  0.00000000000E+00  0.32887500197E+03  0.32887500197E+03  0.00000000000E+00 0. -1.
         21   -1    0    0  502  503 -0.00000000000E+00 -0.00000000000E+00 -0.39276420982E+03  0.39276420982E+03  0.00000000000E+00 0. -1.
         -6    2    1    2    0  503  0.13606165381E+02 -0.29412668674E+02 -0.34776431189E+03  0.38820011171E+03  0.16943753213E+03 0.  0.
        -24    2    3    3    0    0 -0.57906724884E+02 -0.21122445205E+02 -0.23629342060E+03  0.25541957517E+03  0.74868099237E+02 0.  0.
          6    2    1    2  501    0 -0.13606165381E+02  0.29412668674E+02  0.28387510404E+03  0.33343910008E+03  0.17189044752E+03 0.  0.
         24    2    5    5    0    0 -0.42513040342E+02  0.36590077488E+02  0.73940725277E+02  0.12135030734E+03  0.78182311723E+02 0.  0.
          5    1    5    5  501    0  0.28906874962E+02 -0.71774088143E+01  0.20993437877E+03  0.21208879274E+03  0.47000000000E+01 0. -1.
        -11    1    6    6    0    0  0.15556254344E+02 -0.88945742885E+01  0.31525342099E+02  0.36262345421E+02  0.00000000000E+00 0.  1.
         12    1    6    6    0    0 -0.58069294687E+02  0.45484651777E+02  0.42415383178E+02  0.85087961915E+02  0.00000000000E+00 0. -1.
         -5    1    3    3    0  503  0.71512890264E+02 -0.82902234694E+01 -0.11147089129E+03  0.13278053654E+03  0.47000000000E+01 0.  1.
         11    1    4    4    0    0 -0.58527458481E+02 -0.40424126608E+02 -0.21597943349E+03  0.22739104886E+03  0.00000000000E+00 0. -1.
        -12    1    4    4    0    0  0.62073359768E+00  0.19301681403E+02 -0.20313987110E+02  0.28028526317E+02  0.00000000000E+00 0.  1.
</event>
<event>
12    1  0.8747122E-002  0.2280807E+03  0.7818608E-02  0.1128725E+00
         21   -1    0    0  503  502  0.00000000000E+00  0.00000000000E+00  0.41764311850E+02  0.41764311850E+02  0.00000000000E+00 0. -1.
         21   -1    0    0  501  503 -0.00000000000E+00 -0.00000000000E+00 -0.16278850947E+04  0.16278850947E+04  0.00000000000E+00 0.  1.
          6    2    1    2  501    0  0.76075373421E+02  0.12910409613E+03 -0.12144389238E+04  0.12356709497E+04  0.17194611460E+03 0.  0.
         24    2    3    3    0    0 -0.12796503653E+01  0.12654726788E+03 -0.76367008067E+03  0.77828164400E+03  0.80712308613E+02 0.  0.
         -6    2    1    2    0  502 -0.76075373421E+02 -0.12910409613E+03 -0.37168185908E+03  0.43397845684E+03  0.16653698252E+03 0.  0.
        -24    2    5    5    0    0 -0.21027125249E+02 -0.27394918755E-01 -0.16080105454E+03  0.18063302437E+03  0.79556078384E+02 0.  0.
          5    1    3    3  501    0  0.77355023786E+02  0.25568282550E+01 -0.45076884310E+03  0.45738930571E+03  0.47000000000E+01 0. -1.
        -13    1    4    4    0    0  0.22627410021E-01  0.91802140590E+02 -0.31068682208E+03  0.32396594720E+03  0.00000000000E+00 0.  1.
         14    1    4    4    0    0 -0.13022777753E+01  0.34745127290E+02 -0.45298325859E+03  0.45431569680E+03  0.00000000000E+00 0. -1.
         -5    1    5    5    0  502 -0.55048248171E+02 -0.12907670122E+03 -0.21088080455E+03  0.25334543246E+03  0.47000000000E+01 0.  1.
         13    1    6    6    0    0 -0.43223748098E+02 -0.22746822307E+02 -0.11451877521E+03  0.12450004097E+03  0.00000000000E+00 0. -1.
        -14    1    6    6    0    0  0.22196622849E+02  0.22719427388E+02 -0.46282279320E+02  0.56132983404E+02  0.00000000000E+00 0.  1.
</event>
<event>
12    1  0.8747122E-002  0.3182658E+03  0.7818608E-02  0.1076564E+00
         21   -1    0    0  503  502  0.00000000000E+00  0.00000000000E+00  0.33690514811E+03  0.33690514811E+03  0.00000000000E+00 0.  1.
         21   -1    0    0  501  503 -0.00000000000E+00 -0.00000000000E+00 -0.37080877672E+03  0.37080877672E+03  0.00000000000E+00 0. -1.
          6    2    1    2  501    0  0.33054745168E+02  0.26546126096E+03  0.13798813150E+03  0.34599590509E+03  0.17061695302E+03 0.  0.
         24    2    3    3    0    0 -0.49908548973E+01  0.17039462067E+03  0.18950162918E+02  0.18890592532E+03  0.79165046328E+02 0.  0.
         -6    2    1    2    0  502 -0.33054745168E+02 -0.26546126096E+03 -0.17189176011E+03  0.36171801973E+03  0.17242636503E+03 0.  0.
        -24    2    5    5    0    0 -0.26483144425E+02 -0.46915007751E+02 -0.78455168128E+02  0.12389847165E+03  0.79329962694E+02 0.  0.
          5    1    3    3  501    0  0.38045600065E+02  0.95066640292E+02  0.11903796859E+03  0.15708997978E+03  0.47000000000E+01 0. -1.
        -13    1    4    4    0    0  0.36864686283E+02  0.81542180797E+02  0.41948624072E+01  0.89586434322E+02  0.00000000000E+00 0.  1.
         14    1    4    4    0    0 -0.41855541180E+02  0.88852439873E+02  0.14755300510E+02  0.99319490997E+02  0.00000000000E+00 0. -1.
         -5    1    5    5    0  502 -0.65716007425E+01 -0.21854625321E+03 -0.93436591979E+02  0.23781954808E+03  0.47000000000E+01 0.  1.
         11    1    6    6    0    0  0.20003422775E+02 -0.42869033126E+02 -0.51836264617E+02  0.70177555197E+02  0.00000000000E+00 0. -1.
        -12    1    6    6    0    0 -0.46486567201E+02 -0.40459746243E+01 -0.26618903510E+02  0.53720916456E+02  0.00000000000E+00 0.  1.
</event>
<event>
12    1  0.8747122E-002  0.1922428E+03  0.7818608E-02  0.1156739E+00
         21   -1    0    0  501  502  0.00000000000E+00  0.00000000000E+00  0.40790724391E+03  0.40790724391E+03  0.00000000000E+00 0. -1.
         21   -1    0    0  502  503 -0.00000000000E+00 -0.00000000000E+00 -0.94452632282E+02  0.94452632282E+02  0.00000000000E+00 0. -1.
         -6    2    1    2    0  503  0.69246284041E+02 -0.50832470983E+02  0.10268836507E+03  0.21794995736E+03  0.17198341673E+03 0.  0.
        -24    2    3    3    0    0  0.51177715609E+02  0.33035594086E+02  0.75135314768E+02  0.12771921933E+03  0.83404882405E+02 0.  0.
          6    2    1    2  501    0 -0.69246284041E+02  0.50832470983E+02  0.21076624655E+03  0.28440991884E+03  0.17055088181E+03 0.  0.
         24    2    5    5    0    0  0.67291720723E+01 -0.16725706838E+02  0.13505228628E+03  0.15755933309E+03  0.79125169137E+02 0.  0.
          5    1    5    5  501    0 -0.75975456113E+02  0.67558177821E+02  0.75713960278E+02  0.12685058574E+03  0.47000000000E+01 0. -1.
        -11    1    6    6    0    0  0.28601372732E+02 -0.33333062724E+02  0.42879351168E+02  0.61382166378E+02  0.00000000000E+00 0.  1.
         12    1    6    6    0    0 -0.21872200660E+02  0.16607355886E+02  0.92172935107E+02  0.96177166716E+02  0.00000000000E+00 0. -1.
         -5    1    3    3    0  503  0.18068568431E+02 -0.83868065069E+02  0.27553050307E+02  0.90230738027E+02  0.47000000000E+01 0.  1.
         11    1    4    4    0    0  0.64225891387E+02  0.27633359954E+02  0.22845627069E+02  0.73556035667E+02  0.00000000000E+00 0. -1.
        -12    1    4    4    0    0 -0.13048175778E+02  0.54022341320E+01  0.52289687698E+02  0.54163183661E+02  0.00000000000E+00 0.  1.
</event>
<event>
12    1  0.8747122E-002  0.2265087E+03  0.7818608E-02  0.1129236E+00
         21   -1    0    0  501  502  0.00000000000E+00  0.00000000000E+00  0.89871596497E+02  0.89871596497E+02  0.00000000000E+00 0.  1.
         21   -1    0    0  502  503 -0.00000000000E+00 -0.00000000000E+00 -0.59990555615E+03  0.59990555615E+03  0.00000000000E+00 0. -1.
         -6    2    1    2    0  503 -0.34244804417E+02  0.14286296864E+03 -0.33260804291E+03  0.40205134765E+03  0.17156526892E+03 0.  0.
        -24    2    3    3    0    0 -0.43066493289E+00  0.11549110340E+03 -0.32239883002E+03  0.35711880861E+03  0.10126429497E+03 0.  0.
          6    2    1    2  501    0  0.34244804417E+02 -0.14286296864E+03 -0.17742591674E+03  0.28772580500E+03  0.17240547697E+03 0.  0.
         24    2    5    5    0    0  0.24346721714E+01 -0.15405662046E+03 -0.18305841339E+03  0.25321497521E+03  0.82873825918E+02 0.  0.
          5    1    5    5  501    0  0.31810132245E+02  0.11193651815E+02  0.56324966421E+01  0.34510829790E+02  0.47000000000E+01 0. -1.
        -13    1    6    6    0    0  0.27064300747E+02 -0.35228422295E+02 -0.17057494138E+02  0.47586512991E+02  0.00000000000E+00 0.  1.
         14    1    6    6    0    0 -0.24629628576E+02 -0.11882819816E+03 -0.16600091925E+03  0.20562846222E+03  0.00000000000E+00 0. -1.
         -5    1    3    3    0  503 -0.33814139484E+02  0.27371865246E+02 -0.10209212890E+02  0.44932539033E+02  0.47000000000E+01 0.  1.
         11    1    4    4    0    0 -0.20205440906E+02  0.12629137198E+03 -0.29575629786E+03  0.32222594279E+03  0.00000000000E+00 0. -1.
        -12    1    4    4    0    0  0.19774775973E+02 -0.10800268582E+02 -0.26642532152E+02  0.34892865828E+02  0.00000000000E+00 0.  1.
</event>
<event>
12    1  0.8747122E-002  0.2029874E+03  0.7818608E-02  0.1147294E+00
         21   -1    0    0  501  502  0.00000000000E+00  0.00000000000E+00  0.56107329141E+03  0.56107329141E+03  0.00000000000E+00 0. -1.
         21   -1    0    0  502  503 -0.00000000000E+00 -0.00000000000E+00 -0.30210198342E+03  0.30210198342E+03  0.00000000000E+00 0.  1.
         -6    2    1    2    0  503  0.10692504371E+03 -0.10567922985E+02 -0.24609153993E+03  0.31884782664E+03  0.17192511324E+03 0.  0.
        -24    2    3    3    0    0  0.71971750413E+02 -0.74699792173E+02 -0.15171086548E+03  0.19941403299E+03  0.77393656321E+02 0.  0.
          6    2    1    2  501    0 -0.10692504371E+03  0.10567922985E+02  0.50506284792E+03  0.54432744819E+03  0.17221859521E+03 0.  0.
         24    2    5    5    0    0  0.31124472304E+01 -0.64832066338E+01  0.12708740065E+03  0.15026334278E+03  0.79850770089E+02 0.  0.
          5    1    5    5  501    0 -0.11003749094E+03  0.17051129618E+02  0.37797544726E+03  0.39406410540E+03  0.47000000000E+01 0. -1.
        -11    1    6    6    0    0  0.17954772968E+02 -0.22434853432E+02  0.12512986340E+03  0.12838683436E+03  0.00000000000E+00 0.  1.
         12    1    6    6    0    0 -0.14842325737E+02  0.15951646798E+02  0.19575372494E+01  0.21876508427E+02  0.00000000000E+00 0. -1.
         -5    1    3    3    0  503  0.34953293292E+02  0.64131869188E+02 -0.94380674447E+02  0.11943379365E+03  0.47000000000E+01 0.  1.
         11    1    4    4    0    0  0.18527514555E+01  0.15248009806E+02 -0.18868688438E+02  0.24330267043E+02  0.00000000000E+00 0. -1.
        -12    1    4    4    0    0  0.70118998957E+02 -0.89947801979E+02 -0.13284217705E+03  0.17508376595E+03  0.00000000000E+00 0.  1.
</event>
<event>
12    1  0.8747122E-002  0.1787606E+03  0.7818608E-02  0.1169024E+00
         21   -1    0    0  503  502  0.00000000000E+00  0.00000000000E+00  0.33202768522E+02  0.33202768522E+02  0.00000000000E+00 0. -1.
         21   -1    0    0  501  503 -0.00000000000E+00 -0.00000000000E+00 -0.96688584592E+03  0.96688584592E+03  0.00000000000E+00 0. -1.
          6    2    1    2  501    0  0.41751724315E+02 -0.18901909357E+02 -0.43147760322E+03  0.46701668603E+03  0.17271703530E+03 0.  0.
         24    2    3    3    0    0 -0.74211184406E+01  0.44122046211E+02 -0.17441321922E+03  0.19776926271E+03  0.81797813376E+02 0.  0.
         -6    2    1    2    0  502 -0.41751724315E+02  0.18901909357E+02 -0.50220547418E+03  0.53307192842E+03  0.17278557207E+03 0.  0.
        -24    2    5    5    0    0 -0.32987717094E+02 -0.49991863930E+02 -0.20079302572E+03  0.22372630633E+03  0.78410745617E+02 0.  0.
          5    1    3    3  501    0  0.49172842755E+02 -0.63023955567E+02 -0.25706438401E+03  0.26924742332E+03  0.47000000000E+01 0. -1.
        -13    1    4    4    0    0 -0.23103793606E+02  0.19990738763E+02 -0.11996964738E+02  0.32822889547E+02  0.00000000000E+00 0.  1.
         14    1    4    4    0    0  0.15682675166E+02  0.24131307448E+02 -0.16241625448E+03  0.16494637316E+03  0.00000000000E+00 0. -1.
         -5    1    5    5    0  502 -0.87640072204E+01  0.68893773286E+02 -0.30141244846E+03  0.30934562209E+03  0.47000000000E+01 0.  1.
         11    1    6    6    0    0 -0.52285646738E+02 -0.17315094855E+02 -0.80111777039E+02  0.97218816003E+02  0.00000000000E+00 0. -1.
        -12    1    6    6    0    0  0.19297929644E+02 -0.32676769075E+02 -0.12068124868E+03  0.12650749033E+03  0.00000000000E+00 0.  1.
</event>
<event>
12    1  0.8747122E-002  0.1808770E+03  0.7818608E-02  0.1168363E+00
         21   -1    0    0  501  502  0.00000000000E+00  0.00000000000E+00  0.81678258947E+02  0.81678258947E+02  0.00000000000E+00 0. -1.
         21   -1    0    0  502  503 -0.00000000000E+00 -0.00000000000E+00 -0.39064491773E+03  0.39064491773E+03  0.00000000000E+00 0. -1.
         -6    2    1    2    0  503 -0.15948393149E+02 -0.23098863115E+02 -0.17666367328E+03  0.25283701438E+03  0.17868573995E+03 0.  0.
        -24    2    3    3    0    0  0.13432660452E+02 -0.84293103680E+02 -0.90833169106E+02  0.14330643949E+03  0.70712850984E+02 0.  0.
          6    2    1    2  501    0  0.15948393149E+02  0.23098863115E+02 -0.13230298550E+03  0.21948616230E+03  0.17286464863E+03 0.  0.
         24    2    5    5    0    0  0.23213990355E+02 -0.33579711543E+01 -0.16129603309E+03  0.17929362828E+03  0.74696917829E+02 0.  0.
          5    1    5    5  501    0 -0.72655972067E+01  0.26456834269E+02  0.28993047587E+02  0.40192534017E+02  0.47000000000E+01 0. -1.
        -11    1    6    6    0    0 -0.69839332791E+00 -0.36902590060E+02 -0.82453413327E+02  0.90337446697E+02  0.00000000000E+00 0.  1.
         12    1    6    6    0    0  0.23912383683E+02  0.33544618906E+02 -0.78842619761E+02  0.88956181583E+02  0.00000000000E+00 0. -1.
         -5    1    3    3    0  503 -0.29381053600E+02  0.61194240565E+02 -0.85830504173E+02  0.10953057489E+03  0.47000000000E+01 0.  1.
         11    1    4    4    0    0 -0.28536045278E+02 -0.23752078749E+02 -0.28431686438E+02  0.46763531932E+02  0.00000000000E+00 0. -1.
        -12    1    4    4    0    0  0.41968705730E+02 -0.60541024931E+02 -0.62401482668E+02  0.96542907557E+02  0.00000000000E+00 0.  1.
</event>
<event>
12    1  0.8747122E-002  0.4859185E+03  0.7818608E-02  0.1017568E+00
         21   -1    0    0  501  502  0.00000000000E+00  0.00000000000E+00  0.33283886204E+03  0.33283886204E+03  0.00000000000E+00 0. -1.
         21   -1    0    0  502  503 -0.00000000000E+00 -0.00000000000E+00 -0.70926427126E+03  0.70926427126E+03  0.00000000000E+00 0.  1.
         -6    2    1    2    0  503  0.40688513576E+03 -0.20080472503E+03 -0.20670704688E+03  0.52805740657E+03  0.17389298465E+03 0.  0.
        -24    2    3    3    0    0  0.34108233385E+03 -0.21546072383E+03 -0.20599848480E+03  0.46047487111E+03  0.82711844405E+02 0.  0.
          6    2    1    2  501    0 -0.40688513576E+03  0.20080472503E+03 -0.16971836234E+03  0.51404572673E+03  0.17193206613E+03 0.  0.
         24    2    5    5    0    0 -0.29484173551E+03  0.18386833661E+03 -0.70004637724E+02  0.36303088750E+03  0.78431892543E+02 0.  0.
          5    1    5    5  501    0 -0.11204340024E+03  0.16936388414E+02 -0.99713724620E+02  0.15101483923E+03  0.47000000000E+01 0. -1.
        -11    1    6    6    0    0 -0.45554522444E+02  0.73186907425E+01 -0.29794424673E+02  0.54922540827E+02  0.00000000000E+00 0.  1.
         12    1    6    6    0    0 -0.24928721307E+03  0.17654964587E+03 -0.40210213051E+02  0.30810834667E+03  0.00000000000E+00 0. -1.
         -5    1    3    3    0  503  0.65802801903E+02  0.14655998801E+02 -0.70856208405E+00  0.67582535461E+02  0.47000000000E+01 0.  1.
         11    1    4    4    0    0  0.21343240597E+03 -0.17340829079E+03 -0.11447683716E+03  0.29787375426E+03  0.00000000000E+00 0. -1.
        -12    1    4    4    0    0  0.12764992789E+03 -0.42052433035E+02 -0.91521647634E+02  0.16260111684E+03  0.00000000000E+00 0.  1.
</event>
<event>
12    1  0.8747122E-002  0.2113863E+03  0.7818608E-02  0.1140710E+00
         21   -1    0    0  503  502  0.00000000000E+00  0.00000000000E+00  0.55974700757E+03  0.55974700757E+03  0.00000000000E+00 0. -1.
         21   -1    0    0  501  503 -0.00000000000E+00 -0.00000000000E+00 -0.79574987480E+02  0.79574987480E+02  0.00000000000E+00 0. -1.
          6    2    1    2  501    0 -0.12037450121E+03 -0.15344503541E+02  0.25541971695E+03  0.33078067458E+03  0.17161336935E+03 0.  0.
         24    2    3    3    0    0 -0.11575767831E+03 -0.11919206931E+02  0.97364977142E+02  0.17255160492E+03  0.82171832182E+02 0.  0.
         -6    2    1    2    0  502  0.12037450121E+03  0.15344503541E+02  0.22475230314E+03  0.30854132047E+03  0.17308574274E+03 0.  0.
        -24    2    5    5    0    0  0.10545353082E+03  0.66670682769E+02  0.12052765268E+03  0.19131555626E+03  0.80680232411E+02 0.  0.
          5    1    3    3  501    0 -0.46168229008E+01 -0.34252966100E+01  0.15805473981E+03  0.15822906966E+03  0.47000000000E+01 0. -1.
        -11    1    4    4    0    0 -0.19221106944E+02  0.27881585516E+02  0.43286385860E+02  0.54959484749E+02  0.00000000000E+00 0.  1.
         12    1    4    4    0    0 -0.96536571369E+02 -0.39800792447E+02  0.54078591283E+02  0.11759212017E+03  0.00000000000E+00 0. -1.
         -5    1    5    5    0  502  0.14920970392E+02 -0.51326179228E+02  0.10422465046E+03  0.11722576421E+03  0.47000000000E+01 0.  1.
         11    1    6    6    0    0  0.44865796477E+02  0.66161011722E+02  0.98476284702E+02  0.12683768294E+03  0.00000000000E+00 0. -1.
        -12    1    6    6    0    0  0.60587734344E+02  0.50967104743E+00  0.22051367980E+02  0.64477873316E+02  0.00000000000E+00 0.  1.
</event>
<event>
12    1  0.8747122E-002  0.3204760E+03  0.7818608E-02  0.1075467E+00
         21   -1    0    0  501  502  0.00000000000E+00  0.00000000000E+00  0.76317306783E+02  0.76317306783E+02  0.00000000000E+00 0. -1.
         21   -1    0    0  502  503 -0.00000000000E+00 -0.00000000000E+00 -0.14618107865E+04  0.14618107865E+04  0.00000000000E+00 0. -1.
         -6    2    1    2    0  503  0.26144093635E+03 -0.67131845867E+02 -0.91101366757E+03  0.96573846502E+03  0.17276235815E+03 0.  0.
        -24    2    3    3    0    0  0.88656074838E+02 -0.41589008135E+02 -0.55599126982E+03  0.57004914519E+03  0.78994877101E+02 0.  0.
          6    2    1    2  501    0 -0.26144093635E+03  0.67131845867E+02 -0.47447981210E+03  0.57238962822E+03  0.17216488164E+03 0.  0.
         24    2    5    5    0    0 -0.10179163816E+03 -0.27087828604E+02 -0.16111640803E+03  0.20826882618E+03  0.79511753607E+02 0.  0.
          5    1    5    5  501    0 -0.15964929818E+03  0.94219674471E+02 -0.31336340407E+03  0.36412080204E+03  0.47000000000E+01 0. -1.
        -13    1    6    6    0    0  0.89189606649E+01  0.11148728508E+02 -0.24107908115E+02  0.28018444646E+02  0.00000000000E+00 0.  1.
         14    1    6    6    0    0 -0.11071059883E+03 -0.38236557112E+02 -0.13700849992E+03  0.18025038153E+03  0.00000000000E+00 0. -1.
         -5    1    3    3    0  503  0.17278486151E+03 -0.25542837733E+02 -0.35502239775E+03  0.39568931984E+03  0.47000000000E+01 0.  1.
         13    1    4    4    0    0  0.95574068024E+02 -0.33216085225E+02 -0.36544442977E+03  0.37919301424E+03  0.00000000000E+00 0. -1.
        -14    1    4    4    0    0 -0.69179931868E+01 -0.83729229094E+01 -0.19054684005E+03  0.19085613095E+03  0.00000000000E+00 0.  1.
</event>
<event>
12    1  0.8747122E-002  0.2216985E+03  0.7818608E-02  0.1132773E+00
         21   -1    0    0  503  502  0.00000000000E+00  0.00000000000E+00  0.48461375893E+03  0.48461375893E+03  0.00000000000E+00 0.  1.
         21   -1    0    0  501  503 -0.00000000000E+00 -0.00000000000E+00 -0.17213878146E+03  0.17213878146E+03  0.00000000000E+00 0. -1.
          6    2    1    2  501    0  0.24163656957E+02  0.13693546133E+03 -0.54617215800E+02  0.22832706591E+03  0.17267022291E+03 0.  0.
         24    2    3    3    0    0 -0.19666218134E+02  0.64668441830E+01 -0.14894649014E+02  0.84998456340E+02  0.81082099144E+02 0.  0.
         -6    2    1    2    0  502 -0.24163656957E+02 -0.13693546133E+03  0.36709219327E+03  0.42842547448E+03  0.17162897756E+03 0.  0.
        -24    2    5    5    0    0  0.36101481606E+02 -0.41903739064E+02  0.23939701609E+03  0.25815785149E+03  0.79216820530E+02 0.  0.
          5    1    3    3  501    0  0.43829875091E+02  0.13046861715E+03 -0.39722566786E+02  0.14332860957E+03  0.47000000000E+01 0. -1.
        -13    1    4    4    0    0  0.18009549476E+02 -0.27615219781E+01 -0.36357189782E+02  0.40667125848E+02  0.00000000000E+00 0.  1.
         14    1    4    4    0    0 -0.37675767610E+02  0.92283661611E+01  0.21462540768E+02  0.44331330492E+02  0.00000000000E+00 0. -1.
         -5    1    5    5    0  502 -0.60265138563E+02 -0.95031722265E+02  0.12769517718E+03  0.17026762299E+03  0.47000000000E+01 0.  1.
         11    1    6    6    0    0  0.48831831568E+02 -0.15011233843E+02  0.72871564623E+02  0.88995223728E+02  0.00000000000E+00 0. -1.
        -12    1    6    6    0    0 -0.12730349963E+02 -0.26892505222E+02  0.16652545146E+03  0.16916262777E+03  0.00000000000E+00 0.  1.
</event>
<event>
12    1  0.8747122E-002  0.1882082E+03  0.7818608E-02  0.1160328E+00
         21   -1    0    0  503  502  0.00000000000E+00  0.00000000000E+00  0.11902076064E+03  0.11902076064E+03  0.00000000000E+00 0. -1.
         21   -1    0    0  501  503 -0.00000000000E+00 -0.00000000000E+00 -0.60690831780E+03  0.60690831780E+03  0.00000000000E+00 0. -1.
          6    2    1    2  501    0  0.52679654493E+02 -0.54453373086E+02 -0.50408358069E+03  0.53807302034E+03  0.17228465707E+03 0.  0.
         24    2    3    3    0    0 -0.33077036487E+02 -0.31069763122E+02 -0.18378847710E+03  0.20563949819E+03  0.80311757424E+02 0.  0.
         -6    2    1    2    0  502 -0.52679654493E+02  0.54453373086E+02  0.16196023535E+02  0.18785605810E+03  0.17113524344E+03 0.  0.
        -24    2    5    5    0    0 -0.77977973904E+02  0.53349450049E+02  0.58884351378E+02  0.13800019641E+03  0.81547281603E+02 0.  0.
          5    1    3    3  501    0  0.85756690980E+02 -0.23383609964E+02 -0.32029510360E+03  0.33243352215E+03  0.47000000000E+01 0. -1.
        -13    1    4    4    0    0 -0.14402807369E+02  0.70797268112E+00  0.34339134350E+01  0.14823422240E+02  0.00000000000E+00 0.  1.
         14    1    4    4    0    0 -0.18674229118E+02 -0.31777735803E+02 -0.18722239053E+03  0.19081607595E+03  0.00000000000E+00 0. -1.
         -5    1    5    5    0  502  0.25298319411E+02  0.11039230376E+01 -0.42688327843E+02  0.49855861692E+02  0.47000000000E+01 0.  1.
         13    1    6    6    0    0 -0.41088118782E+02 -0.23404300192E+01 -0.96771271560E+01  0.42277155861E+02  0.00000000000E+00 0. -1.
        -14    1    6    6    0    0 -0.36889855122E+02  0.55689880068E+02  0.68561478534E+02  0.95723040548E+02  0.00000000000E+00 0.  1.
</event>
<event>
12    1  0.8747122E-002  0.2103007E+03  0.7818608E-02  0.1141395E+00
         21   -1    0    0  503  502  0.00000000000E+00  0.00000000000E+00  0.42681464003E+03  0.42681464003E+03  0.00000000000E+00 0. -1.
         21   -1    0    0  501  503 -0.00000000000E+00 -0.00000000000E+00 -0.13261346141E+03  0.13261346141E+03  0.00000000000E+00 0. -1.
          6    2    1    2  501    0 -0.70918262377E+02 -0.96582995927E+02  0.16028789805E+02  0.21091069466E+03  0.17282570404E+03 0.  0.
         24    2    3    3    0    0 -0.93770897490E+02 -0.58536767890E+02  0.58763498388E+02  0.14911988857E+03  0.81018874421E+02 0.  0.
         -6    2    1    2    0  502  0.70918262377E+02  0.96582995927E+02  0.27817238882E+03  0.34851740678E+03  0.17241470321E+03 0.  0.
        -24    2    5    5    0    0  0.37621330251E+02  0.46186090046E+02  0.26945254626E+03  0.28730744463E+03  0.79952321133E+02 0.  0.
          5    1    3    3  501    0  0.22852635113E+02 -0.38046228037E+02 -0.42734708584E+02  0.61790806089E+02  0.47000000000E+01 0. -1.
        -13    1    4    4    0    0 -0.48737056831E+02  0.14817168087E+02  0.20134037113E+02  0.54774342800E+02  0.00000000000E+00 0.  1.
         14    1    4    4    0    0 -0.45033840659E+02 -0.73353935977E+02  0.38629461275E+02  0.94345545768E+02  0.00000000000E+00 0. -1.
         -5    1    5    5    0  502  0.33296932126E+02  0.50396905881E+02  0.87198425647E+01  0.61209962145E+02  0.47000000000E+01 0.  1.
         13    1    6    6    0    0  0.54158346216E+02  0.15308462514E+02  0.10465137452E+03  0.11882502126E+03  0.00000000000E+00 0. -1.
        -14    1    6    6    0    0 -0.16537015966E+02  0.30877627532E+02  0.16480117174E+03  0.16848242337E+03  0.00000000000E+00 0.  1.
</event>
<event>
12    1  0.8747122E-002  0.1840515E+03  0.7818608E-02  0.1164320E+00
         21   -1    0    0  501  502  0.00000000000E+00  0.00000000000E+00  0.79161689703E+02  0.79161689703E+02  0.00000000000E+00 0. -1.
         21   -1    0    0  502  503 -0.00000000000E+00 -0.00000000000E+00 -0.19743189952E+04  0.19743189952E+04  0.00000000000E+00 0. -1.
         -6    2    1    2    0  503 -0.36993913832E+02 -0.54051485446E+02 -0.18582554382E+04  0.18673479139E+04  0.17200245684E+03 0.  0.
        -24    2    3    3    0    0 -0.71231817294E+02 -0.86108759396E+02 -0.14945327492E+04  0.15005834290E+04  0.75058636135E+02 0.  0.
          6    2    1    2  501    0  0.36993913832E+02  0.54051485446E+02 -0.36901867346E+02  0.18613277107E+03  0.17027491862E+03 0.  0.
         24    2    5    5    0    0  0.63310723529E+02  0.49528151315E+02  0.28322566445E+02  0.11549742731E+03  0.77949999734E+02 0.  0.
          5    1    5    5  501    0 -0.26316809697E+02  0.45233341314E+01 -0.65224433791E+02  0.70635343757E+02  0.47000000000E+01 0. -1.
        -13    1    6    6    0    0  0.12225707980E+02 -0.14611017605E+02  0.27551486605E+02  0.33496778729E+02  0.00000000000E+00 0.  1.
         14    1    6    6    0    0  0.51085015549E+02  0.64139168920E+02  0.77107983997E+00  0.82000648580E+02  0.00000000000E+00 0. -1.
         -5    1    3    3    0  503  0.34237903462E+02  0.32057273950E+02 -0.36372268901E+03  0.36676448485E+03  0.47000000000E+01 0.  1.
         11    1    4    4    0    0 -0.10291426354E+02 -0.51335911816E+02 -0.34916705946E+03  0.35307070781E+03  0.00000000000E+00 0. -1.
        -12    1    4    4    0    0 -0.60940390941E+02 -0.34772847580E+02 -0.11453656897E+04  0.11475127212E+04  0.00000000000E+00 0.  1.
</event>
<event>
12    1  0.8747122E-002  0.2802362E+03  0.7818608E-02  0.1096325E+00
         21   -1    0    0  501  502  0.00000000000E+00  0.00000000000E+00  0.33987785221E+04  0.33987785221E+04  0.00000000000E+00 0.  1.
         21   -1    0    0  502  503 -0.00000000000E+00 -0.00000000000E+00 -0.29038086491E+02  0.29038086491E+02  0.00000000000E+00 0.  1.
         -6    2    1    2    0  503  0.20136329810E+03 -0.75327944983E+02  0.86791466960E+03  0.91034476464E+03  0.17096853420E+03 0.  0.
        -24    2    3    3    0    0  0.15546165949E+03  0.12455216306E+02  0.56638659634E+03  0.59292688110E+03  0.80281067657E+02 0.  0.
          6    2    1    2  501    0 -0.20136329810E+03  0.75327944983E+02  0.25018257660E+04  0.25174718439E+04  0.17975217521E+03 0.  0.
         24    2    5    5    0    0 -0.29114488434E+02  0.73258195037E+01  0.52652068139E+03  0.53349951329E+03  0.80600134495E+02 0.  0.
          5    1    5    5  501    0 -0.17224880966E+03  0.68002125480E+02  0.19753050846E+04  0.19839723306E+04  0.47000000000E+01 0. -1.
        -13    1    6    6    0    0  0.12458632608E+01  0.12164460141E+02  0.46060031472E+03  0.46076260285E+03  0.00000000000E+00 0.  1.
         14    1    6    6    0    0 -0.30360351695E+02 -0.48386406376E+01  0.65920366672E+02  0.72736910441E+02  0.00000000000E+00 0. -1.
         -5    1    3    3    0  503  0.45901638604E+02 -0.87783161289E+02  0.30152807325E+03  0.31741788354E+03  0.47000000000E+01 0.  1.
         13    1    4    4    0    0  0.18930469127E+02  0.28444169253E+02  0.16947461072E+03  0.17288457741E+03  0.00000000000E+00 0. -1.
        -14    1    4    4    0    0  0.13653119037E+03 -0.15988952947E+02  0.39691198562E+03  0.42004230369E+03  0.00000000000E+00 0.  1.
</event>
<event>
12    1  0.8747122E-002  0.2814398E+03  0.7818608E-02  0.1095053E+00
         21   -1    0    0  503  502  0.00000000000E+00  0.00000000000E+00  0.48421586690E+02  0.48421586690E+02  0.00000000000E+00 0. -1.
         21   -1    0    0  501  503 -0.00000000000E+00 -0.00000000000E+00 -0.16410597233E+04  0.16410597233E+04  0.00000000000E+00 0.  1.
          6    2    1    2  501    0  0.16140077254E+02 -0.22066913946E+03 -0.86576101832E+03  0.91002080391E+03  0.17216373459E+03 0.  0.
         24    2    3    3    0    0  0.50064739094E+02 -0.21424661478E+03 -0.81835808963E+03  0.85118833709E+03  0.80022073757E+02 0.  0.
         -6    2    1    2    0  502 -0.16140077254E+02  0.22066913946E+03 -0.72687711834E+03  0.77946050613E+03  0.17393379269E+03 0.  0.
        -24    2    5    5    0    0 -0.29461383086E+02  0.14193365957E+03 -0.27580655062E+03  0.32135191632E+03  0.78642634427E+02 0.  0.
          5    1    3    3  501    0 -0.33924661841E+02 -0.64225246800E+01 -0.47402928688E+02  0.58832466823E+02  0.47000000000E+01 0. -1.
        -13    1    4    4    0    0 -0.59225934761E+01 -0.86176597150E+02 -0.42620955498E+03  0.43487477251E+03  0.00000000000E+00 0.  1.
         14    1    4    4    0    0  0.55987332571E+02 -0.12807001763E+03 -0.39214853465E+03  0.41631356458E+03  0.00000000000E+00 0. -1.
         -5    1    5    5    0  502  0.13321305833E+02  0.78735479885E+02 -0.45107056773E+03  0.45810858980E+03  0.47000000000E+01 0.  1.
         11    1    6    6    0    0  0.12968771708E+02  0.87755214412E+02 -0.10656909603E+03  0.13865835325E+03  0.00000000000E+00 0. -1.
        -12    1    6    6    0    0 -0.42430154794E+02  0.54178445162E+02 -0.16923745458E+03  0.18269356308E+03  0.00000000000E+00 0.  1.
</event>
<event>
12    1  0.8747122E-002  0.1803800E+03  0.7818608E-02  0.1167821E+00
         21   -1    0    0  503  502  0.00000000000E+00  0.00000000000E+00  0.19596061134E+04  0.19596061134E+04  0.00000000000E+00 0.  1.
         21   -1    0    0  501  503 -0.00000000000E+00 -0.00000000000E+00 -0.59780760857E+02  0.59780760857E+02  0.00000000000E+00 0.  1.
          6    2    1    2  501    0  0.43423813174E+02 -0.30217258200E+02  0.91529290338E+02  0.20227351032E+03  0.17244782325E+03 0.  0.
         24    2    3    3    0    0 -0.35856349881E+01 -0.37794189932E+02 -0.12022146685E+02  0.88202093129E+02  0.78700823697E+02 0.  0.
         -6    2    1    2    0  502 -0.43423813174E+02  0.30217258200E+02  0.18082960622E+04  0.18171133639E+04  0.17078529959E+03 0.  0.
        -24    2    5    5    0    0  0.17384663069E+01 -0.44737367098E+02  0.83815324757E+03  0.84302045351E+03  0.78601299932E+02 0.  0.
          5    1    3    3  501    0  0.47009448162E+02  0.75769317311E+01  0.10355143702E+03  0.11407141719E+03  0.47000000000E+01 0. -1.
        -11    1    4    4    0    0  0.26287087977E+02 -0.19408084126E+02 -0.33721367362E+02  0.46955461242E+02  0.00000000000E+00 0.  1.
         12    1    4    4    0    0 -0.29872722965E+02 -0.18386105806E+02  0.21699220677E+02  0.41246631887E+02  0.00000000000E+00 0. -1.
         -5    1    5    5    0  502 -0.45162279481E+02  0.74954625299E+02  0.97014281461E+03  0.97409291039E+03  0.47000000000E+01 0.  1.
         13    1    6    6    0    0  0.37558572214E+02 -0.19628288341E+02  0.28413753695E+03  0.28728044826E+03  0.00000000000E+00 0. -1.
        -14    1    6    6    0    0 -0.35820105907E+02 -0.25109078758E+02  0.55401571062E+03  0.55574000525E+03  0.00000000000E+00 0.  1.
</event>
<event>
12    1  0.8747122E-002  0.3703715E+03  0.7818608E-02  0.1054629E+00
         21   -1    0    0  503  502  0.00000000000E+00  0.00000000000E+00  0.57945211994E+03  0.57945211994E+03  0.00000000000E+00 0. -1.
         21   -1    0    0  501  503 -0.00000000000E+00 -0.00000000000E+00 -0.24062484306E+03  0.24062484306E+03  0.00000000000E+00 0. -1.
          6    2    1    2  501    0 -0.16489502676E+03  0.28314965995E+03  0.22513361981E+03  0.43342843636E+03  0.17265851528E+03 0.  0.
         24    2    3    3    0    0 -0.41522618040E+02  0.42065723333E+02  0.45318983988E+02  0.10831674942E+03  0.78645120683E+02 0.  0.
         -6    2    1    2    0  502  0.16489502676E+03 -0.28314965995E+03  0.11369365706E+03  0.38664852664E+03  0.17089978268E+03 0.  0.
        -24    2    5    5    0    0  0.10058818115E+03 -0.70908004662E+02  0.38338490554E+02  0.15237863581E+03  0.81261808257E+02 0.  0.
          5    1    3    3  501    0 -0.12337240872E+03  0.24108393662E+03  0.17981463582E+03  0.32511168694E+03  0.47000000000E+01 0. -1.
        -11    1    4    4    0    0 -0.36101405606E+02 -0.61062947819E+00  0.53482676080E+02  0.64529690808E+02  0.00000000000E+00 0.  1.
         12    1    4    4    0    0 -0.54212124343E+01  0.42676352811E+02 -0.81636920920E+01  0.43787058614E+02  0.00000000000E+00 0. -1.
         -5    1    5    5    0  502  0.64306845609E+02 -0.21224165529E+03  0.75355166505E+02  0.23426989083E+03  0.47000000000E+01 0.  1.
         11    1    6    6    0    0  0.49499065014E+02 -0.81158350023E+02  0.20038450367E+02  0.97151298029E+02  0.00000000000E+00 0. -1.
        -12    1    6    6    0    0  0.51089116133E+02  0.10250345361E+02  0.18300040187E+02  0.55227337778E+02  0.00000000000E+00 0.  1.
</event>
<event>
12    1  0.8747122E-002  0.3042097E+03  0.7818608E-02  0.1083200E+00
         21   -1    0    0  503  502  0.00000000000E+00  0.00000000000E+00  0.47834803543E+03  0.47834803543E+03  0.00000000000E+00 0. -1.
         21   -1    0    0  501  503 -0.00000000000E+00 -0.00000000000E+00 -0.19323455867E+03  0.19323455867E+03  0.00000000000E+00 0. -1.
          6    2    1    2  501    0  0.61591864808E+02  0.24357860903E+03  0.14111348262E+03  0.33501229096E+03  0.17086873186E+03 0.  0.
         24    2    3    3    0    0 -0.98687007046E+01  0.96126316891E+02  0.11115138286E+03  0.16837313499E+03  0.81591804872E+02 0.  0.
         -6    2    1    2    0  502 -0.61591864808E+02 -0.24357860903E+03  0.14399999414E+03  0.33657030314E+03  0.17152106009E+03 0.  0.
        -24    2    5    5    0    0 -0.43087926783E+02 -0.26050014503E+03  0.14600869244E+03  0.31098009071E+03  0.75320538714E+02 0.  0.
          5    1    3    3  501    0  0.71460565513E+02  0.14745229214E+03  0.29962099767E+02  0.16663915597E+03  0.47000000000E+01 0. -1.
        -11    1    4    4    0    0  0.24950757092E+02  0.79681737816E+02  0.95372932584E+02  0.12675849435E+03  0.00000000000E+00 0.  1.
         12    1    4    4    0    0 -0.34819457797E+02  0.16444579074E+02  0.15778450272E+02  0.41614640635E+02  0.00000000000E+00 0. -1.
         -5    1    5    5    0  502 -0.18503938025E+02  0.16921536007E+02 -0.20086983010E+01  0.25590212428E+02  0.47000000000E+01 0.  1.
         11    1    6    6    0    0 -0.62935791974E+02 -0.22646070328E+03  0.12830141010E+03  0.26778091022E+03  0.00000000000E+00 0. -1.
        -12    1    6    6    0    0  0.19847865191E+02 -0.34039441749E+02  0.17707282344E+02  0.43199180492E+02  0.00000000000E+00 0.  1.
</event>
<event>
12    1  0.8747122E-002  0.2487001E+03  0.7818608E-02  0.1114562E+00
         21   -1    0    0  501  502  0.00000000000E+00  0.00000000000E+00  0.58478297355E+03  0.58478297355E+03  0.00000000000E+00 0. -1.
         21   -1    0    0  502  503 -0.00000000000E+00 -0.00000000000E+00 -0.11891448263E+03  0.11891448263E+03  0.00000000000E+00 0. -1.
         -6    2    1    2    0  503  0.37113585631E+02  0.17647964515E+03  0.35379691700E+03  0.43091220131E+03  0.16730386538E+03 0.  0.
        -24    2    3    3    0    0  0.75312335125E+02  0.16630212780E+03  0.32742014831E+03  0.38315709426E+03  0.79227898085E+02 0.  0.
          6    2    1    2  501    0 -0.37113585631E+02 -0.17647964515E+03  0.11207157392E+03  0.27278525488E+03  0.17125791721E+03 0.  0.
         24    2    5    5    0    0 -0.70696250708E+02 -0.66973973351E+02  0.27036931679E+02  0.13005380098E+03  0.81850610897E+02 0.  0.
          5    1    5    5  501    0  0.33582665077E+02 -0.10950567180E+03  0.85034642244E+02  0.14273145390E+03  0.47000000000E+01 0. -1.
        -11    1    6    6    0    0 -0.58685544986E+02  0.14364356607E+00  0.17269636508E+02  0.61173966431E+02  0.00000000000E+00 0.  1.
         12    1    6    6    0    0 -0.12010705722E+02 -0.67117616917E+02  0.97672951710E+01  0.68879834549E+02  0.00000000000E+00 0. -1.
         -5    1    3    3    0  503 -0.38198749494E+02  0.10177517350E+02  0.26376768690E+02  0.47755107045E+02  0.47000000000E+01 0.  1.
         13    1    4    4    0    0 -0.69064372407E+00  0.91200979331E+02  0.13217718737E+03  0.16058924148E+03  0.00000000000E+00 0. -1.
        -14    1    4    4    0    0  0.76002978849E+02  0.75101148468E+02  0.19524296094E+03  0.22256785278E+03  0.00000000000E+00 0.  1.
</event>
<event>
12    1  0.8747122E-002  0.2445756E+03  0.7818608E-02  0.1118677E+00
         21   -1    0    0  501  502  0.00000000000E+00  0.00000000000E+00  0.20159152820E+03  0.20159152820E+03  0.00000000000E+00 0. -1.
         21   -1    0    0  502  503 -0.00000000000E+00 -0.00000000000E+00 -0.29528642862E+03  0.29528642862E+03  0.00000000000E+00 0. -1.
         -6    2    1    2    0  503  0.79484989163E+02  0.13424707741E+03 -0.98381011949E+02  0.26362102218E+03  0.18835359972E+03 0.  0.
        -24    2    3    3    0    0  0.34359378080E+02  0.16488375932E+03 -0.54447713528E+02  0.19342734892E+03  0.77989517586E+02 0.  0.
          6    2    1    2  501    0 -0.79484989163E+02 -0.13424707741E+03  0.46861115306E+01  0.23325693465E+03  0.17333982989E+03 0.  0.
         24    2    5    5    0    0 -0.60243929819E+02 -0.13827925818E+03  0.54928733814E+02  0.17910079058E+03  0.79432002785E+02 0.  0.
          5    1    5    5  501    0 -0.19241059344E+02  0.40321807703E+01 -0.50242622283E+02  0.54156144068E+02  0.47000000000E+01 0. -1.
        -11    1    6    6    0    0 -0.24842624628E+01  0.47345972372E+01  0.20342247014E+02  0.21033187694E+02  0.00000000000E+00 0.  1.
         12    1    6    6    0    0 -0.57759667356E+02 -0.14301385541E+03  0.34586486800E+02  0.15806760289E+03  0.00000000000E+00 0. -1.
         -5    1    3    3    0  503  0.45125611083E+02 -0.30636681917E+02 -0.43933298421E+02  0.70193673253E+02  0.47000000000E+01 0.  1.
         13    1    4    4    0    0  0.46896394593E+02  0.72283119286E+02 -0.50557671757E+02  0.99900947609E+02  0.00000000000E+00 0. -1.
        -14    1    4    4    0    0 -0.12537016513E+02  0.92600640036E+02 -0.38900417704E+01  0.93526401316E+02  0.00000000000E+00 0.  1.
</event>
<event>
12    1  0.8747122E-002  0.2168907E+03  0.7818608E-02  0.1136777E+00
         21   -1    0    0  501  502  0.00000000000E+00  0.00000000000E+00  0.16930722544E+03  0.16930722544E+03  0.00000000000E+00 0. -1.
         21   -1    0    0  502  503 -0.00000000000E+00 -0.00000000000E+00 -0.32754487428E+03  0.32754487428E+03  0.00000000000E+00 0. -1.
         -6    2    1    2    0  503 -0.10948106976E+03 -0.69854182139E+02 -0.17897991962E+03  0.27897184867E+03  0.17007577525E+03 0.  0.
        -24    2    3    3    0    0 -0.24594780526E+02 -0.72891861214E+02 -0.15764242965E+03  0.19126615859E+03  0.76246187680E+02 0.  0.
          6    2    1    2  501    0  0.10948106976E+03  0.69854182139E+02  0.20742270786E+02  0.21788025105E+03  0.17371197598E+03 0.  0.
         24    2    5    5    0    0  0.70808501564E+02 -0.26174440221E+02 -0.73025475955E+01  0.11052259794E+03  0.80392613084E+02 0.  0.
          5    1    5    5  501    0  0.38672568198E+02  0.96028622359E+02  0.28044818382E+02  0.10735765311E+03  0.47000000000E+01 0. -1.
        -13    1    6    6    0    0  0.87364282314E+02 -0.27402645794E+02 -0.13992528223E+02  0.92624044755E+02  0.00000000000E+00 0.  1.
         14    1    6    6    0    0 -0.16555780750E+02  0.12282055735E+01  0.66899806276E+01  0.17898553181E+02  0.00000000000E+00 0. -1.
         -5    1    3    3    0  503 -0.84886289237E+02  0.30376790752E+01 -0.21337489970E+02  0.87705690082E+02  0.47000000000E+01 0.  1.
         13    1    4    4    0    0 -0.12853968602E+02 -0.84976594658E+02 -0.10332796614E+03  0.13439834350E+03  0.00000000000E+00 0. -1.
        -14    1    4    4    0    0 -0.11740811924E+02  0.12084733444E+02 -0.54314463508E+02  0.56867815091E+02  0.00000000000E+00 0.  1.
</event>
<event>
12    1  0.8747122E-002  0.1994064E+03  0.7818608E-02  0.1150594E+00
         21   -1    0    0  501  502  0.00000000000E+00  0.00000000000E+00  0.37597465167E+03  0.37597465167E+03  0.00000000000E+00 0.  1.
         21   -1    0    0  502  503 -0.00000000000E+00 -0.00000000000E+00 -0.12151856675E+03  0.12151856675E+03  0.00000000000E+00 0.  1.
         -6    2    1    2    0  503  0.99839790240E+02 -0.61785243917E+01  0.34724815608E+02  0.20076987279E+03  0.17057717057E+03 0.  0.
        -24    2    3    3    0    0  0.66794990022E+02  0.59427586462E+02  0.77431937303E+01  0.12237205061E+03  0.83197073246E+02 0.  0.
          6    2    1    2  501    0 -0.99839790240E+02  0.61785243917E+01  0.21973126931E+03  0.29672334563E+03  0.17250146448E+03 0.  0.
         24    2    5    5    0    0 -0.70695208840E+02  0.19920293330E+02  0.23573322024E+03  0.26044118373E+03  0.82854260101E+02 0.  0.
          5    1    5    5  501    0 -0.29144581401E+02 -0.13741768939E+02 -0.16001950931E+02  0.36282161901E+02  0.47000000000E+01 0. -1.
        -11    1    6    6    0    0 -0.83082141743E+02  0.21169794024E+02  0.14193411983E+03  0.16581947059E+03  0.00000000000E+00 0.  1.
         12    1    6    6    0    0  0.12386932903E+02 -0.12495006939E+01  0.93799100409E+02  0.94621713133E+02  0.00000000000E+00 0. -1.
         -5    1    3    3    0  503  0.33044800218E+02 -0.65606110853E+02  0.26981621878E+02  0.78397822176E+02  0.47000000000E+01 0.  1.
         13    1    4    4    0    0  0.77858587756E+00 -0.13978436516E+01 -0.26314089712E+02  0.26362691066E+02  0.00000000000E+00 0. -1.
        -14    1    4    4    0    0  0.66016404145E+02  0.60825430113E+02  0.34057283443E+02  0.96009359545E+02  0.00000000000E+00 0.  1.
</event>
<event>
12    1  0.8747122E-002  0.1790486E+03  0.7818608E-02  0.1168769E+00
         21   -1    0    0  501  502  0.00000000000E+00  0.00000000000E+00  0.79654340162E+03  0.79654340162E+03  0.00000000000E+00 0.  1.
         21   -1    0    0  502  503 -0.00000000000E+00 -0.00000000000E+00 -0.50183471305E+02  0.50183471305E+02  0.00000000000E+00 0.  1.
         -6    2    1    2    0  503  0.46586189475E+02  0.75354116841E+01  0.18456926953E+03  0.25714632751E+03  0.17271758167E+03 0.  0.
        -24    2    3    3    0    0 -0.11386820240E+02 -0.49541955354E+02  0.74068631256E+02  0.11984673996E+03  0.79328518998E+02 0.  0.
          6    2    1    2  501    0 -0.46586189475E+02 -0.75354116841E+01  0.56179066078E+03  0.58958054541E+03  0.17253816247E+03 0.  0.
         24    2    5    5    0    0 -0.11000466385E+02  0.60020451881E+02  0.35276169058E+03  0.36699272280E+03  0.80742698405E+02 0.  0.
          5    1    5    5  501    0 -0.35585723090E+02 -0.67555863565E+02  0.20902897021E+03  0.22258782261E+03  0.47000000000E+01 0. -1.
        -13    1    6    6    0    0 -0.33969614886E+02  0.22688828972E+02  0.27247747035E+03  0.27552257538E+03  0.00000000000E+00 0.  1.
         14    1    6    6    0    0  0.22969148502E+02  0.37331622909E+02  0.80284220230E+02  0.91470147425E+02  0.00000000000E+00 0. -1.
         -5    1    3    3    0  503  0.57973009714E+02  0.57077367038E+02  0.11050063827E+03  0.13729958755E+03  0.47000000000E+01 0.  1.
         13    1    4    4    0    0  0.32676277592E+02 -0.29329170150E+02  0.23527558402E+02  0.49814509365E+02  0.00000000000E+00 0. -1.
        -14    1    4    4    0    0 -0.44063097832E+02 -0.20212785204E+02  0.50541072855E+02  0.70032230591E+02  0.00000000000E+00 0.  1.
</event>
<event>
12    1  0.8747122E-002  0.1868046E+03  0.7818608E-02  0.1161497E+00
         21   -1    0    0  501  502  0.00000000000E+00  0.00000000000E+00  0.99777828180E+02  0.99777828180E+02  0.00000000000E+00 0.  1.
         21   -1    0    0  502  503 -0.00000000000E+00 -0.00000000000E+00 -0.63122493644E+03  0.63122493644E+03  0.00000000000E+00 0.  1.
         -6    2    1    2    0  503  0.68174480906E+02  0.20768763655E+02 -0.51043378140E+03  0.54354263781E+03  0.17267557017E+03 0.  0.
        -24    2    3    3    0    0 -0.20362203418E+02  0.38426459224E+02 -0.19372444557E+03  0.21418351454E+03  0.80338066877E+02 0.  0.
          6    2    1    2  501    0 -0.68174480906E+02 -0.20768763655E+02 -0.21013326867E+02  0.18746012682E+03  0.17210647242E+03 0.  0.
         24    2    5    5    0    0 -0.99037705367E+02 -0.12269104170E+02  0.26182982403E+02  0.13023806425E+03  0.79482116296E+02 0.  0.
          5    1    5    5  501    0  0.30863224461E+02 -0.84996594852E+01 -0.47196309270E+02  0.57222062565E+02  0.47000000000E+01 0. -1.
        -13    1    6    6    0    0 -0.97150890500E+02 -0.35708839538E+02  0.16525038174E+02  0.10481647596E+03  0.00000000000E+00 0.  1.
         14    1    6    6    0    0 -0.18868148668E+01  0.23439735368E+02  0.96579442296E+01  0.25421588291E+02  0.00000000000E+00 0. -1.
         -5    1    3    3    0  503  0.88536684324E+02 -0.17657695569E+02 -0.31670933582E+03  0.32935912327E+03  0.47000000000E+01 0.  1.
         11    1    4    4    0    0  0.82502988011E+01  0.56744362785E+02 -0.12463073176E+03  0.13718895523E+03  0.00000000000E+00 0. -1.
        -12    1    4    4    0    0 -0.28612502219E+02 -0.18317903560E+02 -0.69093713813E+02  0.76994559305E+02  0.00000000000E+00 0.  1.
</event>
<event>
12    1  0.8747122E-002  0.2536258E+03  0.7818608E-02  0.1111586E+00
         21   -1    0    0  501  502  0.00000000000E+00  0.00000000000E+00  0.11973711976E+03  0.11973711976E+03  0.00000000000E+00 0. -1.
         21   -1    0    0  502  503 -0.00000000000E+00 -0.00000000000E+00 -0.79121875428E+03  0.79121875428E+03  0.00000000000E+00 0. -1.
         -6    2    1    2    0  503 -0.17704906465E+03  0.29038436919E+02 -0.59912869825E+03  0.65060069316E+03  0.17926645742E+03 0.  0.
        -24    2    3    3    0    0 -0.73515657060E+02  0.37247777134E+02 -0.47586903894E+03  0.48935059744E+03  0.78871517447E+02 0.  0.
          6    2    1    2  501    0  0.17704906465E+03 -0.29038436919E+02 -0.72352936268E+02  0.26035518088E+03  0.17424198895E+03 0.  0.
         24    2    5    5    0    0  0.95909578533E+02 -0.84944799779E+02 -0.40047318706E+02  0.15655305884E+03  0.80565539976E+02 0.  0.
          5    1    5    5  501    0  0.81139486116E+02  0.55906362860E+02 -0.32305617562E+02  0.10380212205E+03  0.47000000000E+01 0. -1.
        -13    1    6    6    0    0  0.94250923060E+02 -0.80787774565E+02 -0.58739467294E+02  0.13733253815E+03  0.00000000000E+00 0.  1.
         14    1    6    6    0    0  0.16586554732E+01 -0.41570252142E+01  0.18692148588E+02  0.19220520686E+02  0.00000000000E+00 0. -1.
         -5    1    3    3    0  503 -0.10353340759E+03 -0.82093402143E+01 -0.12325965931E+03  0.16125009571E+03  0.47000000000E+01 0.  1.
         13    1    4    4    0    0  0.92073069865E+01 -0.13588813324E+02 -0.87655960739E+02  0.89179581759E+02  0.00000000000E+00 0. -1.
        -14    1    4    4    0    0 -0.82722964047E+02  0.50836590458E+02 -0.38821307820E+03  0.40017101568E+03  0.00000000000E+00 0.  1.
</event>
<event>
12    1  0.8747122E-002  0.2785520E+03  0.7818608E-02  0.1096680E+00
         21   -1    0    0  503  502  0.00000000000E+00  0.00000000000E+00  0.13418653230E+03  0.13418653230E+03  0.00000000000E+00 0.  1.
         21   -1    0    0  501  503 -0.00000000000E+00 -0.00000000000E+00 -0.92605490475E+03  0.92605490475E+03  0.00000000000E+00 0. -1.
          6    2    1    2  501    0 -0.52926908137E+02  0.21215423700E+03 -0.72157078093E+03  0.77295593170E+03  0.17025217347E+03 0.  0.
         24    2    3    3    0    0 -0.37639508276E+02  0.21879946080E+03 -0.52215955966E+03  0.57279402533E+03  0.78437574387E+02 0.  0.
         -6    2    1    2    0  502  0.52926908137E+02 -0.21215423700E+03 -0.70297591510E+02  0.28728550535E+03  0.17257036922E+03 0.  0.
        -24    2    5    5    0    0 -0.10243401653E+02 -0.12567948547E+03  0.16010862027E+02  0.14966425030E+03  0.79011263560E+02 0.  0.
          5    1    3    3  501    0 -0.15287399861E+02 -0.66452237963E+01 -0.19941122127E+03  0.20016190637E+03  0.47000000000E+01 0. -1.
        -11    1    4    4    0    0 -0.39689347849E+02  0.39453941655E+02 -0.11587779672E+03  0.12868380480E+03  0.00000000000E+00 0.  1.
         12    1    4    4    0    0  0.20498395729E+01  0.17934551914E+03 -0.40628176295E+03  0.44411022053E+03  0.00000000000E+00 0. -1.
         -5    1    5    5    0  502  0.63170309790E+02 -0.86474751531E+02 -0.86308453537E+02  0.13762125506E+03  0.47000000000E+01 0.  1.
         13    1    6    6    0    0 -0.20920329151E+00  0.59509009947E+01 -0.13180366888E+02  0.14463023888E+02  0.00000000000E+00 0. -1.
        -14    1    6    6    0    0 -0.10034198362E+02 -0.13163038646E+03  0.29191228916E+02  0.13520122641E+03  0.00000000000E+00 0.  1.
</event>
<event>
12    1  0.8747122E-002  0.1981952E+03  0.7818608E-02  0.1151798E+00
         21   -1    0    0  501  502  0.00000000000E+00  0.00000000000E+00  0.33570729946E+03  0.33570729946E+03  0.00000000000E+00 0.  1.
         21   -1    0    0  502  503 -0.00000000000E+00 -0.00000000000E+00 -0.13764561786E+03  0.13764561786E+03  0.00000000000E+00 0.  1.
         -6    2    1    2    0  503 -0.85752668029E+02 -0.45697349995E+02  0.47606245714E+01  0.19825238981E+03  0.17274136345E+03 0.  0.
        -24    2    3    3    0    0 -0.17980016563E+02  0.33355659067E+02  0.27296157078E+02  0.91610696488E+02  0.78813441317E+02 0.  0.
          6    2    1    2  501    0  0.85752668029E+02  0.45697349995E+02  0.19330105704E+03  0.27510052752E+03  0.16992125740E+03 0.  0.
         24    2    5    5    0    0  0.84110036746E+02  0.88917963000E+02  0.17477213771E+03  0.22781278621E+03  0.79827708326E+02 0.  0.
          5    1    5    5  501    0  0.16426312828E+01 -0.43220613005E+02  0.18528919325E+02  0.47287741302E+02  0.47000000000E+01 0. -1.
        -11    1    6    6    0    0  0.58117378348E+02  0.15178419677E+02  0.11373699290E+03  0.12862393885E+03  0.00000000000E+00 0.  1.
         12    1    6    6    0    0  0.25992658398E+02  0.73739543323E+02  0.61035144809E+02  0.99188847367E+02  0.00000000000E+00 0. -1.
         -5    1    3    3    0  503 -0.67772651466E+02 -0.79053009062E+02 -0.22535532507E+02  0.10664169332E+03  0.47000000000E+01 0.  1.
         11    1    4    4    0    0 -0.68366577841E+01  0.56423669955E-01  0.49562485823E+02  0.50031820617E+02  0.00000000000E+00 0. -1.
        -12    1    4    4    0    0 -0.11143358779E+02  0.33299235397E+02 -0.22266328745E+02  0.41578875871E+02  0.00000000000E+00 0.  1.
</event>
<event>
12    1  0.8747122E-002  0.2309892E+03  0.7818608E-02  0.1126006E+00
         21   -1    0    0  503  502  0.00000000000E+00  0.00000000000E+00  0.18295213530E+03  0.18295213530E+03  0.00000000000E+00 0. -1.
         21   -1    0    0  501  503 -0.00000000000E+00 -0.00000000000E+00 -0.71277353737E+03  0.71277353737E+03  0.00000000000E+00 0. -1.
          6    2    1    2  501    0  0.14657506487E+03  0.49690698746E+02 -0.60926210782E+03  0.65145768078E+03  0.17100695494E+03 0.  0.
         24    2    3    3    0    0  0.74021044337E+02  0.92985407218E+02 -0.42111558818E+03  0.44515760679E+03  0.81863027747E+02 0.  0.
         -6    2    1    2    0  502 -0.14657506487E+03 -0.49690698746E+02  0.79440705744E+02  0.24426799190E+03  0.17147189552E+03 0.  0.
        -24    2    5    5    0    0 -0.23514601338E+02 -0.43630516163E+02 -0.72298160958E+01  0.93554777965E+02  0.79016883148E+02 0.  0.
          5    1    3    3  501    0  0.72554020534E+02 -0.43294708472E+02 -0.18814651963E+03  0.20630007399E+03  0.47000000000E+01 0. -1.
        -11    1    4    4    0    0  0.30579291134E+02  0.14389153101E+02 -0.24647038240E+03  0.24877658687E+03  0.00000000000E+00 0.  1.
         12    1    4    4    0    0  0.43441753202E+02  0.78596254117E+02 -0.17464520578E+03  0.19638101992E+03  0.00000000000E+00 0. -1.
         -5    1    5    5    0  502 -0.12306046353E+03 -0.60601825831E+01  0.86670521840E+02  0.15071321393E+03  0.47000000000E+01 0.  1.
         13    1    6    6    0    0 -0.23368372030E+02  0.16042281796E+00  0.28628557746E+02  0.36955390208E+02  0.00000000000E+00 0. -1.
        -14    1    6    6    0    0 -0.14622930818E+00 -0.43790938981E+02 -0.35858373842E+02  0.56599387757E+02  0.00000000000E+00 0.  1.
</event>
<event>
12    1  0.8747122E-002  0.2188812E+03  0.7818608E-02  0.1134806E+00
         21   -1    0    0  501  502  0.00000000000E+00  0.00000000000E+00  0.14857823968E+03  0.14857823968E+03  0.00000000000E+00 0.  1.
         21   -1    0    0  502  503 -0.00000000000E+00 -0.00000000000E+00 -0.88741155248E+03  0.88741155248E+03  0.00000000000E+00 0. -1.
         -6    2    1    2    0  503  0.10326185067E+03 -0.86599345429E+02 -0.78310972427E+03  0.81312350524E+03  0.17247184728E+03 0.  0.
        -24    2    3    3    0    0  0.44778344494E+02 -0.86659300583E+02 -0.69226307815E+03  0.70497764448E+03  0.90831576745E+02 0.  0.
          6    2    1    2  501    0 -0.10326185067E+03  0.86599345429E+02  0.44276411469E+02  0.22286628691E+03  0.17189102593E+03 0.  0.
         24    2    5    5    0    0 -0.83351446633E+02  0.76440705269E+02  0.94647373720E+02  0.16755854787E+03  0.79543048321E+02 0.  0.
          5    1    5    5  501    0 -0.19910404037E+02  0.10158640160E+02 -0.50370962251E+02  0.55307739033E+02  0.47000000000E+01 0. -1.
        -13    1    6    6    0    0  0.78622112868E+01  0.17710924560E+02 -0.52588080064E+01  0.20078502851E+02  0.00000000000E+00 0.  1.
         14    1    6    6    0    0 -0.91213657919E+02  0.58729780709E+02  0.99906181726E+02  0.14748004502E+03  0.00000000000E+00 0. -1.
         -5    1    3    3    0  503  0.58483506175E+02  0.59955154173E-01 -0.90846646120E+02  0.10814586076E+03  0.47000000000E+01 0.  1.
         11    1    4    4    0    0 -0.25206421177E+02 -0.15357807665E+02 -0.97101383610E+02  0.10148844577E+03  0.00000000000E+00 0. -1.
        -12    1    4    4    0    0  0.69984765671E+02 -0.71301492919E+02 -0.59516169454E+03  0.60348919871E+03  0.00000000000E+00 0.  1.
</event>
<event>
12    1  0.8747122E-002  0.1976440E+03  0.7818608E-02  0.1151752E+00
         21   -1    0    0  501  502  0.00000000000E+00  0.00000000000E+00  0.54574128627E+03  0.54574128627E+03  0.00000000000E+00 0. -1.
         21   -1    0    0  502  503 -0.00000000000E+00 -0.00000000000E+00 -0.94090802598E+02  0.94090802598E+02  0.00000000000E+00 0. -1.
         -6    2    1    2    0  503 -0.50035743877E+02  0.84691939299E+02  0.38238857386E+03  0.43044647317E+03  0.17142591577E+03 0.  0.
        -24    2    3    3    0    0 -0.76997260404E+00  0.36093929368E+02  0.33608617640E+03  0.34705052124E+03  0.78656097842E+02 0.  0.
          6    2    1    2  501    0  0.50035743877E+02 -0.84691939299E+02  0.69261909804E+02  0.20938561569E+03  0.17137334583E+03 0.  0.
         24    2    5    5    0    0  0.88803395400E+02 -0.97794277085E+02  0.51423327142E+02  0.16449789920E+03  0.83459191243E+02 0.  0.
          5    1    5    5  501    0 -0.38767651523E+02  0.13102337786E+02  0.17838582662E+02  0.44887716487E+02  0.47000000000E+01 0. -1.
        -11    1    6    6    0    0 -0.11043972146E+02 -0.66017984278E+01  0.22946702647E+02  0.26307873833E+02  0.00000000000E+00 0.  1.
         12    1    6    6    0    0  0.99847367545E+02 -0.91192478657E+02  0.28476624495E+02  0.13819002537E+03  0.00000000000E+00 0. -1.
         -5    1    3    3    0  503 -0.49265771273E+02  0.48598009931E+02  0.46302397460E+02  0.83395951933E+02  0.47000000000E+01 0.  1.
         11    1    4    4    0    0 -0.11243364455E+01  0.60429832123E+02  0.20500568028E+03  0.21372963690E+03  0.00000000000E+00 0. -1.
        -12    1    4    4    0    0  0.35436384151E+00 -0.24335902755E+02  0.13108049613E+03  0.13332088434E+03  0.00000000000E+00 0.  1.
</event>
<event>
12    1  0.8747122E-002  0.1995206E+03  0.7818608E-02  0.1150420E+00
         21   -1    0    0  501  502  0.00000000000E+00  0.00000000000E+00  0.82988341547E+02  0.82988341547E+02  0.00000000000E+00 0. -1.
         21   -1    0    0  502  503 -0.00000000000E+00 -0.00000000000E+00 -0.58963108885E+03  0.58963108885E+03  0.00000000000E+00 0. -1.
         -6    2    1    2    0  503  0.83484000508E+02 -0.47950397215E+02 -0.39991838001E+03  0.44634847722E+03  0.17327271429E+03 0.  0.
        -24    2    3    3    0    0  0.85625182292E+02 -0.50131143389E+01 -0.38186864296E+03  0.39948614771E+03  0.80054472551E+02 0.  0.
          6    2    1    2  501    0 -0.83484000508E+02  0.47950397215E+02 -0.10672436730E+03  0.22627095318E+03  0.17475592906E+03 0.  0.
         24    2    5    5    0    0  0.15661431662E+02  0.50670493200E+02 -0.30876273725E+02  0.10132200784E+03  0.80622736686E+02 0.  0.
          5    1    5    5  501    0 -0.99145432170E+02 -0.27200959850E+01 -0.75848093570E+02  0.12494894534E+03  0.47000000000E+01 0. -1.
        -11    1    6    6    0    0  0.19387123013E+02 -0.17914760755E+02 -0.99044544969E+00  0.26415529028E+02  0.00000000000E+00 0.  1.
         12    1    6    6    0    0 -0.37256913515E+01  0.68585253956E+02 -0.29885828276E+02  0.74906478811E+02  0.00000000000E+00 0. -1.
         -5    1    3    3    0  503 -0.21411817838E+01 -0.42937282876E+02 -0.18049737051E+02  0.46862329518E+02  0.47000000000E+01 0.  1.
         13    1    4    4    0    0  0.15289967116E+02 -0.31502857926E+02 -0.19411563066E+03  0.19724880537E+03  0.00000000000E+00 0. -1.
        -14    1    4    4    0    0  0.70335215175E+02  0.26489743587E+02 -0.18775301230E+03  0.20223734234E+03  0.00000000000E+00 0.  1.
</event>
<event>
12    1  0.8747122E-002  0.2151373E+03  0.7818608E-02  0.1137654E+00
         21   -1    0    0  503  502  0.00000000000E+00  0.00000000000E+00  0.16467408355E+04  0.16467408355E+04  0.00000000000E+00 0. -1.
         21   -1    0    0  501  503 -0.00000000000E+00 -0.00000000000E+00 -0.78412422854E+02  0.78412422854E+02  0.00000000000E+00 0. -1.
          6    2    1    2  501    0 -0.96274024919E+02  0.84474073809E+02  0.93146730776E+02  0.23443632083E+03  0.17285692943E+03 0.  0.
         24    2    3    3    0    0 -0.55973090493E+02  0.12411819886E+03  0.79021582779E+02  0.17597751677E+03  0.78647070623E+02 0.  0.
         -6    2    1    2    0  502  0.96274024919E+02 -0.84474073809E+02  0.14751816819E+04  0.14907169375E+04  0.17225398767E+03 0.  0.
        -24    2    5    5    0    0  0.20537740169E+02 -0.19389332078E+02  0.10703996864E+04  0.10737726219E+04  0.80214774380E+02 0.  0.
          5    1    3    3  501    0 -0.40300934427E+02 -0.39644125047E+02  0.14125147997E+02  0.58458804062E+02  0.47000000000E+01 0. -1.
        -11    1    4    4    0    0  0.11849420702E+02  0.37881217591E+01  0.24502921617E+02  0.27480025568E+02  0.00000000000E+00 0.  1.
         12    1    4    4    0    0 -0.67822511195E+02  0.12033007710E+03  0.54518661162E+02  0.14849749120E+03  0.00000000000E+00 0. -1.
         -5    1    5    5    0  502  0.75736284750E+02 -0.65084741731E+02  0.40478199551E+03  0.41694431561E+03  0.47000000000E+01 0.  1.
         11    1    6    6    0    0  0.35985718281E+02  0.18913918154E+02  0.67462066833E+03  0.67584447498E+03  0.00000000000E+00 0. -1.
        -12    1    6    6    0    0 -0.15447978113E+02 -0.38303250231E+02  0.39577901805E+03  0.39792814695E+03  0.00000000000E+00 0.  1.
</event>
<event>
12    1  0.8747122E-002  0.1893438E+03  0.7818608E-02  0.1159123E+00
         21   -1    0    0  503  502  0.00000000000E+00  0.00000000000E+00  0.31982853379E+02  0.31982853379E+02  0.00000000000E+00 0. -1.
         21   -1    0    0  501  503 -0.00000000000E+00 -0.00000000000E+00 -0.12653659832E+04  0.12653659832E+04  0.00000000000E+00 0. -1.
          6    2    1    2  501    0 -0.69138912478E+01 -0.72432652659E+02 -0.83675442863E+03  0.85784296834E+03  0.17447720034E+03 0.  0.
         24    2    3    3    0    0 -0.70413512413E+02 -0.29629092658E+02 -0.54395227584E+03  0.55515577450E+03  0.80485462712E+02 0.  0.
         -6    2    1    2    0  502  0.69138912478E+01  0.72432652659E+02 -0.39662870124E+03  0.43950586829E+03  0.17480500722E+03 0.  0.
        -24    2    5    5    0    0 -0.14289033577E+02 -0.23510990044E+02 -0.20298182576E+03  0.22230561741E+03  0.86378370044E+02 0.  0.
          5    1    3    3  501    0  0.63499621165E+02 -0.42803560000E+02 -0.29280215279E+03  0.30268719384E+03  0.47000000000E+01 0. -1.
        -11    1    4    4    0    0 -0.14621813141E+02  0.17714454703E+02 -0.41755420056E+02  0.47656210812E+02  0.00000000000E+00 0.  1.
         12    1    4    4    0    0 -0.55791699272E+02 -0.47343547361E+02 -0.50219685579E+03  0.50749956369E+03  0.00000000000E+00 0. -1.
         -5    1    5    5    0  502  0.21202924825E+02  0.95943642702E+02 -0.19364687548E+03  0.21720025087E+03  0.47000000000E+01 0.  1.
         11    1    6    6    0    0 -0.50541824252E+01  0.15904195908E+02 -0.16792915897E+03  0.16875630548E+03  0.00000000000E+00 0. -1.
        -12    1    6    6    0    0 -0.92348511520E+01 -0.39415185951E+02 -0.35052666792E+02  0.53549311934E+02  0.00000000000E+00 0.  1.
</event>
<event>
12    1  0.8747122E-002  0.1733324E+03  0.7818608E-02  0.1175710E+00
         21   -1    0    0  501  502  0.00000000000E+00  0.00000000000E+00  0.15620688775E+03  0.15620688775E+03  0.00000000000E+00 0. -1.
         21   -1    0    0  502  503 -0.00000000000E+00 -0.00000000000E+00 -0.18719148411E+03  0.18719148411E+03  0.00000000000E+00 0. -1.
         -6    2    1    2    0  503  0.69379398926E+01  0.21483147766E+01 -0.23375316997E+02  0.17490151288E+03  0.17318020527E+03 0.  0.
        -24    2    3    3    0    0 -0.51737058584E+02 -0.10341908225E+02 -0.51189977405E+02  0.10861043919E+03  0.79950831253E+02 0.  0.
          6    2    1    2  501    0 -0.69379398926E+01 -0.21483147766E+01 -0.76092793601E+01  0.16849685899E+03  0.16816818989E+03 0.  0.
         24    2    5    5    0    0 -0.54584605181E+02 -0.14077719460E+02  0.32791808354E+02  0.10472497413E+03  0.81941175268E+02 0.  0.
          5    1    5    5  501    0  0.47646665288E+02  0.11929404684E+02 -0.40401087715E+02  0.63771884853E+02  0.47000000000E+01 0. -1.
        -11    1    6    6    0    0  0.20167131558E+02  0.61050032520E+01  0.13172616086E+02  0.24849589022E+02  0.00000000000E+00 0.  1.
         12    1    6    6    0    0 -0.74751736739E+02 -0.20182722712E+02  0.19619192269E+02  0.79875385113E+02  0.00000000000E+00 0. -1.
         -5    1    3    3    0  503  0.58674998477E+02  0.12490223002E+02  0.27814660408E+02  0.66291073687E+02  0.47000000000E+01 0.  1.
         11    1    4    4    0    0  0.20077377605E+02 -0.58303681652E+01 -0.10979810726E+01  0.20935611930E+02  0.00000000000E+00 0. -1.
        -12    1    4    4    0    0 -0.71814436190E+02 -0.45115400598E+01 -0.50091996332E+02  0.87674827262E+02  0.00000000000E+00 0.  1.
</event>
<event>
12    1  0.8747122E-002  0.2713646E+03  0.7818608E-02  0.1100687E+00
         21   -1    0    0  501  502  0.00000000000E+00  0.00000000000E+00  0.16330644308E+03  0.16330644308E+03  0.00000000000E+00 0. -1.
         21   -1    0    0  502  503 -0.00000000000E+00 -0.00000000000E+00 -0.45871343626E+03  0.45871343626E+03  0.00000000000E+00 0.  1.
         -6    2    1    2    0  503  0.18268240901E+03  0.10349777256E+03 -0.10154393464E+03  0.28852078706E+03  0.16984823348E+03 0.  0.
        -24    2    3    3    0    0  0.13471716060E+03  0.32367749158E+02 -0.12040945270E+03  0.20055407145E+03  0.80790560885E+02 0.  0.
          6    2    1    2  501    0 -0.18268240901E+03 -0.10349777256E+03 -0.19386305854E+03  0.33349909228E+03  0.17191308152E+03 0.  0.
         24    2    5    5    0    0 -0.15150975058E+03 -0.14148498682E+03 -0.15725557455E+03  0.27204210760E+03  0.79400167287E+02 0.  0.
          5    1    5    5  501    0 -0.31172658432E+02  0.37987214268E+02 -0.36607483998E+02  0.61456984682E+02  0.47000000000E+01 0. -1.
        -11    1    6    6    0    0 -0.12724083763E+03 -0.70182450271E+02 -0.89037076037E+02  0.17042126627E+03  0.00000000000E+00 0.  1.
         12    1    6    6    0    0 -0.24268912948E+02 -0.71302536553E+02 -0.68218498509E+02  0.10162084133E+03  0.00000000000E+00 0. -1.
         -5    1    3    3    0  503  0.47965248410E+02  0.71130023398E+02  0.18865518066E+02  0.87966715612E+02  0.47000000000E+01 0.  1.
         13    1    4    4    0    0 -0.35579101760E+01  0.17535642665E+02 -0.21873972327E+01  0.18026153087E+02  0.00000000000E+00 0. -1.
        -14    1    4    4    0    0  0.13827507078E+03  0.14832106493E+02 -0.11822205547E+03  0.18252791836E+03  0.00000000000E+00 0.  1.
</event>
<event>
12    1  0.8747122E-002  0.1856372E+03  0.7818608E-02  0.1162722E+00
         21   -1    0    0  501  502  0.00000000000E+00  0.00000000000E+00  0.47527649187E+03  0.47527649187E+03  0.00000000000E+00 0. -1.
         21   -1    0    0  502  503 -0.00000000000E+00 -0.00000000000E+00 -0.14810672895E+03  0.14810672895E+03  0.00000000000E+00 0. -1.
         -6    2    1    2    0  503  0.59983568094E+02 -0.33149742318E+02 -0.59511607206E+02  0.19494305500E+03  0.17252312728E+03 0.  0.
        -24    2    3    3    0    0  0.66617350928E+02  0.31726031464E+02 -0.39330849619E+01  0.10912968056E+03  0.80308190771E+02 0.  0.
          6    2    1    2  501    0 -0.59983568094E+02  0.33149742318E+02  0.38668137013E+03  0.42844016582E+03  0.17129378222E+03 0.  0.
         24    2    5    5    0    0 -0.33223497995E+02  0.76986986648E+02  0.17506556792E+03  0.21063028752E+03  0.81770214728E+02 0.  0.
          5    1    5    5  501    0 -0.26760070099E+02 -0.43837244330E+02  0.21161580220E+03  0.21780987830E+03  0.47000000000E+01 0. -1.
        -11    1    6    6    0    0 -0.37057119522E+02  0.35287294769E+02  0.29292263392E+02  0.58961512651E+02  0.00000000000E+00 0.  1.
         12    1    6    6    0    0  0.38336215269E+01  0.41699691879E+02  0.14577330453E+03  0.15166877487E+03  0.00000000000E+00 0. -1.
         -5    1    3    3    0  503 -0.66337828347E+01 -0.64875773782E+02 -0.55578522244E+02  0.85813374443E+02  0.47000000000E+01 0.  1.
         13    1    4    4    0    0  0.45859236695E+02 -0.15608587828E+02 -0.23527580643E+02  0.53853919590E+02  0.00000000000E+00 0. -1.
        -14    1    4    4    0    0  0.20758114233E+02  0.47334619292E+02  0.19594495681E+02  0.55275760972E+02  0.00000000000E+00 0.  1.
</event>
<event>
12    1  0.8747122E-002  0.1773346E+03  0.7818608E-02  0.1170523E+00
         21   -1    0    0  503  502  0.00000000000E+00  0.00000000000E+00  0.25629188959E+02  0.25629188959E+02  0.00000000000E+00 0. -1.
         21   -1    0    0  501  503 -0.00000000000E+00 -0.00000000000E+00 -0.14101019124E+04  0.14101019124E+04  0.00000000000E+00 0. -1.
          6    2    1    2  501    0  0.28616511824E+02 -0.30525332279E+02 -0.95237394306E+03  0.96865837702E+03  0.17184942038E+03 0.  0.
         24    2    3    3    0    0 -0.17908684475E+02 -0.54735923483E+02 -0.82535010909E+03  0.83115240983E+03  0.79339671550E+02 0.  0.
         -6    2    1    2    0  502 -0.28616511824E+02  0.30525332279E+02 -0.43209878034E+03  0.46707272430E+03  0.17232780726E+03 0.  0.
        -24    2    5    5    0    0 -0.20373217130E+02 -0.49391964243E+02 -0.25410284369E+03  0.27172849056E+03  0.80084226319E+02 0.  0.
          5    1    3    3  501    0  0.46525196299E+02  0.24210591204E+02 -0.12702383397E+03  0.13750596719E+03  0.47000000000E+01 0. -1.
        -11    1    4    4    0    0 -0.33304437976E+02 -0.32079128158E+02 -0.20301206944E+03  0.20821180656E+03  0.00000000000E+00 0.  1.
         12    1    4    4    0    0  0.15395753500E+02 -0.22656795325E+02 -0.62233803965E+03  0.62294060327E+03  0.00000000000E+00 0. -1.
         -5    1    5    5    0  502 -0.82432946939E+01  0.79917296522E+02 -0.17799593665E+03  0.19534423374E+03  0.47000000000E+01 0.  1.
         13    1    6    6    0    0 -0.30933619912E+02  0.82279411997E+01 -0.49855422618E+02  0.59246527507E+02  0.00000000000E+00 0. -1.
        -14    1    6    6    0    0  0.10560402782E+02 -0.57619905443E+02 -0.20424742107E+03  0.21248196306E+03  0.00000000000E+00 0.  1.
</event>
<event>
12    1  0.8747122E-002  0.2135310E+03  0.7818608E-02  0.1139321E+00
         21   -1    0    0  503  502  0.00000000000E+00  0.00000000000E+00  0.14697815887E+03  0.14697815887E+03  0.00000000000E+00 0. -1.
         21   -1    0    0  501  503 -0.00000000000E+00 -0.00000000000E+00 -0.49145846196E+03  0.49145846196E+03  0.00000000000E+00 0. -1.
          6    2    1    2  501    0  0.76992052868E+01 -0.12284010986E+03 -0.36882159674E+03  0.42617466626E+03  0.17448927068E+03 0.  0.
         24    2    3    3    0    0 -0.19805709057E+02  0.32221253437E+01 -0.13247966927E+03  0.15686479986E+03  0.81566258114E+02 0.  0.
         -6    2    1    2    0  502 -0.76992052868E+01  0.12284010986E+03  0.24341293653E+02  0.21226195457E+03  0.17121234894E+03 0.  0.
        -24    2    5    5    0    0 -0.72035890265E+02  0.76212880986E+02  0.30003575842E+02  0.13246559535E+03  0.75162135896E+02 0.  0.
          5    1    3    3  501    0  0.27504914344E+02 -0.12606223520E+03 -0.23634192747E+03  0.26930986639E+03  0.47000000000E+01 0. -1.
        -11    1    4    4    0    0  0.13669973491E+02  0.28323323941E+01 -0.12050308617E+03  0.12130904360E+03  0.00000000000E+00 0.  1.
         12    1    4    4    0    0 -0.33475682548E+02  0.38979294960E+00 -0.11976583096E+02  0.35555756260E+02  0.00000000000E+00 0. -1.
         -5    1    5    5    0  502  0.64336684978E+02  0.46627228870E+02 -0.56622821886E+01  0.79796359226E+02  0.47000000000E+01 0.  1.
         13    1    6    6    0    0  0.28918076313E+01  0.48621161551E+02  0.16871801384E+02  0.51546460440E+02  0.00000000000E+00 0. -1.
        -14    1    6    6    0    0 -0.74927697896E+02  0.27591719435E+02  0.13131774457E+02  0.80919134905E+02  0.00000000000E+00 0.  1.
</event>
<event>
12    1  0.8747122E-002  0.1813233E+03  0.7818608E-02  0.1166883E+00
         21   -1    0    0  503  502  0.00000000000E+00  0.00000000000E+00  0.11017148025E+04  0.11017148025E+04  0.00000000000E+00 0. -1.
         21   -1    0    0  501  503 -0.00000000000E+00 -0.00000000000E+00 -0.64936321355E+02  0.64936321355E+02  0.00000000000E+00 0. -1.
          6    2    1    2  501    0  0.49700993576E+02  0.23027338534E+02  0.89052568367E+02  0.20201113293E+03  0.17285164394E+03 0.  0.
         24    2    3    3    0    0  0.36523274732E+02 -0.11483789186E+02  0.12280511552E+03  0.15175185867E+03  0.80509025588E+02 0.  0.
         -6    2    1    2    0  502 -0.49700993576E+02 -0.23027338534E+02  0.94772591276E+03  0.96463999091E+03  0.17130516411E+03 0.  0.
        -24    2    5    5    0    0 -0.35621429325E+02 -0.50749710745E+02  0.90964007954E+03  0.91524986291E+03  0.79955099264E+02 0.  0.
          5    1    3    3  501    0  0.13177718844E+02  0.34511127719E+02 -0.33752547150E+02  0.50259274264E+02  0.47000000000E+01 0. -1.
        -13    1    4    4    0    0  0.61128855397E+02 -0.12326371147E+02  0.10183692844E+03  0.11941288198E+03  0.00000000000E+00 0.  1.
         14    1    4    4    0    0 -0.24605580665E+02  0.84258196131E+00  0.20968187074E+02  0.32338976690E+02  0.00000000000E+00 0. -1.
         -5    1    5    5    0  502 -0.14079564251E+02  0.27722372211E+02  0.38085833228E+02  0.49390127993E+02  0.47000000000E+01 0.  1.
         13    1    6    6    0    0 -0.31241289266E+02  0.87711436339E+01  0.16117292231E+03  0.16440700107E+03  0.00000000000E+00 0. -1.
        -14    1    6    6    0    0 -0.43801400596E+01 -0.59520854379E+02  0.74846715723E+03  0.75084286185E+03  0.00000000000E+00 0.  1.
</event>
<event>
12    1  0.8747122E-002  0.1793205E+03  0.7818608E-02  0.1168492E+00
         21   -1    0    0  501  502  0.00000000000E+00  0.00000000000E+00  0.50950706033E+02  0.50950706033E+02  0.00000000000E+00 0. -1.
         21   -1    0    0  502  503 -0.00000000000E+00 -0.00000000000E+00 -0.98573530591E+03  0.98573530591E+03  0.00000000000E+00 0. -1.
         -6    2    1    2    0  503  0.11838044380E+02  0.48168264997E+02 -0.77858269999E+03  0.79896612715E+03  0.17232391173E+03 0.  0.
        -24    2    3    3    0    0 -0.32192231460E+01  0.22337034332E+02 -0.75689500767E+03  0.76173146881E+03  0.82676909993E+02 0.  0.
          6    2    1    2  501    0 -0.11838044380E+02 -0.48168264997E+02 -0.15620189988E+03  0.23771988479E+03  0.17219578697E+03 0.  0.
         24    2    5    5    0    0  0.38265071912E+02  0.19958506784E+02 -0.10321979551E+03  0.13781606765E+03  0.80475987700E+02 0.  0.
          5    1    5    5  501    0 -0.50103116291E+02 -0.68126771781E+02 -0.52982104367E+02  0.99903817137E+02  0.47000000000E+01 0. -1.
        -13    1    6    6    0    0 -0.12321539469E+02 -0.11553616855E+02 -0.64662877630E+02  0.66832582927E+02  0.00000000000E+00 0.  1.
         14    1    6    6    0    0  0.50586611381E+02  0.31512123639E+02 -0.38556917883E+02  0.70983484727E+02  0.00000000000E+00 0. -1.
         -5    1    3    3    0  503  0.15057267526E+02  0.25831230665E+02 -0.21687692327E+02  0.37234658337E+02  0.47000000000E+01 0.  1.
         11    1    4    4    0    0  0.30223139328E+02  0.36579727498E+02 -0.34724562457E+03  0.35047259294E+03  0.00000000000E+00 0. -1.
        -12    1    4    4    0    0 -0.33442362474E+02 -0.14242693166E+02 -0.40964938309E+03  0.41125887588E+03  0.00000000000E+00 0.  1.
</event>
<event>
12    1  0.8747122E-002  0.2045730E+03  0.7818608E-02  0.1147027E+00
         21   -1    0    0  503  502  0.00000000000E+00  0.00000000000E+00  0.19928347430E+03  0.19928347430E+03  0.00000000000E+00 0. -1.
         21   -1    0    0  501  503 -0.00000000000E+00 -0.00000000000E+00 -0.27598996081E+03  0.27598996081E+03  0.00000000000E+00 0.  1.
          6    2    1    2  501    0 -0.10476690027E+03 -0.26618771594E+02 -0.15879344519E+03  0.25484573418E+03  0.16747037827E+03 0.  0.
         24    2    3    3    0    0 -0.12703450510E+03 -0.57873381711E+02 -0.12800068556E+03  0.20541921373E+03  0.79534797837E+02 0.  0.
         -6    2    1    2    0  502  0.10476690027E+03  0.26618771594E+02  0.82086958674E+02  0.22042770093E+03  0.17368200874E+03 0.  0.
        -24    2    5    5    0    0  0.12061700650E+03  0.62634869772E+01  0.10884649520E+03  0.18296136572E+03  0.83902373632E+02 0.  0.
          5    1    3    3  501    0  0.22267604827E+02  0.31254610117E+02 -0.30792759626E+02  0.49426520449E+02  0.47000000000E+01 0. -1.
        -13    1    4    4    0    0 -0.14777655493E+02 -0.42698247373E+02 -0.52598661702E+02  0.69340743027E+02  0.00000000000E+00 0.  1.
         14    1    4    4    0    0 -0.11225684961E+03 -0.15175134338E+02 -0.75402023860E+02  0.13607847070E+03  0.00000000000E+00 0. -1.
         -5    1    5    5    0  502 -0.15850106224E+02  0.20355284617E+02 -0.26759536529E+02  0.37466335214E+02  0.47000000000E+01 0.  1.
         13    1    6    6    0    0  0.18250420710E+02 -0.60784769436E+01  0.70299219059E+02  0.72883509372E+02  0.00000000000E+00 0. -1.
        -14    1    6    6    0    0  0.10236658579E+03  0.12341963921E+02  0.38547276145E+02  0.11007785634E+03  0.00000000000E+00 0.  1.
</event>
<event>
12    1  0.8747122E-002  0.2023378E+03  0.7818608E-02  0.1147904E+00
         21   -1    0    0  503  502  0.00000000000E+00  0.00000000000E+00  0.59705822124E+03  0.59705822124E+03  0.00000000000E+00 0.  1.
         21   -1    0    0  501  503 -0.00000000000E+00 -0.00000000000E+00 -0.16606396494E+03  0.16606396494E+03  0.00000000000E+00 0.  1.
          6    2    1    2  501    0  0.84632012847E+02  0.65703076782E+02 -0.77289362349E+02  0.21604557124E+03  0.17094610678E+03 0.  0.
         24    2    3    3    0    0  0.11079865548E+03  0.28335500169E+02 -0.92700525150E+02  0.16766558667E+03  0.80244121055E+02 0.  0.
         -6    2    1    2    0  502 -0.84632012847E+02 -0.65703076782E+02  0.50828361865E+03  0.54707661493E+03  0.17164240070E+03 0.  0.
        -24    2    5    5    0    0 -0.19956830692E+02 -0.34660470902E+02  0.93902013998E+02  0.12650471045E+03  0.74741087751E+02 0.  0.
          5    1    3    3  501    0 -0.26166642630E+02  0.37367576613E+02  0.15411162802E+02  0.48379984574E+02  0.47000000000E+01 0. -1.
        -11    1    4    4    0    0  0.92778764447E+02  0.10663980957E+02 -0.26893698988E+02  0.97184827352E+02  0.00000000000E+00 0.  1.
         12    1    4    4    0    0  0.18019891030E+02  0.17671519212E+02 -0.65806826163E+02  0.70480759315E+02  0.00000000000E+00 0. -1.
         -5    1    5    5    0  502 -0.64675182155E+02 -0.31042605880E+02  0.41438160465E+03  0.42057190448E+03  0.47000000000E+01 0.  1.
         11    1    6    6    0    0 -0.35364406765E+02  0.75541846971E+01  0.23992708019E+02  0.43397661347E+02  0.00000000000E+00 0. -1.
        -12    1    6    6    0    0  0.15407576073E+02 -0.42214655600E+02  0.69909305979E+02  0.83107049101E+02  0.00000000000E+00 0.  1.
</event>
<event>
12    1  0.8747122E-002  0.2189908E+03  0.7818608E-02  0.1134982E+00
         21   -1    0    0  503  502  0.00000000000E+00  0.00000000000E+00  0.90485592888E+02  0.90485592888E+02  0.00000000000E+00 0.  1.
         21   -1    0    0  501  503 -0.00000000000E+00 -0.00000000000E+00 -0.82566950720E+03  0.82566950720E+03  0.00000000000E+00 0.  1.
          6    2    1    2  501    0 -0.12646314404E+03 -0.44330129579E+02 -0.64473078524E+03  0.68090730664E+03  0.17320186952E+03 0.  0.
         24    2    3    3    0    0 -0.55289646682E+02 -0.22595607305E+02 -0.55591844919E+03  0.56494275507E+03  0.80916548724E+02 0.  0.
         -6    2    1    2    0  502  0.12646314404E+03  0.44330129579E+02 -0.90453129075E+02  0.23524779346E+03  0.17088495714E+03 0.  0.
        -24    2    5    5    0    0 -0.47264651832E+01 -0.12645884239E+02 -0.66332534151E+02  0.90124146799E+02  0.59498730138E+02 0.  0.
          5    1    3    3  501    0 -0.71173497360E+02 -0.21734522274E+02 -0.88812336050E+02  0.11596455156E+03  0.47000000000E+01 0. -1.
        -11    1    4    4    0    0 -0.64673520452E+02 -0.42724680546E+02 -0.46016387213E+03  0.46664638838E+03  0.00000000000E+00 0.  1.
         12    1    4    4    0    0  0.93838737696E+01  0.20129073241E+02 -0.95754577064E+02  0.98296366694E+02  0.00000000000E+00 0. -1.
         -5    1    5    5    0  502  0.13118960923E+03  0.56976013817E+02 -0.24120594924E+02  0.14512364666E+03  0.47000000000E+01 0.  1.
         11    1    6    6    0    0 -0.10856144410E+02  0.14854631667E+02 -0.57841340837E+02  0.60697089413E+02  0.00000000000E+00 0. -1.
        -12    1    6    6    0    0  0.61296792271E+01 -0.27500515906E+02 -0.84911933148E+01  0.29427057386E+02  0.00000000000E+00 0.  1.
</event>
<event>
12    1  0.8747122E-002  0.1895502E+03  0.7818608E-02  0.1161315E+00
         21   -1    0    0  501  502  0.00000000000E+00  0.00000000000E+00  0.63953383488E+03  0.63953383488E+03  0.00000000000E+00 0.  1.
         21   -1    0    0  502  503 -0.00000000000E+00 -0.00000000000E+00 -0.53487548103E+02  0.53487548103E+02  0.00000000000E+00 0.  1.
         -6    2    1    2    0  503  0.27896200252E+02  0.42795164515E+02  0.25572932912E+03  0.31218206449E+03  0.17161155998E+03 0.  0.
        -24    2    3    3    0    0  0.82922127414E+02  0.14833878741E+02  0.17030906174E+03  0.20669084096E+03  0.81362178261E+02 0.  0.
          6    2    1    2  501    0 -0.27896200252E+02 -0.42795164515E+02  0.33031695765E+03  0.38083931849E+03  0.18253676316E+03 0.  0.
         24    2    5    5    0    0  0.36750304136E+02  0.65815102441E+01  0.24823055492E+03  0.26517820120E+03  0.85481979771E+02 0.  0.
          5    1    5    5  501    0 -0.64646504388E+02 -0.49376674759E+02  0.82086402734E+02  0.11566111729E+03  0.47000000000E+01 0. -1.
        -13    1    6    6    0    0  0.51363844634E+02 -0.25979354198E+02  0.15644862895E+03  0.16670136436E+03  0.00000000000E+00 0.  1.
         14    1    6    6    0    0 -0.14613540497E+02  0.32560864442E+02  0.91781925965E+02  0.98476836834E+02  0.00000000000E+00 0. -1.
         -5    1    3    3    0  503 -0.55025927162E+02  0.27961285774E+02  0.85420267381E+02  0.10549122353E+03  0.47000000000E+01 0.  1.
         13    1    4    4    0    0 -0.50643112540E+00 -0.18577566482E+02  0.68100207101E+02  0.70590513924E+02  0.00000000000E+00 0. -1.
        -14    1    4    4    0    0  0.83428558539E+02  0.33411445223E+02  0.10220885464E+03  0.13610032704E+03  0.00000000000E+00 0.  1.
</event>
<event>
12    1  0.8747122E-002  0.2387871E+03  0.7818608E-02  0.1120924E+00
         21   -1    0    0  501  502  0.00000000000E+00  0.00000000000E+00  0.15424092984E+03  0.15424092984E+03  0.00000000000E+00 0. -1.
         21   -1    0    0  502  503 -0.00000000000E+00 -0.00000000000E+00 -0.37362255463E+03  0.37362255463E+03  0.00000000000E+00 0. -1.
         -6    2    1    2    0  503  0.16353547854E+03 -0.10986352227E+02 -0.14509848639E+03  0.27778898889E+03  0.17102221761E+03 0.  0.
        -24    2    3    3    0    0  0.12150066544E+03  0.55645597595E+02 -0.81185100782E+02  0.17623233913E+03  0.81289436782E+02 0.  0.
          6    2    1    2  501    0 -0.16353547854E+03  0.10986352227E+02 -0.74283138401E+02  0.25007449558E+03  0.17365113305E+03 0.  0.
         24    2    5    5    0    0 -0.10379693487E+03  0.24188616665E+02  0.22595215424E+02  0.13539887120E+03  0.80395383560E+02 0.  0.
          5    1    5    5  501    0 -0.59738543679E+02 -0.13202264438E+02 -0.96878353825E+02  0.11467562438E+03  0.47000000000E+01 0. -1.
        -11    1    6    6    0    0 -0.35928818601E+02  0.48167677417E+02  0.46302401190E+00  0.60093423475E+02  0.00000000000E+00 0.  1.
         12    1    6    6    0    0 -0.67868116265E+02 -0.23979060752E+02  0.22132191412E+02  0.75305447722E+02  0.00000000000E+00 0. -1.
         -5    1    3    3    0  503  0.42034813101E+02 -0.66631949822E+02 -0.63913385611E+02  0.10155664976E+03  0.47000000000E+01 0.  1.
         13    1    4    4    0    0  0.39302198764E+02 -0.13082116112E+02  0.62204153665E+00  0.41426942022E+02  0.00000000000E+00 0. -1.
        -14    1    4    4    0    0  0.82198466680E+02  0.68727713707E+02 -0.81807142319E+02  0.13480539711E+03  0.00000000000E+00 0.  1.
</event>
<event>
12    1  0.8747122E-002  0.2540831E+03  0.7818608E-02  0.1110790E+00
         21   -1    0    0  501  502  0.00000000000E+00  0.00000000000E+00  0.14561496622E+04  0.14561496622E+04  0.00000000000E+00 0. -1.
         21   -1    0    0  502  503 -0.00000000000E+00 -0.00000000000E+00 -0.55112271044E+02  0.55112271044E+02  0.00000000000E+00 0.  1.
         -6    2    1    2    0  503  0.17656254507E+02 -0.18590610275E+03  0.10350703754E+04  0.10657396932E+04  0.17192320763E+03 0.  0.
        -24    2    3    3    0    0  0.77326249115E+02 -0.10596954807E+03  0.65278912632E+03  0.67063033567E+03  0.80015684442E+02 0.  0.
          6    2    1    2  501    0 -0.17656254507E+02  0.18590610275E+03  0.36596701576E+03  0.44552224002E+03  0.17229447864E+03 0.  0.
         24    2    5    5    0    0 -0.17513722000E+01  0.98228467704E+02  0.89252184095E+02  0.15477575074E+03  0.79609556457E+02 0.  0.
          5    1    5    5  501    0 -0.15904882307E+02  0.87677635042E+02  0.27671483166E+03  0.29074648928E+03  0.47000000000E+01 0. -1.
        -13    1    6    6    0    0  0.32753522544E+02  0.14932902979E+02  0.20794861326E+02  0.41571758298E+02  0.00000000000E+00 0.  1.
         14    1    6    6    0    0 -0.34504894744E+02  0.83295564725E+02  0.68457322769E+02  0.11320399244E+03  0.00000000000E+00 0. -1.
         -5    1    3    3    0  503 -0.59669994608E+02 -0.79936554678E+02  0.38228124910E+03  0.39510935758E+03  0.47000000000E+01 0.  1.
         13    1    4    4    0    0  0.53524696700E+02 -0.11546474452E+03  0.51612342168E+03  0.53158290679E+03  0.00000000000E+00 0. -1.
        -14    1    4    4    0    0  0.23801552415E+02  0.94951964523E+01  0.13666570464E+03  0.13904742888E+03  0.00000000000E+00 0.  1.
</event>
<event>
12    1  0.8747122E-002  0.2636131E+03  0.7818608E-02  0.1106280E+00
         21   -1    0    0  501  502  0.00000000000E+00  0.00000000000E+00  0.44776482068E+03  0.44776482068E+03  0.00000000000E+00 0. -1.
         21   -1    0    0  502  503 -0.00000000000E+00 -0.00000000000E+00 -0.15914973501E+03  0.15914973501E+03  0.00000000000E+00 0. -1.
         -6    2    1    2    0  503  0.45236483022E+02 -0.18432309216E+03  0.70056885393E+02  0.26448275713E+03  0.17035791713E+03 0.  0.
        -24    2    3    3    0    0  0.22298275373E+02 -0.14179762779E+03 -0.23908465019E+02  0.15871814316E+03  0.63372343644E+02 0.  0.
          6    2    1    2  501    0 -0.45236483022E+02  0.18432309216E+03  0.21855820027E+03  0.34243179856E+03  0.18294946860E+03 0.  0.
         24    2    5    5    0    0  0.49539177903E+02  0.10050348998E+03  0.10899281936E+03  0.17499579793E+03  0.78670280127E+02 0.  0.
          5    1    5    5  501    0 -0.94775660925E+02  0.83819602185E+02  0.10956538091E+03  0.16743600063E+03  0.47000000000E+01 0. -1.
        -11    1    6    6    0    0  0.44055704150E+02  0.38985652587E+02  0.12049053202E+02  0.60049694910E+02  0.00000000000E+00 0.  1.
         12    1    6    6    0    0  0.54834737529E+01  0.61517837389E+02  0.96943766162E+02  0.11494610302E+03  0.00000000000E+00 0. -1.
         -5    1    3    3    0  503  0.22938207649E+02 -0.42525464375E+02  0.93965350412E+02  0.10576461397E+03  0.47000000000E+01 0.  1.
         11    1    4    4    0    0  0.95724771199E+01 -0.13434766108E+03 -0.50553889800E+01  0.13478309728E+03  0.00000000000E+00 0. -1.
        -12    1    4    4    0    0  0.12725798253E+02 -0.74499667073E+01 -0.18853076039E+02  0.23935045879E+02  0.00000000000E+00 0.  1.
</event>
<event>
12    1  0.8747122E-002  0.2238770E+03  0.7818608E-02  0.1132382E+00
         21   -1    0    0  503  502  0.00000000000E+00  0.00000000000E+00  0.17446486950E+03  0.17446486950E+03  0.00000000000E+00 0. -1.
         21   -1    0    0  501  503 -0.00000000000E+00 -0.00000000000E+00 -0.30122074182E+03  0.30122074182E+03  0.00000000000E+00 0. -1.
          6    2    1    2  501    0  0.11174785494E+03 -0.70631182477E+02 -0.13041397796E+03  0.25909207596E+03  0.18067803174E+03 0.  0.
         24    2    3    3    0    0  0.86332126944E+02  0.26806602993E+01 -0.12657289333E+02  0.11799171013E+03  0.79381449992E+02 0.  0.
         -6    2    1    2    0  502 -0.11174785494E+03  0.70631182477E+02  0.36581056398E+01  0.21659353536E+03  0.17153142803E+03 0.  0.
        -24    2    5    5    0    0 -0.11835892850E+03  0.98148521371E+01  0.39307995009E+02  0.14563342726E+03  0.74557423421E+02 0.  0.
          5    1    3    3  501    0  0.25415727993E+02 -0.73311842777E+02 -0.11775668863E+03  0.14110036583E+03  0.47000000000E+01 0. -1.
        -13    1    4    4    0    0  0.57257261442E+02  0.33024914756E+02  0.14873721038E+02  0.67751505961E+02  0.00000000000E+00 0.  1.
         14    1    4    4    0    0  0.29074865502E+02 -0.30344254457E+02 -0.27531010371E+02  0.50240204165E+02  0.00000000000E+00 0. -1.
         -5    1    5    5    0  502  0.66110735590E+01  0.60816330340E+02 -0.35649889369E+02  0.70960108101E+02  0.47000000000E+01 0.  1.
         11    1    6    6    0    0 -0.92188991333E+02 -0.21346019102E+02  0.93218191170E+01  0.95086060840E+02  0.00000000000E+00 0. -1.
        -12    1    6    6    0    0 -0.26169937163E+02  0.31160871239E+02  0.29986175892E+02  0.50547366421E+02  0.00000000000E+00 0.  1.
</event>
<event>
12    1  0.8747122E-002  0.2075078E+03  0.7818608E-02  0.1143565E+00
         21   -1    0    0  501  502  0.00000000000E+00  0.00000000000E+00  0.30527536000E+03  0.30527536000E+03  0.00000000000E+00 0.  1.
         21   -1    0    0  502  503 -0.00000000000E+00 -0.00000000000E+00 -0.28973413917E+03  0.28973413917E+03  0.00000000000E+00 0.  1.
         -6    2    1    2    0  503 -0.51888870720E+01  0.11580160093E+03 -0.20537388100E+03  0.29195533644E+03  0.17211203372E+03 0.  0.
        -24    2    3    3    0    0 -0.43219563284E+02  0.46177396406E+02 -0.40794456228E+02  0.10919226783E+03  0.79110562540E+02 0.  0.
          6    2    1    2  501    0  0.51888870720E+01 -0.11580160093E+03  0.22091510183E+03  0.30305416273E+03  0.17205059721E+03 0.  0.
         24    2    5    5    0    0  0.12164305465E+01 -0.34628118767E+02  0.20277113450E+03  0.21965027692E+03  0.77003408047E+02 0.  0.
          5    1    5    5  501    0  0.39724565255E+01 -0.81173482162E+02  0.18143967329E+02  0.83403885806E+02  0.47000000000E+01 0. -1.
        -13    1    6    6    0    0 -0.49753162236E+01 -0.49588197845E+02  0.19576417462E+03  0.20200830478E+03  0.00000000000E+00 0.  1.
         14    1    6    6    0    0  0.61917467701E+01  0.14960079078E+02  0.70069598851E+01  0.17641972138E+02  0.00000000000E+00 0. -1.
         -5    1    3    3    0  503  0.38030676212E+02  0.69624204524E+02 -0.16457942477E+03  0.18276306861E+03  0.47000000000E+01 0.  1.
         11    1    4    4    0    0 -0.24459077880E+02  0.11155464771E+02  0.22099433555E+02  0.34800515060E+02  0.00000000000E+00 0. -1.
        -12    1    4    4    0    0 -0.18760485403E+02  0.35021931635E+02 -0.62893889782E+02  0.74391752768E+02  0.00000000000E+00 0.  1.
</event>
<event>
12    1  0.8747122E-002  0.2280803E+03  0.7818608E-02  0.1128005E+00
         21   -1    0    0  503  502  0.00000000000E+00  0.00000000000E+00  0.90493844940E+02  0.90493844940E+02  0.00000000000E+00 0. -1.
         21   -1    0    0  501  503 -0.00000000000E+00 -0.00000000000E+00 -0.12101335372E+04  0.12101335372E+04  0.00000000000E+00 0. -1.
          6    2    1    2  501    0  0.69211528427E+02 -0.13176481821E+03 -0.10310608329E+04  0.10559863068E+04  0.17282487100E+03 0.  0.
         24    2    3    3    0    0  0.25405334725E+02 -0.13331253543E+03 -0.52817319943E+03  0.55117006308E+03  0.80024038281E+02 0.  0.
         -6    2    1    2    0  502 -0.69211528427E+02  0.13176481821E+03 -0.88578859407E+02  0.24464107538E+03  0.17277395187E+03 0.  0.
        -24    2    5    5    0    0 -0.17204300532E+02  0.88535498208E+02  0.15580410803E+02  0.12036408865E+03  0.78168038451E+02 0.  0.
          5    1    3    3  501    0  0.43806193701E+02  0.15477172171E+01 -0.50288763345E+03  0.50481624371E+03  0.47000000000E+01 0. -1.
        -11    1    4    4    0    0  0.45099330570E+02 -0.10242529032E+03 -0.30240743248E+03  0.32245177149E+03  0.00000000000E+00 0.  1.
         12    1    4    4    0    0 -0.19693995845E+02 -0.30887245109E+02 -0.22576576695E+03  0.22871829159E+03  0.00000000000E+00 0. -1.
         -5    1    5    5    0  502 -0.52007227895E+02  0.43229320003E+02 -0.10415927021E+03  0.12427698673E+03  0.47000000000E+01 0.  1.
         11    1    6    6    0    0 -0.20807298463E+02  0.33496060334E+02  0.43357681902E+02  0.58607322982E+02  0.00000000000E+00 0. -1.
        -12    1    6    6    0    0  0.36029979316E+01  0.55039437874E+02 -0.27777271099E+02  0.61756765664E+02  0.00000000000E+00 0.  1.
</event>
<event>
12    1  0.8747122E-002  0.2292076E+03  0.7818608E-02  0.1128078E+00
         21   -1    0    0  503  502  0.00000000000E+00  0.00000000000E+00  0.89344814443E+02  0.89344814443E+02  0.00000000000E+00 0.  1.
         21   -1    0    0  501  503 -0.00000000000E+00 -0.00000000000E+00 -0.61608995163E+03  0.61608995163E+03  0.00000000000E+00 0.  1.
          6    2    1    2  501    0  0.10952205176E+03  0.97800003531E+02 -0.17013882002E+03  0.28151946768E+03  0.16954666641E+03 0.  0.
         24    2    3    3    0    0  0.30633502127E+02  0.11542556614E+03 -0.10412452633E+03  0.17704918152E+03  0.79012802253E+02 0.  0.
         -6    2    1    2    0  502 -0.10952205176E+03 -0.97800003531E+02 -0.35660631716E+03  0.42391529839E+03  0.17600055187E+03 0.  0.
        -24    2    5    5    0    0 -0.37066610149E+02  0.27267783379E+02 -0.59882199733E+02  0.93825864744E+02  0.55677189690E+02 0.  0.
          5    1    3    3  501    0  0.78888549631E+02 -0.17625562607E+02 -0.66014293685E+02  0.10447028616E+03  0.47000000000E+01 0. -1.
        -13    1    4    4    0    0  0.44194158426E+02  0.11947171032E+03 -0.10097829415E+03  0.16255223498E+03  0.00000000000E+00 0.  1.
         14    1    4    4    0    0 -0.13560656299E+02 -0.40461441818E+01 -0.31462321796E+01  0.14496946538E+02  0.00000000000E+00 0. -1.
         -5    1    5    5    0  502 -0.72455441609E+02 -0.12506778691E+03 -0.29672411743E+03  0.33008943365E+03  0.47000000000E+01 0.  1.
         13    1    6    6    0    0 -0.44105791534E+02  0.38775879308E+02 -0.49413910929E+02  0.76750402320E+02  0.00000000000E+00 0. -1.
        -14    1    6    6    0    0  0.70391813853E+01 -0.11508095930E+02 -0.10468288804E+02  0.17075462424E+02  0.00000000000E+00 0.  1.
</event>
<event>
12    1  0.8747122E-002  0.1868640E+03  0.7818608E-02  0.1161863E+00
         21   -1    0    0  501  502  0.00000000000E+00  0.00000000000E+00  0.95531807776E+03  0.95531807776E+03  0.00000000000E+00 0.  1.
         21   -1    0    0  502  503 -0.00000000000E+00 -0.00000000000E+00 -0.42353279896E+02  0.42353279896E+02  0.00000000000E+00 0.  1.
         -6    2    1    2    0  503  0.70819011611E+02 -0.16282368408E+02  0.26719070232E+03  0.32605067368E+03  0.17215609914E+03 0.  0.
        -24    2    3    3    0    0  0.23098776801E+02  0.42885952604E+02  0.21182383779E+03  0.23189287682E+03  0.80822086350E+02 0.  0.
          6    2    1    2  501    0 -0.70819011611E+02  0.16282368408E+02  0.64577409554E+03  0.67162068398E+03  0.16961636934E+03 0.  0.
         24    2    5    5    0    0 -0.78065375432E+02  0.68824044257E+02  0.44773612358E+03  0.46654931633E+03  0.79810251856E+02 0.  0.
          5    1    5    5  501    0  0.72463638209E+01 -0.52541675849E+02  0.19803797196E+03  0.20507136765E+03  0.47000000000E+01 0. -1.
        -11    1    6    6    0    0 -0.40793151233E+01  0.33397267454E+01  0.19668032110E+03  0.19675096771E+03  0.00000000000E+00 0.  1.
         12    1    6    6    0    0 -0.73986060309E+02  0.65484317512E+02  0.25105580248E+03  0.26979834862E+03  0.00000000000E+00 0. -1.
         -5    1    3    3    0  503  0.47720234811E+02 -0.59168321012E+02  0.55366864532E+02  0.94157796862E+02  0.47000000000E+01 0.  1.
         11    1    4    4    0    0 -0.24134847338E+01 -0.22900317338E+02  0.65847616250E+02  0.69757852666E+02  0.00000000000E+00 0. -1.
        -12    1    4    4    0    0  0.25512261534E+02  0.65786269941E+02  0.14597622154E+03  0.16213502415E+03  0.00000000000E+00 0.  1.
</event>
<event>
12    1  0.8747122E-002  0.2326735E+03  0.7818608E-02  0.1124816E+00
         21   -1    0    0  503  502  0.00000000000E+00  0.00000000000E+00  0.15663067092E+03  0.15663067092E+03  0.00000000000E+00 0. -1.
         21   -1    0    0  501  503 -0.00000000000E+00 -0.00000000000E+00 -0.34572173468E+03  0.34572173468E+03  0.00000000000E+00 0.  1.
          6    2    1    2  501    0  0.98624958157E+02  0.12142055863E+03 -0.10365882395E+03  0.25449025168E+03  0.17190201275E+03 0.  0.
         24    2    3    3    0    0  0.12098957001E+03  0.59874187986E+02 -0.36793382201E+02  0.16078214689E+03  0.79207015753E+02 0.  0.
         -6    2    1    2    0  502 -0.98624958157E+02 -0.12142055863E+03 -0.85432239811E+02  0.24786215393E+03  0.17224153193E+03 0.  0.
        -24    2    5    5    0    0 -0.12919068975E+02 -0.64247420822E+02  0.14220996116E+02  0.10444972574E+03  0.80080428646E+02 0.  0.
          5    1    3    3  501    0 -0.22364611857E+02  0.61546370642E+02 -0.66865441753E+02  0.93708104791E+02  0.47000000000E+01 0. -1.
        -11    1    4    4    0    0  0.43346050003E+02 -0.74951419430E+01 -0.37772016161E+02  0.57980879680E+02  0.00000000000E+00 0.  1.
         12    1    4    4    0    0  0.77643520010E+02  0.67369329929E+02  0.97863395998E+00  0.10280126721E+03  0.00000000000E+00 0. -1.
         -5    1    5    5    0  502 -0.85705889182E+02 -0.57173137806E+02 -0.99653235926E+02  0.14341242818E+03  0.47000000000E+01 0.  1.
         13    1    6    6    0    0 -0.37329325070E+02 -0.63080886287E+02 -0.48384296200E+01  0.73458063724E+02  0.00000000000E+00 0. -1.
        -14    1    6    6    0    0  0.24410256095E+02 -0.11665345355E+01  0.19059425736E+02  0.30991662021E+02  0.00000000000E+00 0.  1.
</event>
<event>
12    1  0.8747122E-002  0.2316842E+03  0.7818608E-02  0.1125898E+00
         21   -1    0    0  503  502  0.00000000000E+00  0.00000000000E+00  0.88729955793E+03  0.88729955793E+03  0.00000000000E+00 0. -1.
         21   -1    0    0  501  503 -0.00000000000E+00 -0.00000000000E+00 -0.42090327101E+03  0.42090327101E+03  0.00000000000E+00 0.  1.
          6    2    1    2  501    0 -0.97978932857E+02 -0.12175232057E+03 -0.37279921840E+03  0.43761297929E+03  0.16763759589E+03 0.  0.
         24    2    3    3    0    0 -0.42469346003E+02 -0.14371264548E+03 -0.26504331266E+03  0.31433688540E+03  0.78120100604E+02 0.  0.
         -6    2    1    2    0  502  0.97978932857E+02  0.12175232057E+03  0.83919550532E+03  0.87058984965E+03  0.17103827444E+03 0.  0.
        -24    2    5    5    0    0  0.12102450401E+03  0.77177921946E+02  0.46360428810E+03  0.49163229555E+03  0.78549448577E+02 0.  0.
          5    1    3    3  501    0 -0.55509586854E+02  0.21960324908E+02 -0.10775590574E+03  0.12327609389E+03  0.47000000000E+01 0. -1.
        -13    1    4    4    0    0 -0.12310113896E+02 -0.10320941439E+03 -0.23135890714E+03  0.25363490697E+03  0.00000000000E+00 0.  1.
         14    1    4    4    0    0 -0.30159232107E+02 -0.40503231089E+02 -0.33684405521E+02  0.60701978429E+02  0.00000000000E+00 0. -1.
         -5    1    5    5    0  502 -0.23045571156E+02  0.44574398625E+02  0.37559121722E+03  0.37895755411E+03  0.47000000000E+01 0.  1.
         11    1    6    6    0    0  0.52453836946E+02  0.48689804741E+02  0.33990722979E+03  0.34736008256E+03  0.00000000000E+00 0. -1.
        -12    1    6    6    0    0  0.68570667067E+02  0.28488117206E+02  0.12369705831E+03  0.14427221298E+03  0.00000000000E+00 0.  1.
</event>
<event>
12    1  0.8747122E-002  0.2096337E+03  0.7818608E-02  0.1142369E+00
         21   -1    0    0  501  502  0.00000000000E+00  0.00000000000E+00  0.37017409343E+03  0.37017409343E+03  0.00000000000E+00 0. -1.
         21   -1    0    0  502  503 -0.00000000000E+00 -0.00000000000E+00 -0.18131628857E+03  0.18131628857E+03  0.00000000000E+00 0. -1.
         -6    2    1    2    0  503 -0.48458921536E+02 -0.10551686591E+03 -0.69829600405E+02  0.21852573369E+03  0.17145042177E+03 0.  0.
        -24    2    3    3    0    0  0.60712855780E+01 -0.51804430257E+01 -0.68762010724E+02  0.10422712918E+03  0.77919078790E+02 0.  0.
          6    2    1    2  501    0  0.48458921536E+02  0.10551686591E+03  0.25868740527E+03  0.33296464832E+03  0.17453998773E+03 0.  0.
         24    2    5    5    0    0  0.94902938400E+02  0.41983275099E+02  0.15802860964E+03  0.20510594896E+03  0.79537700053E+02 0.  0.
          5    1    5    5  501    0 -0.46444016864E+02  0.63533590811E+02  0.10065879562E+03  0.12785869935E+03  0.47000000000E+01 0. -1.
        -11    1    6    6    0    0  0.44414358316E+01 -0.19326399487E+02  0.13829346015E+02  0.24176163479E+02  0.00000000000E+00 0.  1.
         12    1    6    6    0    0  0.90461502568E+02  0.61309674585E+02  0.14419926363E+03  0.18092978549E+03  0.00000000000E+00 0. -1.
         -5    1    3    3    0  503 -0.54530207114E+02 -0.10033642288E+03 -0.10675896809E+01  0.11429860451E+03  0.47000000000E+01 0.  1.
         13    1    4    4    0    0 -0.26973648139E+01 -0.35643584317E+02 -0.94471855598E+01  0.36972830496E+02  0.00000000000E+00 0. -1.
        -14    1    4    4    0    0  0.87686503919E+01  0.30463141291E+02 -0.59314825164E+02  0.67254298683E+02  0.00000000000E+00 0.  1.
</event>
<event>
12    1  0.8747122E-002  0.2368360E+03  0.7818608E-02  0.1121983E+00
         21   -1    0    0  501  502  0.00000000000E+00  0.00000000000E+00  0.38749354468E+03  0.38749354468E+03  0.00000000000E+00 0. -1.
         21   -1    0    0  502  503 -0.00000000000E+00 -0.00000000000E+00 -0.17123772642E+03  0.17123772642E+03  0.00000000000E+00 0.  1.
         -6    2    1    2    0  503  0.12919672566E+03  0.93468002602E+02 -0.22887630131E+01  0.23646888038E+03  0.17459734110E+03 0.  0.
        -24    2    3    3    0    0  0.87272692214E+02  0.11009624830E+03 -0.50183060344E+02  0.17051376797E+03  0.82576623965E+02 0.  0.
          6    2    1    2  501    0 -0.12919672566E+03 -0.93468002602E+02  0.21854458128E+03  0.32226239072E+03  0.17510926029E+03 0.  0.
         24    2    5    5    0    0 -0.13577693493E+03 -0.10954807055E+03  0.23104650915E+03  0.30034764821E+03  0.79937879485E+02 0.  0.
          5    1    5    5  501    0  0.65802092649E+01  0.16080067946E+02 -0.12501927869E+02  0.21914742516E+02  0.47000000000E+01 0. -1.
        -11    1    6    6    0    0 -0.14133889445E+03 -0.84312551666E+02  0.18551481748E+03  0.24799402605E+03  0.00000000000E+00 0.  1.
         12    1    6    6    0    0  0.55619595212E+01 -0.25235518881E+02  0.45531691670E+02  0.52353622159E+02  0.00000000000E+00 0. -1.
         -5    1    3    3    0  503  0.41924033449E+02 -0.16628245701E+02  0.47894297331E+02  0.65955112407E+02  0.47000000000E+01 0.  1.
         11    1    4    4    0    0 -0.10954537725E+02 -0.14970736539E+01  0.47359009074E+01  0.12027962575E+02  0.00000000000E+00 0. -1.
        -12    1    4    4    0    0  0.98227229940E+02  0.11159332196E+03 -0.54918961251E+02  0.15848580540E+03  0.00000000000E+00 0.  1.
</event>
<event>
12    1  0.8747122E-002  0.1861404E+03  0.7818608E-02  0.1162211E+00
         21   -1    0    0  501  502  0.00000000000E+00  0.00000000000E+00  0.14516036628E+04  0.14516036628E+04  0.00000000000E+00 0.  1.
         21   -1    0    0  502  503 -0.00000000000E+00 -0.00000000000E+00 -0.38878466113E+02  0.38878466113E+02  0.00000000000E+00 0.  1.
         -6    2    1    2    0  503  0.52771522505E+02  0.46283771354E+02  0.24032312575E+03  0.30339541863E+03  0.17136672430E+03 0.  0.
        -24    2    3    3    0    0 -0.14202962526E+02  0.62366610318E+02  0.19659897964E+03  0.22167559051E+03  0.79984938622E+02 0.  0.
          6    2    1    2  501    0 -0.52771522505E+02 -0.46283771354E+02  0.11724020709E+04  0.11870867103E+04  0.17239843595E+03 0.  0.
         24    2    5    5    0    0  0.31555418780E+02 -0.43926936474E+02  0.77014093734E+03  0.77604815090E+03  0.78793076769E+02 0.  0.
          5    1    5    5  501    0 -0.84326941284E+02 -0.23568348805E+01  0.40226113358E+03  0.41103855937E+03  0.47000000000E+01 0. -1.
        -11    1    6    6    0    0  0.69622298716E+00  0.22402664046E+02  0.18035473438E+03  0.18174210930E+03  0.00000000000E+00 0.  1.
         12    1    6    6    0    0  0.30859195793E+02 -0.66329600520E+02  0.58978620296E+03  0.59430604159E+03  0.00000000000E+00 0. -1.
         -5    1    3    3    0  503  0.66974485031E+02 -0.16082838964E+02  0.43724146111E+02  0.81719828117E+02  0.47000000000E+01 0.  1.
         13    1    4    4    0    0 -0.35446050189E+02 -0.10629060627E+01  0.64505682011E+02  0.73610700683E+02  0.00000000000E+00 0. -1.
        -14    1    4    4    0    0  0.21243087662E+02  0.63429516381E+02  0.13209329762E+03  0.14806488983E+03  0.00000000000E+00 0.  1.
</event>
<event>
12    1  0.8747122E-002  0.2107538E+03  0.7818608E-02  0.1140977E+00
         21   -1    0    0  503  502  0.00000000000E+00  0.00000000000E+00  0.64594699816E+03  0.64594699816E+03  0.00000000000E+00 0. -1.
         21   -1    0    0  501  503 -0.00000000000E+00 -0.00000000000E+00 -0.77489009367E+02  0.77489009367E+02  0.00000000000E+00 0.  1.
          6    2    1    2  501    0  0.11369641132E+03 -0.44051263844E+02  0.16274362136E+03  0.26624750256E+03  0.17185708753E+03 0.  0.
         24    2    3    3    0    0 -0.11062602915E+02 -0.91057402718E+01  0.46637264365E+02  0.92210789812E+02  0.78246403375E+02 0.  0.
         -6    2    1    2    0  502 -0.11369641132E+03  0.44051263844E+02  0.40571436743E+03  0.45718850497E+03  0.17190053327E+03 0.  0.
        -24    2    5    5    0    0 -0.10325245663E+03  0.29925258447E+02  0.41537627202E+03  0.43659572424E+03  0.80757588968E+02 0.  0.
          5    1    3    3  501    0  0.12475901423E+03 -0.34945523573E+02  0.11610635699E+03  0.17403671275E+03  0.47000000000E+01 0. -1.
        -11    1    4    4    0    0 -0.47272305168E+01  0.28087052888E+02 -0.43187632193E+01  0.28807654608E+02  0.00000000000E+00 0.  1.
         12    1    4    4    0    0 -0.63353723985E+01 -0.37192793160E+02  0.50956027584E+02  0.63403135203E+02  0.00000000000E+00 0. -1.
         -5    1    5    5    0  502 -0.10443954683E+02  0.14126005398E+02 -0.96619045818E+01  0.20592780727E+02  0.47000000000E+01 0.  1.
         13    1    6    6    0    0 -0.16216886493E+02 -0.67001928177E+00  0.21929883702E+03  0.21989864996E+03  0.00000000000E+00 0. -1.
        -14    1    6    6    0    0 -0.87035570140E+02  0.30595277729E+02  0.19607743499E+03  0.21669707428E+03  0.00000000000E+00 0.  1.
</event>
<event>
12    1  0.8747122E-002  0.1897313E+03  0.7818608E-02  0.1158738E+00
         21   -1    0    0  501  502  0.00000000000E+00  0.00000000000E+00  0.74469100614E+02  0.74469100614E+02  0.00000000000E+00 0.  1.
         21   -1    0    0  502  503 -0.00000000000E+00 -0.00000000000E+00 -0.73967709772E+03  0.73967709772E+03  0.00000000000E+00 0.  1.
         -6    2    1    2    0  503 -0.56343936926E+02  0.52591970837E+02 -0.57230903146E+03  0.60289235233E+03  0.17320798591E+03 0.  0.
        -24    2    3    3    0    0 -0.82450516657E+02  0.81800609247E+02 -0.51022630327E+03  0.52933249098E+03  0.79828429053E+02 0.  0.
          6    2    1    2  501    0  0.56343936926E+02 -0.52591970837E+02 -0.92898965644E+02  0.21125384600E+03  0.17337074438E+03 0.  0.
         24    2    5    5    0    0  0.99443517731E+02 -0.19939017120E+02 -0.90016638829E+02  0.15690141220E+03  0.78920721374E+02 0.  0.
          5    1    5    5  501    0 -0.43099580805E+02 -0.32652953717E+02 -0.28823268149E+01  0.54352433799E+02  0.47000000000E+01 0. -1.
        -13    1    6    6    0    0 -0.11689741336E+01 -0.19059574653E+02  0.36426792777E+01  0.19439727334E+02  0.00000000000E+00 0.  1.
         14    1    6    6    0    0  0.10061249186E+03 -0.87944246612E+00 -0.93659318106E+02  0.13746168487E+03  0.00000000000E+00 0. -1.
         -5    1    3    3    0  503  0.26106579730E+02 -0.29208638410E+02 -0.62082728189E+02  0.73559861354E+02  0.47000000000E+01 0.  1.
         13    1    4    4    0    0 -0.17425292331E+02  0.66779133523E+01 -0.14189755779E+02  0.23443218819E+02  0.00000000000E+00 0. -1.
        -14    1    4    4    0    0 -0.65025224326E+02  0.75122695895E+02 -0.49603654749E+03  0.50588927216E+03  0.00000000000E+00 0.  1.
</event>
<event>
12    1  0.8747122E-002  0.2011304E+03  0.7818608E-02  0.1148994E+00
         21   -1    0    0  503  502  0.00000000000E+00  0.00000000000E+00  0.21592054183E+03  0.21592054183E+03  0.00000000000E+00 0.  1.
         21   -1    0    0  501  503 -0.00000000000E+00 -0.00000000000E+00 -0.18724530695E+03  0.18724530695E+03  0.00000000000E+00 0.  1.
          6    2    1    2  501    0 -0.66403526846E+02  0.79023816618E+02  0.11781312426E+01  0.20113386835E+03  0.17262460148E+03 0.  0.
         24    2    3    3    0    0  0.90941251791E+00  0.77271881623E+02 -0.46578027135E+02  0.11844867170E+03  0.76738546351E+02 0.  0.
         -6    2    1    2    0  502  0.66403526846E+02 -0.79023816618E+02  0.27497103632E+02  0.20203198043E+03  0.17148363898E+03 0.  0.
        -24    2    5    5    0    0  0.20605934789E+01 -0.54071481901E+02 -0.40594165741E+02  0.10496940758E+03  0.80266549918E+02 0.  0.
          5    1    3    3  501    0 -0.67312939364E+02  0.17519349954E+01  0.47756158378E+02  0.82685196650E+02  0.47000000000E+01 0. -1.
        -13    1    4    4    0    0 -0.37702603449E+02  0.38522052359E+02 -0.27518328343E+02  0.60520188529E+02  0.00000000000E+00 0.  1.
         14    1    4    4    0    0  0.38612015966E+02  0.38749829263E+02 -0.19059698792E+02  0.57928483175E+02  0.00000000000E+00 0. -1.
         -5    1    5    5    0  502  0.64342933367E+02 -0.24952334717E+02  0.68091269374E+02  0.97062572844E+02  0.47000000000E+01 0.  1.
         13    1    6    6    0    0  0.30344752093E+02 -0.17125590886E+02 -0.46457152426E+02  0.58071997161E+02  0.00000000000E+00 0. -1.
        -14    1    6    6    0    0 -0.28284158614E+02 -0.36945891015E+02  0.58629866842E+01  0.46897410422E+02  0.00000000000E+00 0.  1.
</event>
<event>
12    1  0.8747122E-002  0.1928514E+03  0.7818608E-02  0.1156079E+00
         21   -1    0    0  503  502  0.00000000000E+00  0.00000000000E+00  0.68276605518E+02  0.68276605518E+02  0.00000000000E+00 0. -1.
         21   -1    0    0  501  503 -0.00000000000E+00 -0.00000000000E+00 -0.12016084888E+04  0.12016084888E+04  0.00000000000E+00 0. -1.
          6    2    1    2  501    0 -0.46710897603E+02  0.70783059129E+02 -0.10373655321E+04  0.10551392851E+04  0.17320367878E+03 0.  0.
         24    2    3    3    0    0 -0.60387010681E+02  0.11478588508E+02 -0.31788778113E+03  0.33307669747E+03  0.78160705931E+02 0.  0.
         -6    2    1    2    0  502  0.46710897603E+02 -0.70783059129E+02 -0.95966351169E+02  0.21474580921E+03  0.17237770332E+03 0.  0.
        -24    2    5    5    0    0 -0.10213100792E+02 -0.20108360940E+02  0.87096732702E+01  0.85179506796E+02  0.81676412520E+02 0.  0.
          5    1    3    3  501    0  0.13676113078E+02  0.59304470621E+02 -0.71947775102E+03  0.72206258767E+03  0.47000000000E+01 0. -1.
        -11    1    4    4    0    0 -0.24293825267E+02  0.18055066297E+02 -0.27490250405E+03  0.27656384814E+03  0.00000000000E+00 0.  1.
         12    1    4    4    0    0 -0.36093185414E+02 -0.65764777892E+01 -0.42985277074E+02  0.56512849322E+02  0.00000000000E+00 0. -1.
         -5    1    5    5    0  502  0.56923998395E+02 -0.50674698189E+02 -0.10467602444E+03  0.12956630242E+03  0.47000000000E+01 0.  1.
         13    1    6    6    0    0 -0.26985354673E+02 -0.46055456050E+02  0.12398361778E+01  0.53393366560E+02  0.00000000000E+00 0. -1.
        -14    1    6    6    0    0  0.16772253882E+02  0.25947095110E+02  0.74698370924E+01  0.31786140236E+02  0.00000000000E+00 0.  1.
</event>
<event>
12    1  0.8747122E-002  0.2359495E+03  0.7818608E-02  0.1122919E+00
         21   -1    0    0  501  502  0.00000000000E+00  0.00000000000E+00  0.67716689229E+03  0.67716689229E+03  0.00000000000E+00 0.  1.
         21   -1    0    0  502  503 -0.00000000000E+00 -0.00000000000E+00 -0.14547641576E+03  0.14547641576E+03  0.00000000000E+00 0.  1.
         -6    2    1    2    0  503 -0.13508208919E+03  0.87484062049E+02 -0.78591649666E+01  0.23375791742E+03  0.16935278430E+03 0.  0.
        -24    2    3    3    0    0 -0.11589415162E+03  0.12299264699E+03 -0.26088868043E+02  0.18922199229E+03  0.81028931489E+02 0.  0.
          6    2    1    2  501    0  0.13508208919E+03 -0.87484062049E+02  0.53954964150E+03  0.58888539063E+03  0.17254435872E+03 0.  0.
         24    2    5    5    0    0  0.18327968994E+02  0.58393671410E+01  0.23917686814E+03  0.25334600398E+03  0.81293362730E+02 0.  0.
          5    1    5    5  501    0  0.11675412020E+03 -0.93323429190E+02  0.30037277336E+03  0.33553938665E+03  0.47000000000E+01 0. -1.
        -11    1    6    6    0    0  0.31019563237E+02 -0.30733215330E+02  0.10558501077E+03  0.11425820901E+03  0.00000000000E+00 0.  1.
         12    1    6    6    0    0 -0.12691594243E+02  0.36572582471E+02  0.13359185737E+03  0.13908779497E+03  0.00000000000E+00 0. -1.
         -5    1    3    3    0  503 -0.19187937575E+02 -0.35508584942E+02  0.18229703077E+02  0.44535925131E+02  0.47000000000E+01 0.  1.
         13    1    4    4    0    0  0.30848513721E+01  0.18953840766E+02  0.16735293177E+02  0.25472228515E+02  0.00000000000E+00 0. -1.
        -14    1    4    4    0    0 -0.11897900299E+03  0.10403880622E+03 -0.42824161220E+02  0.16374976378E+03  0.00000000000E+00 0.  1.
</event>
<event>
12    1  0.8747122E-002  0.1973885E+03  0.7818608E-02  0.1153242E+00
         21   -1    0    0  501  502  0.00000000000E+00  0.00000000000E+00  0.47178868973E+03  0.47178868973E+03  0.00000000000E+00 0. -1.
         21   -1    0    0  502  503 -0.00000000000E+00 -0.00000000000E+00 -0.11747924082E+03  0.11747924082E+03  0.00000000000E+00 0. -1.
         -6    2    1    2    0  503 -0.60922768861E+02  0.73602568013E+02  0.92501697230E+01  0.19174040796E+03  0.16598161531E+03 0.  0.
        -24    2    3    3    0    0 -0.40457062040E+02  0.10126194512E+03  0.26448994370E+02  0.15298765494E+03  0.10399479728E+03 0.  0.
          6    2    1    2  501    0  0.60922768861E+02 -0.73602568013E+02  0.34505927919E+03  0.39752752259E+03  0.17272319844E+03 0.  0.
         24    2    5    5    0    0 -0.39543985384E+01  0.19420970861E+02  0.12187671295E+03  0.14713787922E+03  0.80017566600E+02 0.  0.
          5    1    5    5  501    0  0.64877167400E+02 -0.93023538874E+02  0.22318256625E+03  0.25038964338E+03  0.47000000000E+01 0. -1.
        -13    1    6    6    0    0 -0.19288576642E+02 -0.27104041127E+02  0.44548129088E+02  0.55598687390E+02  0.00000000000E+00 0.  1.
         14    1    6    6    0    0  0.15334178104E+02  0.46525011988E+02  0.77328583857E+02  0.91539191825E+02  0.00000000000E+00 0. -1.
         -5    1    3    3    0  503 -0.20465706821E+02 -0.27659377110E+02 -0.17198824647E+02  0.38752753025E+02  0.47000000000E+01 0.  1.
         13    1    4    4    0    0 -0.39702110263E+01  0.66081210707E+02  0.62299656367E+02  0.90905094289E+02  0.00000000000E+00 0. -1.
        -14    1    4    4    0    0 -0.36486851014E+02  0.35180734416E+02 -0.35850661997E+02  0.62082560648E+02  0.00000000000E+00 0.  1.
</event>
<event>
12    1  0.8747122E-002  0.2487220E+03  0.7818608E-02  0.1114851E+00
         21   -1    0    0  501  502  0.00000000000E+00  0.00000000000E+00  0.64428046561E+02  0.64428046561E+02  0.00000000000E+00 0. -1.
         21   -1    0    0  502  503 -0.00000000000E+00 -0.00000000000E+00 -0.94277303559E+03  0.94277303559E+03  0.00000000000E+00 0.  1.
         -6    2    1    2    0  503 -0.12089670580E+02 -0.17373839939E+03 -0.44232277722E+03  0.50522695696E+03  0.17109543312E+03 0.  0.
        -24    2    3    3    0    0  0.30008922664E+02 -0.11216136685E+03 -0.38806154446E+03  0.41286682557E+03  0.79915866465E+02 0.  0.
          6    2    1    2  501    0  0.12089670580E+02  0.17373839939E+03 -0.43602221181E+03  0.50197412519E+03  0.17757100442E+03 0.  0.
         24    2    5    5    0    0  0.43926046679E+02  0.59830686186E+02 -0.31344011129E+03  0.33157170930E+03  0.78650406618E+02 0.  0.
          5    1    5    5  501    0 -0.31836376099E+02  0.11390771321E+03 -0.12258210052E+03  0.17040241589E+03  0.47000000000E+01 0. -1.
        -11    1    6    6    0    0  0.44953472441E+02  0.74405735870E+02 -0.21272079097E+03  0.22979809209E+03  0.00000000000E+00 0.  1.
         12    1    6    6    0    0 -0.10274257622E+01 -0.14575049683E+02 -0.10071932031E+03  0.10177361722E+03  0.00000000000E+00 0. -1.
         -5    1    3    3    0  503 -0.42098593244E+02 -0.61577032549E+02 -0.54261232764E+02  0.92360131398E+02  0.47000000000E+01 0.  1.
         13    1    4    4    0    0  0.11964222758E+02 -0.42984591602E+01 -0.15392031133E+03  0.15444442890E+03  0.00000000000E+00 0. -1.
        -14    1    4    4    0    0  0.18044699906E+02 -0.10786290769E+03 -0.23414123313E+03  0.25842239667E+03  0.00000000000E+00 0.  1.
</event>
<event>
12    1  0.8747122E-002  0.2751476E+03  0.7818608E-02  0.1098539E+00
         21   -1    0    0  501  502  0.00000000000E+00  0.00000000000E+00  0.30970300301E+03  0.30970300301E+03  0.00000000000E+00 0. -1.
         21   -1    0    0  502  503 -0.00000000000E+00 -0.00000000000E+00 -0.45407540357E+03  0.45407540357E+03  0.00000000000E+00 0. -1.
         -6    2    1    2    0  503 -0.81287924535E+02  0.19882472355E+03 -0.33241355471E+03  0.43151475116E+03  0.17195118998E+03 0.  0.
        -24    2    3    3    0    0 -0.36603853401E+02  0.19593589544E+03 -0.20608376186E+03  0.29740167162E+03  0.79034930081E+02 0.  0.
          6    2    1    2  501    0  0.81287924535E+02 -0.19882472355E+03  0.18804115415E+03  0.33226365543E+03  0.17000195203E+03 0.  0.
         24    2    5    5    0    0  0.71401057290E+02 -0.20757718495E+03  0.20442351319E+03  0.31070379893E+03  0.81002958154E+02 0.  0.
          5    1    5    5  501    0  0.98868672450E+01  0.87524614003E+01 -0.16382359039E+02  0.21559856497E+02  0.47000000000E+01 0. -1.
        -11    1    6    6    0    0  0.39651030594E+02 -0.94244295892E+02  0.42977936978E+02  0.11091120143E+03  0.00000000000E+00 0.  1.
         12    1    6    6    0    0  0.31750026696E+02 -0.11333288906E+03  0.16144557622E+03  0.19979259751E+03  0.00000000000E+00 0. -1.
         -5    1    3    3    0  503 -0.44684071134E+02  0.28888281136E+01 -0.12632979285E+03  0.13411307954E+03  0.47000000000E+01 0.  1.
         13    1    4    4    0    0  0.11396996357E+02  0.83634209505E+02 -0.46247572563E+02  0.96246612894E+02  0.00000000000E+00 0. -1.
        -14    1    4    4    0    0 -0.48000849757E+02  0.11230168594E+03 -0.15983618930E+03  0.20115505873E+03  0.00000000000E+00 0.  1.
</event>
<event>
12    1  0.8747122E-002  0.1780676E+03  0.7818608E-02  0.1169844E+00
         21   -1    0    0  501  502  0.00000000000E+00  0.00000000000E+00  0.13267539858E+04  0.13267539858E+04  0.00000000000E+00 0. -1.
         21   -1    0    0  502  503 -0.00000000000E+00 -0.00000000000E+00 -0.24270714307E+02  0.24270714307E+02  0.00000000000E+00 0. -1.
         -6    2    1    2    0  503 -0.18901775231E+02  0.37397484787E+02  0.74283748926E+03  0.76373306293E+03  0.17240883677E+03 0.  0.
        -24    2    3    3    0    0 -0.50465917088E+01  0.18224272671E+02  0.73318244973E+03  0.73775445709E+03  0.79796880632E+02 0.  0.
          6    2    1    2  501    0  0.18901775231E+02 -0.37397484787E+02  0.55964578223E+03  0.58729163716E+03  0.17306708683E+03 0.  0.
         24    2    5    5    0    0  0.44760021841E+02 -0.46364632627E+02  0.19952771081E+03  0.22610446406E+03  0.84609589120E+02 0.  0.
          5    1    5    5  501    0 -0.25858246610E+02  0.89671478392E+01  0.36011807141E+03  0.36118717311E+03  0.47000000000E+01 0. -1.
        -13    1    6    6    0    0 -0.23549682088E+02 -0.50493474980E+01  0.28166148838E+02  0.37059619224E+02  0.00000000000E+00 0.  1.
         14    1    6    6    0    0  0.68309703930E+02 -0.41315285129E+02  0.17136156198E+03  0.18904484484E+03  0.00000000000E+00 0. -1.
         -5    1    3    3    0  503 -0.13855183522E+02  0.19173212116E+02  0.96550395242E+01  0.25978605842E+02  0.47000000000E+01 0.  1.
         11    1    4    4    0    0 -0.23817763529E+02  0.14254873410E+02  0.68932824339E+03  0.68988688523E+03  0.00000000000E+00 0. -1.
        -12    1    4    4    0    0  0.18771171820E+02  0.39693992611E+01  0.43854206344E+02  0.47867571863E+02  0.00000000000E+00 0.  1.
</event>
<event>
12    1  0.8747122E-002  0.2058575E+03  0.7818608E-02  0.1145552E+00
         21   -1    0    0  503  502  0.00000000000E+00  0.00000000000E+00  0.21543431623E+03  0.21543431623E+03  0.00000000000E+00 0.  1.
         21   -1    0    0  501  503 -0.00000000000E+00 -0.00000000000E+00 -0.27129544781E+03  0.27129544781E+03  0.00000000000E+00 0.  1.
          6    2    1    2  501    0 -0.57480327886E+02 -0.92797929026E+02 -0.15830019681E+03  0.25968491209E+03  0.17453325624E+03 0.  0.
         24    2    3    3    0    0 -0.20644756682E+02 -0.75258460129E+02 -0.18079084746E+03  0.21286171653E+03  0.80837726585E+02 0.  0.
         -6    2    1    2    0  502  0.57480327886E+02  0.92797929026E+02  0.10243906523E+03  0.22704485195E+03  0.17070488859E+03 0.  0.
        -24    2    5    5    0    0  0.19809427833E+01  0.60829001801E+02  0.12458093927E+03  0.15911439751E+03  0.78056962993E+02 0.  0.
          5    1    3    3  501    0 -0.36835571203E+02 -0.17539468897E+02  0.22490650657E+02  0.46823195556E+02  0.47000000000E+01 0. -1.
        -13    1    4    4    0    0 -0.47835520955E+02 -0.30562608049E+02 -0.11936955215E+03  0.13217942372E+03  0.00000000000E+00 0.  1.
         14    1    4    4    0    0  0.27190764272E+02 -0.44695852080E+02 -0.61421295316E+02  0.80682292811E+02  0.00000000000E+00 0. -1.
         -5    1    5    5    0  502  0.55499385102E+02  0.31968927225E+02 -0.22141874039E+02  0.67930454441E+02  0.47000000000E+01 0.  1.
         11    1    6    6    0    0  0.16139959941E+02 -0.59606670328E+01  0.68894389353E+02  0.71010314340E+02  0.00000000000E+00 0. -1.
        -12    1    6    6    0    0 -0.14159017158E+02  0.66789668834E+02  0.55686549917E+02  0.88104083171E+02  0.00000000000E+00 0.  1.
</event>
<event>
12    1  0.8747122E-002  0.2059038E+03  0.7818608E-02  0.1145418E+00
         21   -1    0    0  503  502  0.00000000000E+00  0.00000000000E+00  0.26391262041E+03  0.26391262041E+03  0.00000000000E+00 0.  1.
         21   -1    0    0  501  503 -0.00000000000E+00 -0.00000000000E+00 -0.16270987376E+03  0.16270987376E+03  0.00000000000E+00 0.  1.
          6    2    1    2  501    0 -0.88795982232E+01  0.10994470218E+03  0.15929813108E+02  0.20375961409E+03  0.17058000055E+03 0.  0.
         24    2    3    3    0    0  0.29556452888E+02  0.13156986691E+03  0.24444257140E+02  0.15859808697E+03  0.79822413504E+02 0.  0.
         -6    2    1    2    0  502  0.88795982232E+01 -0.10994470218E+03  0.85272933544E+02  0.22286288008E+03  0.17386691842E+03 0.  0.
        -24    2    5    5    0    0  0.48003030522E+02 -0.79480660899E+02  0.11226116621E+03  0.16621347171E+03  0.80018012628E+02 0.  0.
          5    1    3    3  501    0 -0.38436051111E+02 -0.21625164734E+02 -0.85144440323E+01  0.45161527122E+02  0.47000000000E+01 0. -1.
        -13    1    4    4    0    0  0.48755281850E+02  0.10705976532E+03 -0.21402204586E+01  0.11765819734E+03  0.00000000000E+00 0.  1.
         14    1    4    4    0    0 -0.19198828962E+02  0.24510101589E+02  0.26584477599E+02  0.40939889626E+02  0.00000000000E+00 0. -1.
         -5    1    5    5    0  502 -0.39123432299E+02 -0.30464041277E+02 -0.26988232664E+02  0.56649408365E+02  0.47000000000E+01 0.  1.
         11    1    6    6    0    0  0.12571662729E+02  0.12133157347E+02  0.57955023779E+00  0.17481306858E+02  0.00000000000E+00 0. -1.
        -12    1    6    6    0    0  0.35431367794E+02 -0.91613818247E+02  0.11168161597E+03  0.14873216486E+03  0.00000000000E+00 0.  1.
</event>
<event>
12    1  0.8747122E-002  0.2877981E+03  0.7818608E-02  0.1091566E+00
         21   -1    0    0  503  502  0.00000000000E+00  0.00000000000E+00  0.41318049061E+03  0.41318049061E+03  0.00000000000E+00 0. -1.
         21   -1    0    0  501  503 -0.00000000000E+00 -0.00000000000E+00 -0.21170850557E+03  0.21170850557E+03  0.00000000000E+00 0.  1.
          6    2    1    2  501    0 -0.15580982755E+03 -0.17078861721E+03  0.27780059038E+02  0.28913575148E+03  0.17141265115E+03 0.  0.
         24    2    3    3    0    0 -0.16595691042E+03 -0.18946404383E+03  0.17002576130E+02  0.26484626840E+03  0.80100800692E+02 0.  0.
         -6    2    1    2    0  502  0.15580982755E+03  0.17078861721E+03  0.17369192600E+03  0.33575324469E+03  0.17063382442E+03 0.  0.
        -24    2    5    5    0    0  0.14644766769E+02  0.77263844493E+02  0.10165224620E+03  0.15167102675E+03  0.80540364657E+02 0.  0.
          5    1    3    3  501    0  0.10147082872E+02  0.18675426620E+02  0.10777482907E+02  0.24289483076E+02  0.47000000000E+01 0. -1.
        -11    1    4    4    0    0 -0.73139072594E+02 -0.12253953620E+03 -0.21060494902E+02  0.14425257820E+03  0.00000000000E+00 0.  1.
         12    1    4    4    0    0 -0.92817837825E+02 -0.66924507629E+02  0.38063071032E+02  0.12059369020E+03  0.00000000000E+00 0. -1.
         -5    1    5    5    0  502  0.14116506078E+03  0.93524772719E+02  0.72039679803E+02  0.18408221794E+03  0.47000000000E+01 0.  1.
         11    1    6    6    0    0  0.25592718858E+02  0.80049997366E+02  0.47877582161E+02  0.96722552749E+02  0.00000000000E+00 0. -1.
        -12    1    6    6    0    0 -0.10947952089E+02 -0.27861528724E+01  0.53774664037E+02  0.54948474002E+02  0.00000000000E+00 0.  1.
</event>
<event>
12    1  0.8747122E-002  0.3011492E+03  0.7818608E-02  0.1085269E+00
         21   -1    0    0  501  502  0.00000000000E+00  0.00000000000E+00  0.99583853382E+03  0.99583853382E+03  0.00000000000E+00 0.  1.
         21   -1    0    0  502  503 -0.00000000000E+00 -0.00000000000E+00 -0.98577087034E+02  0.98577087034E+02  0.00000000000E+00 0. -1.
         -6    2    1    2    0  503  0.20970192456E+03 -0.12052205606E+03  0.28047053028E+03  0.40803245777E+03  0.17124924841E+03 0.  0.
        -24    2    3    3    0    0  0.15576441423E+03 -0.15242780768E+03  0.21725440622E+03  0.31889436071E+03  0.83650146281E+02 0.  0.
          6    2    1    2  501    0 -0.20970192456E+03  0.12052205606E+03  0.61679091651E+03  0.68638316308E+03  0.17941669016E+03 0.  0.
         24    2    5    5    0    0 -0.60742350577E+02  0.75138777200E+02  0.15359543802E+03  0.19769027591E+03  0.78450096331E+02 0.  0.
          5    1    5    5  501    0 -0.14895957399E+03  0.45383278858E+02  0.46319547849E+03  0.48869288717E+03  0.47000000000E+01 0. -1.
        -11    1    6    6    0    0  0.15578246656E+02  0.29092602990E+02  0.25843567672E+02  0.41916003002E+02  0.00000000000E+00 0.  1.
         12    1    6    6    0    0 -0.76320597233E+02  0.46046174210E+02  0.12775187035E+03  0.15577427290E+03  0.00000000000E+00 0. -1.
         -5    1    3    3    0  503  0.53937510335E+02  0.31905751627E+02  0.63216124056E+02  0.89138097067E+02  0.47000000000E+01 0.  1.
         11    1    4    4    0    0  0.11546152341E+03 -0.73342507111E+02  0.89992030858E+02  0.16373470114E+03  0.00000000000E+00 0. -1.
        -12    1    4    4    0    0  0.40302890815E+02 -0.79085300574E+02  0.12726237536E+03  0.15515965957E+03  0.00000000000E+00 0.  1.
</event>
<event>
12    1  0.8747122E-002  0.1876285E+03  0.7818608E-02  0.1160639E+00
         21   -1    0    0  501  502  0.00000000000E+00  0.00000000000E+00  0.70317951925E+03  0.70317951925E+03  0.00000000000E+00 0.  1.
         21   -1    0    0  502  503 -0.00000000000E+00 -0.00000000000E+00 -0.55777036800E+02  0.55777036800E+02  0.00000000000E+00 0.  1.
         -6    2    1    2    0  503  0.59001765201E+02 -0.51059082004E+02  0.44547257174E+03  0.48337384008E+03  0.17063475306E+03 0.  0.
        -24    2    3    3    0    0 -0.19863524084E+02 -0.67347378638E+02  0.23774293740E+03  0.26053144410E+03  0.80154226883E+02 0.  0.
          6    2    1    2  501    0 -0.59001765201E+02  0.51059082004E+02  0.20192991072E+03  0.27558271597E+03  0.17053417942E+03 0.  0.
         24    2    5    5    0    0 -0.42552281355E+02 -0.33785106739E+02  0.79820309325E+02  0.12590985058E+03  0.80807664283E+02 0.  0.
          5    1    5    5  501    0 -0.16449483846E+02  0.84844188743E+02  0.12210960139E+03  0.14967286539E+03  0.47000000000E+01 0. -1.
        -13    1    6    6    0    0 -0.63667849192E+02 -0.13582127242E+02  0.68690257092E+02  0.94638367593E+02  0.00000000000E+00 0.  1.
         14    1    6    6    0    0  0.21115567837E+02 -0.20202979497E+02  0.11130052233E+02  0.31271482989E+02  0.00000000000E+00 0. -1.
         -5    1    3    3    0  503  0.78865289285E+02  0.16288296634E+02  0.20772963434E+03  0.22284239598E+03  0.47000000000E+01 0.  1.
         13    1    4    4    0    0 -0.20394333107E+02 -0.35429996852E+02  0.22048569973E+03  0.22424352228E+03  0.00000000000E+00 0. -1.
        -14    1    4    4    0    0  0.53080902316E+00 -0.31917381786E+02  0.17257237663E+02  0.36287921821E+02  0.00000000000E+00 0.  1.
</event>
<event>
12    1  0.8747122E-002  0.1831985E+03  0.7818608E-02  0.1164755E+00
         21   -1    0    0  503  502  0.00000000000E+00  0.00000000000E+00  0.67572560711E+03  0.67572560711E+03  0.00000000000E+00 0.  1.
         21   -1    0    0  501  503 -0.00000000000E+00 -0.00000000000E+00 -0.75447817881E+02  0.75447817881E+02  0.00000000000E+00 0.  1.
          6    2    1    2  501    0 -0.53441500312E+02 -0.30529489255E+02  0.51977406255E+03  0.55111412397E+03  0.17255045023E+03 0.  0.
         24    2    3    3    0    0 -0.12085740176E+02 -0.75092422072E+02  0.23010236203E+03  0.25509395919E+03  0.79629730842E+02 0.  0.
         -6    2    1    2    0  502  0.53441500312E+02  0.30529489255E+02  0.80503726684E+02  0.20005930102E+03  0.17249588472E+03 0.  0.
        -24    2    5    5    0    0 -0.14375264855E+02  0.61400398809E+02  0.74885555329E+02  0.12518754037E+03  0.78021898545E+02 0.  0.
          5    1    3    3  501    0 -0.41355760136E+02  0.44562932818E+02  0.28967170051E+03  0.29602016478E+03  0.47000000000E+01 0. -1.
        -11    1    4    4    0    0 -0.24904877246E+02  0.25234976302E+01  0.99751554096E+02  0.10284451126E+03  0.00000000000E+00 0.  1.
         12    1    4    4    0    0  0.12819137070E+02 -0.77615919703E+02  0.13035080794E+03  0.15224944794E+03  0.00000000000E+00 0. -1.
         -5    1    5    5    0  502  0.67816765167E+02 -0.30870909554E+02  0.56181713553E+01  0.74871760656E+02  0.47000000000E+01 0.  1.
         11    1    6    6    0    0  0.23058824880E+02  0.14412839404E+02  0.55933009868E+02  0.62192772388E+02  0.00000000000E+00 0. -1.
        -12    1    6    6    0    0 -0.37434089735E+02  0.46987559405E+02  0.18952545461E+02  0.62994767978E+02  0.00000000000E+00 0.  1.
</event>
<event>
12    1  0.8747122E-002  0.2863443E+03  0.7818608E-02  0.1092379E+00
         21   -1    0    0  503  502  0.00000000000E+00  0.00000000000E+00  0.22794367948E+03  0.22794367948E+03  0.00000000000E+00 0. -1.
         21   -1    0    0  501  503 -0.00000000000E+00 -0.00000000000E+00 -0.96861744539E+03  0.96861744539E+03  0.00000000000E+00 0.  1.
          6    2    1    2  501    0 -0.14312591839E+02  0.22784840942E+03 -0.84489103841E+03  0.89184107140E+03  0.17152224896E+03 0.  0.
         24    2    3    3    0    0 -0.27180168580E+02  0.23051364397E+03 -0.84302031880E+03  0.87776031864E+03  0.76841508606E+02 0.  0.
         -6    2    1    2    0  502  0.14312591839E+02 -0.22784840942E+03  0.10421727250E+03  0.30472005347E+03  0.17283900930E+03 0.  0.
        -24    2    5    5    0    0  0.83210929742E+01 -0.19075432853E+03  0.14099108533E+02  0.20696913341E+03  0.78619227163E+02 0.  0.
          5    1    3    3  501    0  0.12867576741E+02 -0.26652345463E+01 -0.18707196056E+01  0.14080752757E+02  0.47000000000E+01 0. -1.
        -13    1    4    4    0    0 -0.52392762648E+02  0.16632836326E+03 -0.56396231489E+03  0.59030807094E+03  0.00000000000E+00 0.  1.
         14    1    4    4    0    0  0.25212594068E+02  0.64185280715E+02 -0.27905800391E+03  0.28745224770E+03  0.00000000000E+00 0. -1.
         -5    1    5    5    0  502  0.59914988647E+01 -0.37094080893E+02  0.90118163971E+02  0.97750920064E+02  0.47000000000E+01 0.  1.
         13    1    6    6    0    0  0.25862352862E+02 -0.30912505707E+02  0.22105599467E+02  0.45968487385E+02  0.00000000000E+00 0. -1.
        -14    1    6    6    0    0 -0.17541259888E+02 -0.15984182282E+03 -0.80064909341E+01  0.16100064602E+03  0.00000000000E+00 0.  1.
</event>
<event>
12    1  0.8747122E-002  0.3541414E+03  0.7818608E-02  0.1061362E+00
         21   -1    0    0  501  502  0.00000000000E+00  0.00000000000E+00  0.55709091716E+03  0.55709091716E+03  0.00000000000E+00 0.  1.
         21   -1    0    0  502  503 -0.00000000000E+00 -0.00000000000E+00 -0.24654026740E+03  0.24654026740E+03  0.00000000000E+00 0.  1.
         -6    2    1    2    0  503  0.28256089398E+03  0.11300315379E+03  0.28756074385E+02  0.35105602090E+03  0.17263558851E+03 0.  0.
        -24    2    3    3    0    0  0.76970237064E+02  0.90572514570E+02  0.11120112459E+02  0.14344154900E+03  0.79523727837E+02 0.  0.
          6    2    1    2  501    0 -0.28256089398E+03 -0.11300315379E+03  0.28179457538E+03  0.45257516366E+03  0.18112350614E+03 0.  0.
         24    2    5    5    0    0 -0.26313543230E+03 -0.51160632788E+02  0.26517568290E+03  0.38549220344E+03  0.80177490789E+02 0.  0.
          5    1    5    5  501    0 -0.19425461681E+02 -0.61842521000E+02  0.16618892479E+02  0.67082960224E+02  0.47000000000E+01 0. -1.
        -11    1    6    6    0    0 -0.13819492925E+03 -0.10747973478E+02  0.85197703881E+02  0.16270220082E+03  0.00000000000E+00 0.  1.
         12    1    6    6    0    0 -0.12494050305E+03 -0.40412659310E+02  0.17997797902E+03  0.22279000262E+03  0.00000000000E+00 0. -1.
         -5    1    3    3    0  503  0.20559065692E+03  0.22430639217E+02  0.17635961927E+02  0.20761447190E+03  0.47000000000E+01 0.  1.
         13    1    4    4    0    0 -0.16518403621E+02  0.93891085786E+01  0.40152915393E+01  0.19419978997E+02  0.00000000000E+00 0. -1.
        -14    1    4    4    0    0  0.93488640685E+02  0.81183405992E+02  0.71048209194E+01  0.12402157000E+03  0.00000000000E+00 0.  1.
</event>
<event>
12    1  0.8747122E-002  0.2637826E+03  0.7818608E-02  0.1104964E+00
         21   -1    0    0  503  502  0.00000000000E+00  0.00000000000E+00  0.10899929639E+03  0.10899929639E+03  0.00000000000E+00 0. -1.
         21   -1    0    0  501  503 -0.00000000000E+00 -0.00000000000E+00 -0.65007083608E+03  0.65007083608E+03  0.00000000000E+00 0. -1.
          6    2    1    2  501    0 -0.19618926846E+03  0.36660785069E+02 -0.32422913535E+03  0.41797820265E+03  0.17247319637E+03 0.  0.
         24    2    3    3    0    0 -0.69631044162E+02  0.42732182264E+02 -0.69237415933E+02  0.13320335655E+03  0.79213589240E+02 0.  0.
         -6    2    1    2    0  502  0.19618926846E+03 -0.36660785069E+02 -0.21684240434E+03  0.34109192981E+03  0.17172313193E+03 0.  0.
        -24    2    5    5    0    0  0.11844590293E+03 -0.10598676636E+02 -0.44411760193E+02  0.15010061739E+03  0.80100106293E+02 0.  0.
          5    1    3    3  501    0 -0.12655822430E+03 -0.60713971951E+01 -0.25499171941E+03  0.28477484610E+03  0.47000000000E+01 0. -1.
        -13    1    4    4    0    0 -0.18312046607E+02 -0.22758709220E+02 -0.27499453090E+02  0.40118696595E+02  0.00000000000E+00 0.  1.
         14    1    4    4    0    0 -0.51318997555E+02  0.65490891484E+02 -0.41737962843E+02  0.93084659959E+02  0.00000000000E+00 0. -1.
         -5    1    5    5    0  502  0.77743365525E+02 -0.26062108433E+02 -0.17243064415E+03  0.19099131242E+03  0.47000000000E+01 0.  1.
         11    1    6    6    0    0  0.11999924802E+03  0.10641838419E+02 -0.29286593321E+02  0.12397892078E+03  0.00000000000E+00 0. -1.
        -12    1    6    6    0    0 -0.15533450817E+01 -0.21240515055E+02 -0.15125166872E+02  0.26121696608E+02  0.00000000000E+00 0.  1.
</event>
<event>
12    1  0.8747122E-002  0.1900861E+03  0.7818608E-02  0.1158571E+00
         21   -1    0    0  501  502  0.00000000000E+00  0.00000000000E+00  0.12023634548E+04  0.12023634548E+04  0.00000000000E+00 0.  1.
         21   -1    0    0  502  503 -0.00000000000E+00 -0.00000000000E+00 -0.69576085545E+02  0.69576085545E+02  0.00000000000E+00 0.  1.
         -6    2    1    2    0  503 -0.79935994803E+01  0.75189552805E+02  0.86796305145E+02  0.20896484967E+03  0.17439995220E+03 0.  0.
        -24    2    3    3    0    0 -0.18037928319E+02 -0.22162486676E+02  0.69139190004E+02  0.10940495891E+03  0.79829034607E+02 0.  0.
          6    2    1    2  501    0  0.79935994803E+01 -0.75189552805E+02  0.10459910642E+04  0.10629746907E+04  0.17349501529E+03 0.  0.
         24    2    5    5    0    0  0.17354617757E+02 -0.77045278977E+02  0.36678299270E+03  0.38368331972E+03  0.80286788001E+02 0.  0.
          5    1    5    5  501    0 -0.93610182772E+01  0.18557261721E+01  0.67920807145E+03  0.67929137100E+03  0.47000000000E+01 0. -1.
        -13    1    6    6    0    0 -0.65243245708E+01  0.15526696777E+02  0.62987637123E+02  0.65200364678E+02  0.00000000000E+00 0.  1.
         14    1    6    6    0    0  0.23878942328E+02 -0.92571975754E+02  0.30379535558E+03  0.31848295504E+03  0.00000000000E+00 0. -1.
         -5    1    3    3    0  503  0.10044328839E+02  0.97352039481E+02  0.17657115141E+02  0.99559890760E+02  0.47000000000E+01 0.  1.
         11    1    4    4    0    0  0.12457651008E+02  0.25192770946E+02  0.27858998430E+02  0.39572623998E+02  0.00000000000E+00 0. -1.
        -12    1    4    4    0    0 -0.30495579327E+02 -0.47355257623E+02  0.41280191574E+02  0.69832334913E+02  0.00000000000E+00 0.  1.
</event>
<event>
12    1  0.8747122E-002  0.2155179E+03  0.7818608E-02  0.1138469E+00
         21   -1    0    0  503  502  0.00000000000E+00  0.00000000000E+00  0.30281870772E+02  0.30281870772E+02  0.00000000000E+00 0.  1.
         21   -1    0    0  501  503 -0.00000000000E+00 -0.00000000000E+00 -0.15052625015E+04  0.15052625015E+04  0.00000000000E+00 0.  1.
          6    2    1    2  501    0 -0.12742211345E+03 -0.34103704148E+02 -0.67142374706E+03  0.70516510243E+03  0.17043625185E+03 0.  0.
         24    2    3    3    0    0 -0.22695929712E+02  0.16416571446E+02 -0.42114989350E+03  0.42915973368E+03  0.77628829526E+02 0.  0.
         -6    2    1    2    0  502  0.12742211345E+03  0.34103704148E+02 -0.80355688364E+03  0.83037926981E+03  0.16256263055E+03 0.  0.
        -24    2    5    5    0    0  0.56319108671E+01 -0.26792731213E+01 -0.36475551317E+03  0.37348259266E+03  0.80023532223E+02 0.  0.
          5    1    3    3  501    0 -0.10472618374E+03 -0.50520275594E+02 -0.25027385356E+03  0.27600536876E+03  0.47000000000E+01 0. -1.
        -11    1    4    4    0    0 -0.46363634291E+02 -0.70781519710E+01 -0.19481076262E+03  0.20037694491E+03  0.00000000000E+00 0.  1.
         12    1    4    4    0    0  0.23667704579E+02  0.23494723417E+02 -0.22633913088E+03  0.22878278877E+03  0.00000000000E+00 0. -1.
         -5    1    5    5    0  502  0.12179020258E+03  0.36782977269E+02 -0.43880137047E+03  0.45689667715E+03  0.47000000000E+01 0.  1.
         11    1    6    6    0    0 -0.35034421255E+02  0.10825114603E+02 -0.19381502414E+03  0.19725328226E+03  0.00000000000E+00 0. -1.
        -12    1    6    6    0    0  0.40666332122E+02 -0.13504387724E+02 -0.17094048902E+03  0.17622931040E+03  0.00000000000E+00 0.  1.
</event>
<event>
12    1  0.8747122E-002  0.2140927E+03  0.7818608E-02  0.1140235E+00
         21   -1    0    0  501  502  0.00000000000E+00  0.00000000000E+00  0.51361223570E+02  0.51361223570E+02  0.00000000000E+00 0. -1.
         21   -1    0    0  502  503 -0.00000000000E+00 -0.00000000000E+00 -0.24049938770E+04  0.24049938770E+04  0.00000000000E+00 0. -1.
         -6    2    1    2    0  503 -0.77762828316E+02  0.79612576750E+02 -0.21726246750E+04  0.21831476474E+04  0.18289464652E+03 0.  0.
        -24    2    3    3    0    0 -0.23771138230E+02 -0.21572817863E+02 -0.13241732537E+04  0.13269668890E+04  0.79849014337E+02 0.  0.
          6    2    1    2  501    0  0.77762828316E+02 -0.79612576750E+02 -0.18100797835E+03  0.27320745318E+03  0.17173585647E+03 0.  0.
         24    2    5    5    0    0  0.95129576675E+02 -0.64229846248E+02 -0.64341298820E+02  0.15416361058E+03  0.80321271068E+02 0.  0.
          5    1    5    5  501    0 -0.17366748360E+02 -0.15382730502E+02 -0.11666667953E+03  0.11904384260E+03  0.47000000000E+01 0. -1.
        -11    1    6    6    0    0  0.27069599979E+02 -0.19223914960E+02 -0.64528243838E+02  0.72568701257E+02  0.00000000000E+00 0.  1.
         12    1    6    6    0    0  0.68059976696E+02 -0.45005931289E+02  0.18694501777E+00  0.81594909323E+02  0.00000000000E+00 0. -1.
         -5    1    3    3    0  503 -0.53991690085E+02  0.10118539461E+03 -0.84845142131E+03  0.85618075838E+03  0.47000000000E+01 0.  1.
         11    1    4    4    0    0 -0.44589138253E+02 -0.40836638804E+01 -0.11313976987E+04  0.11322833657E+04  0.00000000000E+00 0. -1.
        -12    1    4    4    0    0  0.20818000023E+02 -0.17489153983E+02 -0.19277555502E+03  0.19468352331E+03  0.00000000000E+00 0.  1.
</event>
<event>
12    1  0.8747122E-002  0.2061640E+03  0.7818608E-02  0.1144961E+00
         21   -1    0    0  501  502  0.00000000000E+00  0.00000000000E+00  0.15342647370E+04  0.15342647370E+04  0.00000000000E+00 0. -1.
         21   -1    0    0  502  503 -0.00000000000E+00 -0.00000000000E+00 -0.48090874214E+02  0.48090874214E+02  0.00000000000E+00 0. -1.
         -6    2    1    2    0  503 -0.53540752981E+02  0.97236628488E+02  0.22690990411E+03  0.30658066716E+03  0.17372975205E+03 0.  0.
        -24    2    3    3    0    0  0.23825008888E+02  0.18865188770E+02  0.14882573915E+03  0.17150005978E+03  0.79621878121E+02 0.  0.
          6    2    1    2  501    0  0.53540752981E+02 -0.97236628488E+02  0.12592639587E+04  0.12757749441E+04  0.17185580029E+03 0.  0.
         24    2    5    5    0    0  0.70783762039E+02 -0.62200731891E+01  0.80444406543E+03  0.81159334166E+03  0.80650279299E+02 0.  0.
          5    1    5    5  501    0 -0.17243009057E+02 -0.91016555299E+02  0.45481989327E+03  0.46418160240E+03  0.47000000000E+01 0. -1.
        -13    1    6    6    0    0  0.49715060004E+02 -0.71125325446E+01  0.76681869986E+03  0.76846151092E+03  0.00000000000E+00 0.  1.
         14    1    6    6    0    0  0.21068702035E+02  0.89245935549E+00  0.37625365566E+02  0.43131830742E+02  0.00000000000E+00 0. -1.
         -5    1    3    3    0  503 -0.77365761869E+02  0.78371439718E+02  0.78084164957E+02  0.13508060738E+03  0.47000000000E+01 0.  1.
         11    1    4    4    0    0  0.28374647706E+02 -0.26931761891E+02  0.64667029722E+02  0.75579528737E+02  0.00000000000E+00 0. -1.
        -12    1    4    4    0    0 -0.45496388183E+01  0.45796950661E+02  0.84158709431E+02  0.95920531047E+02  0.00000000000E+00 0.  1.
</event>
<event>
12    1  0.8747122E-002  0.3713562E+03  0.7818608E-02  0.1054199E+00
         21   -1    0    0  501  502  0.00000000000E+00  0.00000000000E+00  0.26078357138E+03  0.26078357138E+03  0.00000000000E+00 0. -1.
         21   -1    0    0  502  503 -0.00000000000E+00 -0.00000000000E+00 -0.88605243832E+03  0.88605243832E+03  0.00000000000E+00 0.  1.
         -6    2    1    2    0  503  0.16570194634E+03 -0.28435408371E+03 -0.67697586949E+03  0.77214101921E+03  0.17202048054E+03 0.  0.
        -24    2    3    3    0    0  0.18848880396E+03 -0.27730494765E+03 -0.60633447816E+03  0.69743340668E+03  0.79660492968E+02 0.  0.
          6    2    1    2  501    0 -0.16570194634E+03  0.28435408371E+03  0.51707002545E+02  0.37469499049E+03  0.17148860558E+03 0.  0.
         24    2    5    5    0    0 -0.18578626794E+03  0.27395600488E+03  0.27857155719E+02  0.34149250246E+03  0.79200240816E+02 0.  0.
          5    1    5    5  501    0  0.20084321609E+02  0.10398078833E+02  0.23849846825E+02  0.33202488031E+02  0.47000000000E+01 0. -1.
        -13    1    6    6    0    0 -0.70096140802E+02  0.43542653372E+02  0.77936430760E+01  0.82886503669E+02  0.00000000000E+00 0.  1.
         14    1    6    6    0    0 -0.11569012714E+03  0.23041335151E+03  0.20063512643E+02  0.25860599879E+03  0.00000000000E+00 0. -1.
         -5    1    3    3    0  503 -0.22786857629E+02 -0.70491360604E+01 -0.70641391336E+02  0.74707612528E+02  0.47000000000E+01 0.  1.
         13    1    4    4    0    0  0.69241240629E+02 -0.11789219799E+03 -0.32686424672E+03  0.35430658410E+03  0.00000000000E+00 0. -1.
        -14    1    4    4    0    0  0.11924756334E+03 -0.15941274967E+03 -0.27947023144E+03  0.34312682259E+03  0.00000000000E+00 0.  1.
</event>
<event>
12    1  0.8747122E-002  0.1753421E+03  0.7818608E-02  0.1172986E+00
         21   -1    0    0  501  502  0.00000000000E+00  0.00000000000E+00  0.71243536981E+02  0.71243536981E+02  0.00000000000E+00 0. -1.
         21   -1    0    0  502  503 -0.00000000000E+00 -0.00000000000E+00 -0.53159075714E+03  0.53159075714E+03  0.00000000000E+00 0. -1.
         -6    2    1    2    0  503  0.43697515341E+02 -0.85912053945E+00 -0.36341998203E+03  0.40248527173E+03  0.16736218117E+03 0.  0.
        -24    2    3    3    0    0 -0.40373025123E+02  0.15014516949E+02 -0.15740835453E+03  0.17936488089E+03  0.74424146253E+02 0.  0.
          6    2    1    2  501    0 -0.43697515341E+02  0.85912053945E+00 -0.96927238127E+02  0.20034902239E+03  0.16980762747E+03 0.  0.
         24    2    5    5    0    0 -0.11673692921E+02 -0.30510932690E+02  0.10415976483E+01  0.92508453840E+02  0.86542111057E+02 0.  0.
          5    1    5    5  501    0 -0.32023822420E+02  0.31370053229E+02 -0.97968835775E+02  0.10784056855E+03  0.47000000000E+01 0. -1.
        -11    1    6    6    0    0 -0.44703457865E+02  0.22513889484E+01 -0.69752440552E+01  0.45300352393E+02  0.00000000000E+00 0.  1.
         12    1    6    6    0    0  0.33029764943E+02 -0.32762321638E+02  0.80168417035E+01  0.47208101447E+02  0.00000000000E+00 0. -1.
         -5    1    3    3    0  503  0.84070540464E+02 -0.15873637488E+02 -0.20601162750E+03  0.22312039083E+03  0.47000000000E+01 0.  1.
         13    1    4    4    0    0 -0.10631345992E+02  0.22355189418E+02 -0.67983564782E+01  0.25670949775E+02  0.00000000000E+00 0. -1.
        -14    1    4    4    0    0 -0.29741679131E+02 -0.73406724691E+01 -0.15060999805E+03  0.15369393112E+03  0.00000000000E+00 0.  1.
</event>
<event>
12    1  0.8747122E-002  0.2281052E+03  0.7818608E-02  0.1128067E+00
         21   -1    0    0  503  502  0.00000000000E+00  0.00000000000E+00  0.11836309100E+04  0.11836309100E+04  0.00000000000E+00 0.  1.
         21   -1    0    0  501  503 -0.00000000000E+00 -0.00000000000E+00 -0.44207620919E+02  0.44207620919E+02  0.00000000000E+00 0.  1.
          6    2    1    2  501    0  0.92535313459E+02 -0.11735120559E+03  0.51516352459E+03  0.56320914910E+03  0.17168866844E+03 0.  0.
         24    2    3    3    0    0  0.10462423539E+03 -0.77370954346E+02  0.49186426178E+03  0.51515180658E+03  0.80736835424E+02 0.  0.
         -6    2    1    2    0  502 -0.92535313459E+02  0.11735120559E+03  0.62425976452E+03  0.66462938184E+03  0.17233070512E+03 0.  0.
        -24    2    5    5    0    0 -0.69114957742E+02 -0.29776308774E+01  0.26794277551E+03  0.28778534434E+03  0.79002087317E+02 0.  0.
          5    1    3    3  501    0 -0.12088921933E+02 -0.39980251244E+02  0.23299262813E+02  0.48057342527E+02  0.47000000000E+01 0. -1.
        -13    1    4    4    0    0  0.16080898324E+02  0.16907314106E+02  0.61727792066E+02  0.65990702940E+02  0.00000000000E+00 0.  1.
         14    1    4    4    0    0  0.88543337068E+02 -0.94278268452E+02  0.43013646971E+03  0.44916110364E+03  0.00000000000E+00 0. -1.
         -5    1    5    5    0  502 -0.23420355717E+02  0.12032883647E+03  0.35631698901E+03  0.37684403751E+03  0.47000000000E+01 0.  1.
         13    1    6    6    0    0  0.45530272591E+01  0.24915613818E+02  0.82648395525E+02  0.86442322690E+02  0.00000000000E+00 0. -1.
        -14    1    6    6    0    0 -0.73667985002E+02 -0.27893244696E+02  0.18529437998E+03  0.20134302165E+03  0.00000000000E+00 0.  1.
</event>
<event>
12    1  0.8747122E-002  0.1928900E+03  0.7818608E-02  0.1157241E+00
         21   -1    0    0  503  502  0.00000000000E+00  0.00000000000E+00  0.30098755536E+03  0.30098755536E+03  0.00000000000E+00 0.  1.
         21   -1    0    0  501  503 -0.00000000000E+00 -0.00000000000E+00 -0.12582515008E+03  0.12582515008E+03  0.00000000000E+00 0.  1.
          6    2    1    2  501    0  0.71377088360E+02 -0.13553346927E+02  0.13307394429E+03  0.22938422848E+03  0.17213386556E+03 0.  0.
         24    2    3    3    0    0  0.65167902983E+02  0.22589258694E+02  0.15944378502E+02  0.10655806227E+03  0.79644630969E+02 0.  0.
         -6    2    1    2    0  502 -0.71377088360E+02  0.13553346927E+02  0.42088460994E+02  0.19742847695E+03  0.17868459085E+03 0.  0.
        -24    2    5    5    0    0 -0.11919086584E+03  0.15246499995E+02  0.36195856144E+02  0.14899463676E+03  0.80314030647E+02 0.  0.
          5    1    3    3  501    0  0.62091853763E+01 -0.36142605621E+02  0.11712956579E+03  0.12282616621E+03  0.47000000000E+01 0. -1.
        -13    1    4    4    0    0  0.39904792703E+02 -0.27596211109E+02  0.13313865013E+02  0.50311055940E+02  0.00000000000E+00 0.  1.
         14    1    4    4    0    0  0.25263110280E+02  0.50185469803E+02  0.26305134896E+01  0.56247006334E+02  0.00000000000E+00 0. -1.
         -5    1    5    5    0  502  0.47813777479E+02 -0.16931530680E+01  0.58926048499E+01  0.48433840195E+02  0.47000000000E+01 0.  1.
         13    1    6    6    0    0 -0.36659755205E+02  0.48526452966E+01  0.52512388339E+02  0.64226448969E+02  0.00000000000E+00 0. -1.
        -14    1    6    6    0    0 -0.82531110633E+02  0.10393854699E+02 -0.16316532195E+02  0.84768187787E+02  0.00000000000E+00 0.  1.
</event>
<event>
12    1  0.8747122E-002  0.1747654E+03  0.7818608E-02  0.1173450E+00
         21   -1    0    0  501  502  0.00000000000E+00  0.00000000000E+00  0.11365717935E+03  0.11365717935E+03  0.00000000000E+00 0. -1.
         21   -1    0    0  502  503 -0.00000000000E+00 -0.00000000000E+00 -0.36228720864E+03  0.36228720864E+03  0.00000000000E+00 0. -1.
         -6    2    1    2    0  503  0.14027864287E+02 -0.45530844583E+01 -0.24762265344E+03  0.30308402533E+03  0.17414200057E+03 0.  0.
        -24    2    3    3    0    0 -0.51512443756E+02  0.35152137383E+02 -0.13506213645E+03  0.16683426715E+03  0.75516139791E+02 0.  0.
          6    2    1    2  501    0 -0.14027864287E+02  0.45530844583E+01 -0.10073758561E+01  0.17286036266E+03  0.17222711348E+03 0.  0.
         24    2    5    5    0    0 -0.50167742074E+02 -0.49524288091E+02  0.21339832755E+01  0.10757321902E+03  0.81227988459E+02 0.  0.
          5    1    5    5  501    0  0.36139877787E+02  0.54077372549E+02 -0.31413591316E+01  0.65287143646E+02  0.47000000000E+01 0. -1.
        -13    1    6    6    0    0  0.84903727156E+01 -0.18576733109E+02 -0.28056343252E+02  0.34703599792E+02  0.00000000000E+00 0.  1.
         14    1    6    6    0    0 -0.58658114789E+02 -0.30947554982E+02  0.30190326527E+02  0.72869619224E+02  0.00000000000E+00 0. -1.
         -5    1    3    3    0  503  0.65540308043E+02 -0.39705221841E+02 -0.11256051699E+03  0.13624975818E+03  0.47000000000E+01 0.  1.
         13    1    4    4    0    0 -0.14344145198E+02 -0.83257026496E+01 -0.96347397519E+02  0.97764476344E+02  0.00000000000E+00 0. -1.
        -14    1    4    4    0    0 -0.37168298558E+02  0.43477840032E+02 -0.38714738930E+02  0.69069790806E+02  0.00000000000E+00 0.  1.
</event>
<event>
12    1  0.8747122E-002  0.1743499E+03  0.7818608E-02  0.1174462E+00
         21   -1    0    0  501  502  0.00000000000E+00  0.00000000000E+00  0.18865047151E+04  0.18865047151E+04  0.00000000000E+00 0.  1.
         21   -1    0    0  502  503 -0.00000000000E+00 -0.00000000000E+00 -0.20068960947E+02  0.20068960947E+02  0.00000000000E+00 0.  1.
         -6    2    1    2    0  503 -0.29632098639E+02 -0.28183241875E+02  0.49874743708E+03  0.52834355203E+03  0.16948612507E+03 0.  0.
        -24    2    3    3    0    0 -0.19264450093E+02 -0.60823738070E+02  0.47532274916E+03  0.48658596431E+03  0.82240735914E+02 0.  0.
          6    2    1    2  501    0  0.29632098639E+02  0.28183241875E+02  0.13676883171E+04  0.13782301240E+04  0.16515019129E+03 0.  0.
         24    2    5    5    0    0  0.52704477469E+02  0.42822268553E+02  0.13107611020E+04  0.13149100357E+04  0.79260500064E+02 0.  0.
          5    1    5    5  501    0 -0.23072378831E+02 -0.14639026678E+02  0.56927215126E+02  0.63320088352E+02  0.47000000000E+01 0. -1.
        -11    1    6    6    0    0  0.23594676004E+02  0.58142074161E+02  0.57491286809E+03  0.57832691051E+03  0.00000000000E+00 0.  1.
         12    1    6    6    0    0  0.29109801466E+02 -0.15319805608E+02  0.73584823390E+03  0.73658312519E+03  0.00000000000E+00 0. -1.
         -5    1    3    3    0  503 -0.10367648545E+02  0.32640496195E+02  0.23424687913E+02  0.41757587718E+02  0.47000000000E+01 0.  1.
         11    1    4    4    0    0  0.31385008191E+02 -0.11694108798E+02  0.14741937371E+03  0.15117619742E+03  0.00000000000E+00 0. -1.
        -12    1    4    4    0    0 -0.50649458284E+02 -0.49129629273E+02  0.32790337545E+03  0.33540976690E+03  0.00000000000E+00 0.  1.
</event>
<event>
12    1  0.8747122E-002  0.2513726E+03  0.7818608E-02  0.1112579E+00
         21   -1    0    0  501  502  0.00000000000E+00  0.00000000000E+00  0.26409525698E+03  0.26409525698E+03  0.00000000000E+00 0.  1.
         21   -1    0    0  502  503 -0.00000000000E+00 -0.00000000000E+00 -0.34387264480E+03  0.34387264480E+03  0.00000000000E+00 0. -1.
         -6    2    1    2    0  503  0.17145554125E+03  0.60119710868E+02 -0.20817258688E+03  0.32570295772E+03  0.17243899930E+03 0.  0.
        -24    2    3    3    0    0  0.11266189795E+03  0.10109655274E+03 -0.14584110222E+03  0.23060775257E+03  0.94853003237E+02 0.  0.
          6    2    1    2  501    0 -0.17145554125E+03 -0.60119710868E+02  0.12839519906E+03  0.28226494405E+03  0.17371467767E+03 0.  0.
         24    2    5    5    0    0 -0.13528268384E+03  0.22178927738E+02  0.10407602358E+03  0.18901767157E+03  0.78118833187E+02 0.  0.
          5    1    5    5  501    0 -0.36172857408E+02 -0.82298638607E+02  0.24319175485E+02  0.93247272485E+02  0.47000000000E+01 0. -1.
        -13    1    6    6    0    0 -0.46824595814E+02  0.38562895057E+02  0.15152381456E+02  0.62523869938E+02  0.00000000000E+00 0.  1.
         14    1    6    6    0    0 -0.88458088029E+02 -0.16383967319E+02  0.88923642122E+02  0.12649380163E+03  0.00000000000E+00 0. -1.
         -5    1    3    3    0  503  0.58793643302E+02 -0.40976841877E+02 -0.62331484663E+02  0.95095205153E+02  0.47000000000E+01 0.  1.
         13    1    4    4    0    0  0.18369963537E+02  0.76212233657E+02 -0.85159687623E+02  0.11574943851E+03  0.00000000000E+00 0. -1.
        -14    1    4    4    0    0  0.94291934412E+02  0.24884319088E+02 -0.60681414595E+02  0.11485831406E+03  0.00000000000E+00 0.  1.
</event>
<event>
12    1  0.8747122E-002  0.1948856E+03  0.7818608E-02  0.1155534E+00
         21   -1    0    0  503  502  0.00000000000E+00  0.00000000000E+00  0.17371944112E+04  0.17371944112E+04  0.00000000000E+00 0. -1.
         21   -1    0    0  501  503 -0.00000000000E+00 -0.00000000000E+00 -0.37946959996E+02  0.37946959996E+02  0.00000000000E+00 0. -1.
          6    2    1    2  501    0 -0.88231042280E+02  0.19086231333E+02  0.26712455301E+03  0.33065983343E+03  0.17271768169E+03 0.  0.
         24    2    3    3    0    0 -0.11110246128E+03  0.41195464918E+02  0.26145985673E+03  0.29800866498E+03  0.80044265806E+02 0.  0.
         -6    2    1    2    0  502  0.88231042280E+02 -0.19086231333E+02  0.14321228982E+04  0.14444815378E+04  0.16553524214E+03 0.  0.
        -24    2    5    5    0    0  0.76336489218E+02 -0.77424754123E+02  0.98564431953E+03  0.99402612950E+03  0.69075099560E+02 0.  0.
          5    1    3    3  501    0  0.22871419001E+02 -0.22109233584E+02  0.56646962805E+01  0.32651168444E+02  0.47000000000E+01 0. -1.
        -13    1    4    4    0    0 -0.11837262549E+03  0.42672049164E+02  0.20128801306E+03  0.23738122598E+03  0.00000000000E+00 0.  1.
         14    1    4    4    0    0  0.72701642132E+01 -0.14765842466E+01  0.60171843674E+02  0.60627439002E+02  0.00000000000E+00 0. -1.
         -5    1    5    5    0  502  0.11894553062E+02  0.58338522790E+02  0.44647857865E+03  0.45045540826E+03  0.47000000000E+01 0.  1.
         13    1    6    6    0    0 -0.55843374050E+01 -0.36846478606E+02  0.26579504846E+03  0.26839496194E+03  0.00000000000E+00 0. -1.
        -14    1    6    6    0    0  0.81920826623E+02 -0.40578275516E+02  0.71984927107E+03  0.72563116756E+03  0.00000000000E+00 0.  1.
</event>
<event>
12    1  0.8747122E-002  0.2556083E+03  0.7818608E-02  0.1109845E+00
         21   -1    0    0  501  502  0.00000000000E+00  0.00000000000E+00  0.21109063130E+03  0.21109063130E+03  0.00000000000E+00 0. -1.
         21   -1    0    0  502  503 -0.00000000000E+00 -0.00000000000E+00 -0.38233537137E+03  0.38233537137E+03  0.00000000000E+00 0.  1.
         -6    2    1    2    0  503 -0.90500890931E+02 -0.16766995427E+03 -0.21538551199E+03  0.33425519838E+03  0.17038777551E+03 0.  0.
        -24    2    3    3    0    0  0.15099302819E+02 -0.40226856308E+02 -0.55498173603E+02  0.10408309947E+03  0.76857370556E+02 0.  0.
          6    2    1    2  501    0  0.90500890931E+02  0.16766995427E+03  0.44140771923E+02  0.25917080428E+03  0.17005138406E+03 0.  0.
         24    2    5    5    0    0  0.38251800740E+02  0.18171505855E+03  0.40601515126E+02  0.20474793483E+03  0.76089887791E+02 0.  0.
          5    1    5    5  501    0  0.52249090191E+02 -0.14045104282E+02  0.35392567969E+01  0.54422869446E+02  0.47000000000E+01 0. -1.
        -13    1    6    6    0    0  0.54826017678E+02  0.77271697923E+02  0.14792952715E+02  0.95893894301E+02  0.00000000000E+00 0.  1.
         14    1    6    6    0    0 -0.16574216938E+02  0.10444336063E+03  0.25808562411E+02  0.10885404053E+03  0.00000000000E+00 0. -1.
         -5    1    3    3    0  503 -0.10560019375E+03 -0.12744309796E+03 -0.15988733839E+03  0.23017209891E+03  0.47000000000E+01 0.  1.
         13    1    4    4    0    0  0.26507422109E+02 -0.53722901331E+02 -0.17875136532E+02  0.62516510301E+02  0.00000000000E+00 0. -1.
        -14    1    4    4    0    0 -0.11408119290E+02  0.13496045023E+02 -0.37623037071E+02  0.41566589173E+02  0.00000000000E+00 0.  1.
</event>
<event>
12    1  0.8747122E-002  0.4360352E+03  0.7818608E-02  0.1031998E+00
         21   -1    0    0  503  502  0.00000000000E+00  0.00000000000E+00  0.19146301433E+04  0.19146301433E+04  0.00000000000E+00 0.  1.
         21   -1    0    0  501  503 -0.00000000000E+00 -0.00000000000E+00 -0.10324537100E+03  0.10324537100E+03  0.00000000000E+00 0.  1.
          6    2    1    2  501    0  0.31385512038E+03  0.24834683461E+03  0.70609519222E+03  0.82968709382E+03  0.17213095690E+03 0.  0.
         24    2    3    3    0    0  0.31198638982E+03  0.20460282996E+03  0.56554804798E+03  0.68240294718E+03  0.81433176804E+02 0.  0.
         -6    2    1    2    0  502 -0.31385512038E+03 -0.24834683461E+03  0.11052895801E+04  0.11881884205E+04  0.17304762319E+03 0.  0.
        -24    2    5    5    0    0 -0.23196942184E+03 -0.13014561116E+03  0.57665491924E+03  0.64032576297E+03  0.82088330909E+02 0.  0.
          5    1    3    3  501    0  0.18687305539E+01  0.43744004648E+02  0.14054714424E+03  0.14728414663E+03  0.47000000000E+01 0. -1.
        -11    1    4    4    0    0  0.23716595938E+03  0.17782746469E+03  0.49041005997E+03  0.57303780539E+03  0.00000000000E+00 0.  1.
         12    1    4    4    0    0  0.74820430440E+02  0.26775365272E+02  0.75137988016E+02  0.10936514180E+03  0.00000000000E+00 0. -1.
         -5    1    5    5    0  502 -0.81885698532E+02 -0.11820122344E+03  0.52863466089E+03  0.54786265755E+03  0.47000000000E+01 0.  1.
         13    1    6    6    0    0 -0.19506275744E+02  0.23357445111E+01  0.12990010244E+02  0.23551875976E+02  0.00000000000E+00 0. -1.
        -14    1    6    6    0    0 -0.21246314610E+03 -0.13248135567E+03  0.56366490899E+03  0.61677388700E+03  0.00000000000E+00 0.  1.
</event>
<event>
12    1  0.8747122E-002  0.5835683E+03  0.7818608E-02  0.9940464E-01
         21   -1    0    0  503  502  0.00000000000E+00  0.00000000000E+00  0.10921142164E+04  0.10921142164E+04  0.00000000000E+00 0. -1.
         21   -1    0    0  501  503 -0.00000000000E+00 -0.00000000000E+00 -0.33417910257E+03  0.33417910257E+03  0.00000000000E+00 0.  1.
          6    2    1    2  501    0 -0.54983463035E+03 -0.92874853545E+02  0.19282423567E+03  0.61394961035E+03  0.16973237475E+03 0.  0.
         24    2    3    3    0    0 -0.29694218616E+03 -0.14046438152E+02  0.15884251094E+03  0.34684409746E+03  0.81840823043E+02 0.  0.
         -6    2    1    2    0  502  0.54983463035E+03  0.92874853545E+02  0.56511087811E+03  0.81234370857E+03  0.17207015180E+03 0.  0.
        -24    2    5    5    0    0  0.17934962842E+03 -0.93293334175E+01  0.23107903334E+03  0.30312450645E+03  0.78953284184E+02 0.  0.
          5    1    3    3  501    0 -0.25289244419E+03 -0.78828415393E+02  0.33981724728E+02  0.26710551289E+03  0.47000000000E+01 0. -1.
        -13    1    4    4    0    0 -0.19730273618E+03 -0.43623613870E+02  0.84335620617E+02  0.21896092413E+03  0.00000000000E+00 0.  1.
         14    1    4    4    0    0 -0.99639449975E+02  0.29577175717E+02  0.74506890320E+02  0.12788317333E+03  0.00000000000E+00 0. -1.
         -5    1    5    5    0  502  0.37048500193E+03  0.10220418696E+03  0.33403184477E+03  0.50921920212E+03  0.47000000000E+01 0.  1.
         11    1    6    6    0    0  0.14105837295E+03  0.26490692385E+02  0.16272873679E+03  0.21697894631E+03  0.00000000000E+00 0. -1.
        -12    1    6    6    0    0  0.38291255473E+02 -0.35820025802E+02  0.68350296552E+02  0.86145560146E+02  0.00000000000E+00 0.  1.
</event>
<event>
12    1  0.8747122E-002  0.1755219E+03  0.7818608E-02  0.1172289E+00
         21   -1    0    0  503  502  0.00000000000E+00  0.00000000000E+00  0.30862594124E+02  0.30862594124E+02  0.00000000000E+00 0. -1.
         21   -1    0    0  501  503 -0.00000000000E+00 -0.00000000000E+00 -0.10422879314E+04  0.10422879314E+04  0.00000000000E+00 0. -1.
          6    2    1    2  501    0  0.27130125912E+02 -0.22296156578E+02 -0.61784488179E+03  0.64220561227E+03  0.17164669571E+03 0.  0.
         24    2    3    3    0    0 -0.15836451865E+02  0.42258108513E+02 -0.42032749797E+03  0.42995908849E+03  0.78441515033E+02 0.  0.
         -6    2    1    2    0  502 -0.27130125912E+02  0.22296156578E+02 -0.39358045545E+03  0.43094491322E+03  0.17197319845E+03 0.  0.
        -24    2    5    5    0    0  0.96221732708E+01  0.27570428374E+02 -0.38258188373E+03  0.39193711889E+03  0.79956817516E+02 0.  0.
          5    1    3    3  501    0  0.42966577777E+02 -0.64554265091E+02 -0.19751738382E+03  0.21224652379E+03  0.47000000000E+01 0. -1.
        -13    1    4    4    0    0  0.28973681869E+02  0.13864313825E+02 -0.93716912741E+02  0.99068426719E+02  0.00000000000E+00 0.  1.
         14    1    4    4    0    0 -0.44810133734E+02  0.28393794688E+02 -0.32661058523E+03  0.33089066177E+03  0.00000000000E+00 0. -1.
         -5    1    5    5    0  502 -0.36752299183E+02 -0.52742717960E+01 -0.10998571720E+02  0.39007794325E+02  0.47000000000E+01 0.  1.
         11    1    6    6    0    0  0.34110264589E+02 -0.39629163999E+01 -0.84775523861E+02  0.91466410789E+02  0.00000000000E+00 0. -1.
        -12    1    6    6    0    0 -0.24488091318E+02  0.31533344774E+02 -0.29780635987E+03  0.30047070811E+03  0.00000000000E+00 0.  1.
</event>
<event>
12    1  0.8747122E-002  0.2608583E+03  0.7818608E-02  0.1106682E+00
         21   -1    0    0  501  502  0.00000000000E+00  0.00000000000E+00  0.70486333215E+03  0.70486333215E+03  0.00000000000E+00 0.  1.
         21   -1    0    0  502  503 -0.00000000000E+00 -0.00000000000E+00 -0.13225967317E+03  0.13225967317E+03  0.00000000000E+00 0. -1.
         -6    2    1    2    0  503 -0.16429742267E+03 -0.10348416962E+03  0.68523255647E+02  0.26970813586E+03  0.17419651411E+03 0.  0.
        -24    2    3    3    0    0 -0.86274465046E+02 -0.13033708501E+03  0.31564871600E+02  0.17917265590E+03  0.81703491081E+02 0.  0.
          6    2    1    2  501    0  0.16429742267E+03  0.10348416962E+03  0.50408040334E+03  0.56741486946E+03  0.17366624485E+03 0.  0.
         24    2    5    5    0    0  0.53446272476E+02  0.10224008606E+03  0.20496860187E+03  0.24838589739E+03  0.79836627122E+02 0.  0.
          5    1    5    5  501    0  0.11085115020E+03  0.12440835566E+01  0.29911180147E+03  0.31902897207E+03  0.47000000000E+01 0. -1.
        -11    1    6    6    0    0  0.49836407195E+02  0.34865929332E+02  0.14825228135E+03  0.16024368766E+03  0.00000000000E+00 0.  1.
         12    1    6    6    0    0  0.36098652803E+01  0.67374156730E+02  0.56716320523E+02  0.88142209730E+02  0.00000000000E+00 0. -1.
         -5    1    3    3    0  503 -0.78022957625E+02  0.26852915389E+02  0.36958384047E+02  0.90535479966E+02  0.47000000000E+01 0.  1.
         13    1    4    4    0    0 -0.94032209512E+02 -0.12087646645E+03  0.46328481510E+02  0.15999845239E+03  0.00000000000E+00 0. -1.
        -14    1    4    4    0    0  0.77577444663E+01 -0.94606185577E+01 -0.14763609910E+02  0.19174203510E+02  0.00000000000E+00 0.  1.
</event>
<event>
12    1  0.8747122E-002  0.1781362E+03  0.7818608E-02  0.1170007E+00
         21   -1    0    0  501  502  0.00000000000E+00  0.00000000000E+00  0.34452039662E+02  0.34452039662E+02  0.00000000000E+00 0. -1.
         21   -1    0    0  502  503 -0.00000000000E+00 -0.00000000000E+00 -0.13532783905E+04  0.13532783905E+04  0.00000000000E+00 0. -1.
         -6    2    1    2    0  503  0.23459331057E+02 -0.37895333818E+02 -0.26164865453E+03  0.31564964968E+03  0.17084579709E+03 0.  0.
        -24    2    3    3    0    0  0.31859099981E+02 -0.74439989711E+02 -0.25233177839E+03  0.27672713468E+03  0.79688558552E+02 0.  0.
          6    2    1    2  501    0 -0.23459331057E+02  0.37895333818E+02 -0.10571776963E+04  0.10720807804E+04  0.17247064032E+03 0.  0.
         24    2    5    5    0    0 -0.19392935606E+02  0.86138131384E+02 -0.88801072454E+03  0.89605959589E+03  0.81017830480E+02 0.  0.
          5    1    5    5  501    0 -0.40663954509E+01 -0.48242797565E+02 -0.16916697173E+03  0.17602118456E+03  0.47000000000E+01 0. -1.
        -13    1    6    6    0    0  0.17781727230E+02  0.67766655396E+02 -0.38345752539E+03  0.38980531446E+03  0.00000000000E+00 0.  1.
         14    1    6    6    0    0 -0.37174662836E+02  0.18371475988E+02 -0.50455319915E+03  0.50625428143E+03  0.00000000000E+00 0. -1.
         -5    1    3    3    0  503 -0.83997689240E+01  0.36544655893E+02 -0.93168761364E+01  0.38922514991E+02  0.47000000000E+01 0.  1.
         13    1    4    4    0    0  0.44829681669E+02 -0.11378206114E+02 -0.75508549971E+02  0.88547755768E+02  0.00000000000E+00 0. -1.
        -14    1    4    4    0    0 -0.12970581688E+02 -0.63061783597E+02 -0.17682322842E+03  0.18817937892E+03  0.00000000000E+00 0.  1.
</event>
<event>
12    1  0.8747122E-002  0.1835305E+03  0.7818608E-02  0.1165334E+00
         21   -1    0    0  503  502  0.00000000000E+00  0.00000000000E+00  0.20620800816E+02  0.20620800816E+02  0.00000000000E+00 0.  1.
         21   -1    0    0  501  503 -0.00000000000E+00 -0.00000000000E+00 -0.19538828231E+04  0.19538828231E+04  0.00000000000E+00 0.  1.
          6    2    1    2  501    0 -0.32891816589E+02 -0.43427451069E+02 -0.13950824680E+04  0.14071028930E+04  0.17525879071E+03 0.  0.
         24    2    3    3    0    0 -0.74852522983E+02  0.83175846462E+01 -0.10296413649E+04  0.10356092329E+04  0.81566295723E+02 0.  0.
         -6    2    1    2    0  502  0.32891816589E+02  0.43427451069E+02 -0.53817955429E+03  0.56740073097E+03  0.17128497233E+03 0.  0.
        -24    2    5    5    0    0  0.79137607242E+02 -0.50045785424E+01 -0.33826080113E+03  0.35651229480E+03  0.79955237959E+02 0.  0.
          5    1    3    3  501    0  0.41960706393E+02 -0.51745035715E+02 -0.36544110312E+03  0.37149366004E+03  0.47000000000E+01 0. -1.
        -11    1    4    4    0    0 -0.35113987305E+02  0.18802515133E+02 -0.86497247499E+03  0.86588908595E+03  0.00000000000E+00 0.  1.
         12    1    4    4    0    0 -0.39738535677E+02 -0.10484930487E+02 -0.16466888993E+03  0.16972014699E+03  0.00000000000E+00 0. -1.
         -5    1    5    5    0  502 -0.46245790653E+02  0.48432029611E+02 -0.19991875315E+03  0.21088843617E+03  0.47000000000E+01 0.  1.
         11    1    6    6    0    0  0.29908216007E+02  0.30955011386E+02 -0.21172681092E+03  0.21605776213E+03  0.00000000000E+00 0. -1.
        -12    1    6    6    0    0  0.49229391236E+02 -0.35959589928E+02 -0.12653399021E+03  0.14045453267E+03  0.00000000000E+00 0.  1.
</event>
<event>
12    1  0.8747122E-002  0.1845831E+03  0.7818608E-02  0.1163600E+00
         21   -1    0    0  501  502  0.00000000000E+00  0.00000000000E+00  0.26313547445E+03  0.26313547445E+03  0.00000000000E+00 0.  1.
         21   -1    0    0  502  503 -0.00000000000E+00 -0.00000000000E+00 -0.14392107392E+03  0.14392107392E+03  0.00000000000E+00 0.  1.
         -6    2    1    2    0  503  0.55693306290E+02 -0.35849670524E+02  0.12523333509E+03  0.22305673512E+03  0.17229038169E+03 0.  0.
        -24    2    3    3    0    0  0.93518023431E+00 -0.77174241056E+02  0.56984719161E+02  0.12617466209E+03  0.81951504506E+02 0.  0.
          6    2    1    2  501    0 -0.55693306290E+02  0.35849670524E+02 -0.60189345569E+01  0.18399981325E+03  0.17155978684E+03 0.  0.
         24    2    5    5    0    0  0.19039464205E+02  0.40287523990E+02  0.34245868910E+02  0.98864474365E+02  0.81337684794E+02 0.  0.
          5    1    5    5  501    0 -0.74732770495E+02 -0.44378534656E+01 -0.40264803467E+02  0.85135338887E+02  0.47000000000E+01 0. -1.
        -11    1    6    6    0    0  0.20676461673E+02 -0.16019987594E+02 -0.91981851002E+01  0.27726569910E+02  0.00000000000E+00 0.  1.
         12    1    6    6    0    0 -0.16369974684E+01  0.56307511584E+02  0.43444054010E+02  0.71137904455E+02  0.00000000000E+00 0. -1.
         -5    1    3    3    0  503  0.54758126056E+02  0.41324570532E+02  0.68248615928E+02  0.96882073032E+02  0.47000000000E+01 0.  1.
         13    1    4    4    0    0  0.41007601542E+02 -0.32126555254E+02  0.22784291176E+02  0.56858269945E+02  0.00000000000E+00 0. -1.
        -14    1    4    4    0    0 -0.40072421308E+02 -0.45047685802E+02  0.34200427985E+02  0.69316392144E+02  0.00000000000E+00 0.  1.
</event>
<event>
12    1  0.8747122E-002  0.2154676E+03  0.7818608E-02  0.1137736E+00
         21   -1    0    0  503  502  0.00000000000E+00  0.00000000000E+00  0.14652083621E+03  0.14652083621E+03  0.00000000000E+00 0.  1.
         21   -1    0    0  501  503 -0.00000000000E+00 -0.00000000000E+00 -0.41829423372E+03  0.41829423372E+03  0.00000000000E+00 0.  1.
          6    2    1    2  501    0 -0.10052560628E+03 -0.81790623006E+02 -0.27769886017E+03  0.35148674417E+03  0.17213706997E+03 0.  0.
         24    2    3    3    0    0  0.56095232537E+01 -0.35073038875E+02 -0.17900118239E+03  0.19913675241E+03  0.79702183527E+02 0.  0.
         -6    2    1    2    0  502  0.10052560628E+03  0.81790623006E+02  0.59254626595E+01  0.21332832576E+03  0.16934804378E+03 0.  0.
        -24    2    5    5    0    0  0.28806405126E+02 -0.18204095323E+02  0.17223104081E+02  0.89666228858E+02  0.81130753852E+02 0.  0.
          5    1    3    3  501    0 -0.10613512954E+03 -0.46717584131E+02 -0.98697677781E+02  0.15234999176E+03  0.47000000000E+01 0. -1.
        -11    1    4    4    0    0 -0.36386848619E+02 -0.12470942512E+02 -0.64473065254E+02  0.75075317533E+02  0.00000000000E+00 0.  1.
         12    1    4    4    0    0  0.41996371873E+02 -0.22602096363E+02 -0.11452811713E+03  0.12406143488E+03  0.00000000000E+00 0. -1.
         -5    1    5    5    0  502  0.71719201157E+02  0.99994718329E+02 -0.11297641421E+02  0.12366209690E+03  0.47000000000E+01 0.  1.
         11    1    6    6    0    0 -0.25974045169E+02 -0.12212710415E+02  0.19186341442E+02  0.34524151199E+02  0.00000000000E+00 0. -1.
        -12    1    6    6    0    0  0.54780450294E+02 -0.59913849079E+01 -0.19632373614E+01  0.55142077659E+02  0.00000000000E+00 0.  1.
</event>
<event>
12    1  0.8747122E-002  0.1832346E+03  0.7818608E-02  0.1165849E+00
         21   -1    0    0  501  502  0.00000000000E+00  0.00000000000E+00  0.14336534240E+03  0.14336534240E+03  0.00000000000E+00 0.  1.
         21   -1    0    0  502  503 -0.00000000000E+00 -0.00000000000E+00 -0.35754846237E+03  0.35754846237E+03  0.00000000000E+00 0.  1.
         -6    2    1    2    0  503  0.61876635069E+02 -0.69857406745E+01 -0.25685435042E+03  0.31277623327E+03  0.16726415106E+03 0.  0.
        -24    2    3    3    0    0  0.10114674833E+03 -0.14016622096E+02 -0.22772311767E+03  0.26315472774E+03  0.83459343518E+02 0.  0.
          6    2    1    2  501    0 -0.61876635069E+02  0.69857406745E+01  0.42671230447E+02  0.18813757150E+03  0.17232931660E+03 0.  0.
         24    2    5    5    0    0 -0.21247830249E+02  0.47078425301E+02  0.77374511882E+02  0.12117093141E+03  0.77638464123E+02 0.  0.
          5    1    5    5  501    0 -0.40628804820E+02 -0.40092684627E+02 -0.34703281435E+02  0.66966640084E+02  0.47000000000E+01 0. -1.
        -11    1    6    6    0    0 -0.34518556465E+02  0.18891266850E+02  0.17595086594E+01  0.39389168237E+02  0.00000000000E+00 0.  1.
         12    1    6    6    0    0  0.13270726216E+02  0.28187158451E+02  0.75615003222E+02  0.81781763176E+02  0.00000000000E+00 0. -1.
         -5    1    3    3    0  503 -0.39270113261E+02  0.70308814220E+01 -0.29131232750E+02  0.49621505526E+02  0.47000000000E+01 0.  1.
         11    1    4    4    0    0  0.72358779619E+01  0.80058365114E+01  0.45026128371E+01  0.11692941054E+02  0.00000000000E+00 0. -1.
        -12    1    4    4    0    0  0.93910870368E+02 -0.22022458608E+02 -0.23222573050E+03  0.25146178669E+03  0.00000000000E+00 0.  1.
</event>
<event>
12    1  0.8747122E-002  0.1925301E+03  0.7818608E-02  0.1156212E+00
         21   -1    0    0  501  502  0.00000000000E+00  0.00000000000E+00  0.12626264220E+03  0.12626264220E+03  0.00000000000E+00 0. -1.
         21   -1    0    0  502  503 -0.00000000000E+00 -0.00000000000E+00 -0.31555557381E+03  0.31555557381E+03  0.00000000000E+00 0.  1.
         -6    2    1    2    0  503  0.85230849718E+02  0.16370947486E+02 -0.15308038143E+03  0.24597040638E+03  0.17185904681E+03 0.  0.
        -24    2    3    3    0    0 -0.51091586390E+01  0.13413635426E+02 -0.17797100895E+02  0.83201494126E+02  0.79998266901E+02 0.  0.
          6    2    1    2  501    0 -0.85230849718E+02 -0.16370947486E+02 -0.36212550185E+02  0.19584780963E+03  0.17179263687E+03 0.  0.
         24    2    5    5    0    0 -0.11885766199E+03 -0.23514254577E+02 -0.55824739174E+02  0.15599160188E+03  0.80851186584E+02 0.  0.
          5    1    5    5  501    0  0.33626812267E+02  0.71433070913E+01  0.19612188989E+02  0.39856207752E+02  0.47000000000E+01 0. -1.
        -11    1    6    6    0    0 -0.19476168986E+02 -0.27461403032E+02 -0.44629213478E+02  0.55903635933E+02  0.00000000000E+00 0.  1.
         12    1    6    6    0    0 -0.99381492999E+02  0.39471484546E+01 -0.11195525697E+02  0.10008796595E+03  0.00000000000E+00 0. -1.
         -5    1    3    3    0  503  0.90340008357E+02  0.29573120603E+01 -0.13528328053E+03  0.16276891226E+03  0.47000000000E+01 0.  1.
         11    1    4    4    0    0  0.19488054628E+02  0.38755607591E+02  0.59389332001E+00  0.43383569495E+02  0.00000000000E+00 0. -1.
        -12    1    4    4    0    0 -0.24597213267E+02 -0.25341972165E+02 -0.18390994215E+02  0.39817924631E+02  0.00000000000E+00 0.  1.
</event>
<event>
12    1  0.8747122E-002  0.2211160E+03  0.7818608E-02  0.1133903E+00
         21   -1    0    0  503  502  0.00000000000E+00  0.00000000000E+00  0.38065336545E+03  0.38065336545E+03  0.00000000000E+00 0.  1.
         21   -1    0    0  501  503 -0.00000000000E+00 -0.00000000000E+00 -0.17327935117E+03  0.17327935117E+03  0.00000000000E+00 0.  1.
          6    2    1    2  501    0  0.10671059346E+03 -0.79196733992E+02 -0.40474652685E+02  0.22478982830E+03  0.17672859408E+03 0.  0.
         24    2    3    3    0    0  0.39317735802E+02 -0.11216839349E+03 -0.34724914254E+02  0.14939700977E+03  0.83582378597E+02 0.  0.
         -6    2    1    2    0  502 -0.10671059346E+03  0.79196733992E+02  0.24784866696E+03  0.32914288832E+03  0.17101697514E+03 0.  0.
        -24    2    5    5    0    0 -0.80053575431E+02  0.77475627304E+02  0.77044247357E+02  0.15619839268E+03  0.77788649930E+02 0.  0.
          5    1    3    3  501    0  0.67392857659E+02  0.32971659496E+02 -0.57497384306E+01  0.75392818527E+02  0.47000000000E+01 0. -1.
        -11    1    4    4    0    0 -0.48657112909E+01  0.87665462094E+01 -0.16573691856E+02  0.19370460515E+02  0.00000000000E+00 0.  1.
         12    1    4    4    0    0  0.44183447093E+02 -0.12093493970E+03 -0.18151222398E+02  0.13002654926E+03  0.00000000000E+00 0. -1.
         -5    1    5    5    0  502 -0.26657018029E+02  0.17211066878E+01  0.17080441960E+03  0.17294449565E+03  0.47000000000E+01 0.  1.
         13    1    6    6    0    0 -0.53438817849E+02  0.17586730660E+02  0.70705179005E+02  0.90356088265E+02  0.00000000000E+00 0. -1.
        -14    1    6    6    0    0 -0.26614757582E+02  0.59888896644E+02  0.63390683519E+01  0.65842304410E+02  0.00000000000E+00 0.  1.
</event>
<event>
12    1  0.8747122E-002  0.2064675E+03  0.7818608E-02  0.1144471E+00
         21   -1    0    0  501  502  0.00000000000E+00  0.00000000000E+00  0.74272152621E+03  0.74272152621E+03  0.00000000000E+00 0.  1.
         21   -1    0    0  502  503 -0.00000000000E+00 -0.00000000000E+00 -0.71993913180E+02  0.71993913180E+02  0.00000000000E+00 0.  1.
         -6    2    1    2    0  503 -0.10687577422E+03  0.41440336268E+02  0.15102860001E+03  0.25550538995E+03  0.17127064455E+03 0.  0.
        -24    2    3    3    0    0 -0.10667316359E+02  0.42953731961E+02  0.12779888469E+03  0.15640913671E+03  0.78564931052E+02 0.  0.
          6    2    1    2  501    0  0.10687577422E+03 -0.41440336268E+02  0.51969901301E+03  0.55921004944E+03  0.17172385589E+03 0.  0.
         24    2    5    5    0    0  0.97856212268E+02 -0.70438641242E+01  0.50405324769E+03  0.52007758509E+03  0.82374533097E+02 0.  0.
          5    1    5    5  501    0  0.90195619559E+01 -0.34396472144E+02  0.15645765327E+02  0.39132464355E+02  0.47000000000E+01 0. -1.
        -11    1    6    6    0    0  0.18612181327E+02 -0.38551885015E+02  0.17256641495E+03  0.17779715606E+03  0.00000000000E+00 0.  1.
         12    1    6    6    0    0  0.79244030941E+02  0.31508020890E+02  0.33148683273E+03  0.34228042903E+03  0.00000000000E+00 0. -1.
         -5    1    3    3    0  503 -0.96208457864E+02 -0.15133956921E+01  0.23229715322E+02  0.99096253234E+02  0.47000000000E+01 0.  1.
         13    1    4    4    0    0 -0.27366377387E+01  0.11253347958E+02  0.12280795464E+03  0.12335283032E+03  0.00000000000E+00 0. -1.
        -14    1    4    4    0    0 -0.79306786206E+01  0.31700384003E+02  0.49909300529E+01  0.33056306389E+02  0.00000000000E+00 0.  1.
</event>
<event>
12    1  0.8747122E-002  0.1763172E+03  0.7818608E-02  0.1171417E+00
         21   -1    0    0  503  502  0.00000000000E+00  0.00000000000E+00  0.97144285512E+02  0.97144285512E+02  0.00000000000E+00 0.  1.
         21   -1    0    0  501  503 -0.00000000000E+00 -0.00000000000E+00 -0.36860045123E+03  0.36860045123E+03  0.00000000000E+00 0. -1.
          6    2    1    2  501    0  0.91026156743E+01  0.37708101523E+02 -0.22028651847E+03  0.28215937148E+03  0.17199709929E+03 0.  0.
         24    2    3    3    0    0  0.66831417469E+02  0.24523091300E+02 -0.18317183347E+03  0.21211617843E+03  0.79834404896E+02 0.  0.
         -6    2    1    2    0  502 -0.91026156743E+01 -0.37708101523E+02 -0.51169647253E+02  0.18358536526E+03  0.17198981076E+03 0.  0.
        -24    2    5    5    0    0 -0.39137083621E+02 -0.59478984451E+02 -0.83029501697E+02  0.13446122727E+03  0.78207816624E+02 0.  0.
          5    1    3    3  501    0 -0.57728801795E+02  0.13185010223E+02 -0.37114684996E+02  0.70043193057E+02  0.47000000000E+01 0. -1.
        -13    1    4    4    0    0  0.42460876456E+02 -0.24923749212E+02 -0.63446683809E+02  0.80309407858E+02  0.00000000000E+00 0.  1.
         14    1    4    4    0    0  0.24370541013E+02  0.49446840512E+02 -0.11972514966E+03  0.13180677057E+03  0.00000000000E+00 0. -1.
         -5    1    5    5    0  502  0.30034467947E+02  0.21770882928E+02  0.31859854443E+02  0.49124137992E+02  0.47000000000E+01 0.  1.
         11    1    6    6    0    0 -0.90152016729E+01  0.41646540342E+01 -0.59348707616E+02  0.60173809088E+02  0.00000000000E+00 0. -1.
        -12    1    6    6    0    0 -0.30121881948E+02 -0.63643638485E+02 -0.23680794080E+02  0.74287418181E+02  0.00000000000E+00 0.  1.
</event>
<event>
12    1  0.8747122E-002  0.1975704E+03  0.7818608E-02  0.1151808E+00
         21   -1    0    0  503  502  0.00000000000E+00  0.00000000000E+00  0.16841237536E+03  0.16841237536E+03  0.00000000000E+00 0.  1.
         21   -1    0    0  501  503 -0.00000000000E+00 -0.00000000000E+00 -0.62779299194E+03  0.62779299194E+03  0.00000000000E+00 0.  1.
          6    2    1    2  501    0  0.54475347843E+02 -0.80030631901E+02 -0.54587988452E+03  0.58052926896E+03  0.17221184116E+03 0.  0.
         24    2    3    3    0    0  0.15619366580E+02 -0.18657624579E+02 -0.46392360091E+03  0.47091469087E+03  0.77093884514E+02 0.  0.
         -6    2    1    2    0  502 -0.54475347843E+02  0.80030631901E+02  0.86499267942E+02  0.21567609834E+03  0.17222540601E+03 0.  0.
        -24    2    5    5    0    0 -0.75266054263E+01  0.10607607295E+03  0.42863647495E+02  0.14633125869E+03  0.90921735315E+02 0.  0.
          5    1    3    3  501    0  0.38855981263E+02 -0.61373007322E+02 -0.81956283609E+02  0.10961457809E+03  0.47000000000E+01 0. -1.
        -11    1    4    4    0    0 -0.24693292092E+02 -0.92426947631E+01 -0.69646594379E+02  0.74470357791E+02  0.00000000000E+00 0.  1.
         12    1    4    4    0    0  0.40312658672E+02 -0.94149298161E+01 -0.39427700653E+03  0.39644433308E+03  0.00000000000E+00 0. -1.
         -5    1    5    5    0  502 -0.46948742417E+02 -0.26045441044E+02  0.43635620446E+02  0.69344839645E+02  0.47000000000E+01 0.  1.
         13    1    6    6    0    0 -0.79446009249E+00  0.44796750922E+02 -0.27665618880E+02  0.52657065319E+02  0.00000000000E+00 0. -1.
        -14    1    6    6    0    0 -0.67321453338E+01  0.61279322023E+02  0.70529266375E+02  0.93674193372E+02  0.00000000000E+00 0.  1.
</event>
<event>
12    1  0.8747122E-002  0.1821417E+03  0.7818608E-02  0.1166106E+00
         21   -1    0    0  503  502  0.00000000000E+00  0.00000000000E+00  0.12285705221E+03  0.12285705221E+03  0.00000000000E+00 0.  1.
         21   -1    0    0  501  503 -0.00000000000E+00 -0.00000000000E+00 -0.42699437584E+03  0.42699437584E+03  0.00000000000E+00 0.  1.
          6    2    1    2  501    0 -0.42261615860E+02  0.36387259814E+02  0.16189998047E+02  0.18136099737E+03  0.17181274248E+03 0.  0.
         24    2    3    3    0    0 -0.15072372133E+02 -0.22594534758E+02  0.58110036704E+02  0.10391755539E+03  0.81758134453E+02 0.  0.
         -6    2    1    2    0  502  0.42261615860E+02 -0.36387259814E+02 -0.32032732167E+03  0.36849043068E+03  0.17339413957E+03 0.  0.
        -24    2    5    5    0    0  0.90876251538E+02 -0.13616818902E+02 -0.26099558265E+03  0.28833919215E+03  0.81097994535E+02 0.  0.
          5    1    3    3  501    0 -0.27189243727E+02  0.58981794572E+02 -0.41920038657E+02  0.77443441984E+02  0.47000000000E+01 0. -1.
        -11    1    4    4    0    0  0.29092421471E+02  0.65245889600E+01  0.35576298974E+02  0.46417801508E+02  0.00000000000E+00 0.  1.
         12    1    4    4    0    0 -0.44164793603E+02 -0.29119123718E+02  0.22533737730E+02  0.57499753880E+02  0.00000000000E+00 0. -1.
         -5    1    5    5    0  502 -0.48614635679E+02 -0.22770440913E+02 -0.59331739024E+02  0.80151238525E+02  0.47000000000E+01 0.  1.
         13    1    6    6    0    0  0.11211802846E+02 -0.83221471045E+01  0.14310862816E+01  0.14036048712E+02  0.00000000000E+00 0. -1.
        -14    1    6    6    0    0  0.79664448692E+02 -0.52946717972E+01 -0.26242666893E+03  0.27430314344E+03  0.00000000000E+00 0.  1.
</event>
<event>
12    1  0.8747122E-002  0.2424525E+03  0.7818608E-02  0.1118348E+00
         21   -1    0    0  503  502  0.00000000000E+00  0.00000000000E+00  0.78510951234E+02  0.78510951234E+02  0.00000000000E+00 0.  1.
         21   -1    0    0  501  503 -0.00000000000E+00 -0.00000000000E+00 -0.78208223791E+03  0.78208223791E+03  0.00000000000E+00 0. -1.
          6    2    1    2  501    0  0.12939639331E+03 -0.10937257847E+03 -0.25783066968E+03  0.35318023299E+03  0.17191228934E+03 0.  0.
         24    2    3    3    0    0  0.14227700465E+03 -0.61696167201E+02 -0.13268086688E+03  0.21855663372E+03  0.78189683516E+02 0.  0.
         -6    2    1    2    0  502 -0.12939639331E+03  0.10937257847E+03 -0.44574061700E+03  0.50741295616E+03  0.17342843744E+03 0.  0.
        -24    2    5    5    0    0 -0.73611135827E+02  0.13788184605E+03 -0.36586844808E+03  0.40579392911E+03  0.79868572137E+02 0.  0.
          5    1    3    3  501    0 -0.12880611340E+02 -0.47676411266E+02 -0.12514980280E+03  0.13462359927E+03  0.47000000000E+01 0. -1.
        -11    1    4    4    0    0  0.66360203689E+02 -0.51910465853E+01 -0.16254195230E+02  0.68518774514E+02  0.00000000000E+00 0.  1.
         12    1    4    4    0    0  0.75916800957E+02 -0.56505120615E+02 -0.11642667165E+03  0.15003785921E+03  0.00000000000E+00 0. -1.
         -5    1    5    5    0  502 -0.55785257479E+02 -0.28509267580E+02 -0.79872168913E+02  0.10161902704E+03  0.47000000000E+01 0.  1.
         13    1    6    6    0    0 -0.50318199906E+02  0.23454990686E+02 -0.83930827852E+02  0.10063022257E+03  0.00000000000E+00 0. -1.
        -14    1    6    6    0    0 -0.23292935921E+02  0.11442685536E+03 -0.28193762023E+03  0.30516370655E+03  0.00000000000E+00 0.  1.
</event>
<event>
12    1  0.8747122E-002  0.3231739E+03  0.7818608E-02  0.1074416E+00
         21   -1    0    0  503  502  0.00000000000E+00  0.00000000000E+00  0.33752497745E+03  0.33752497745E+03  0.00000000000E+00 0.  1.
         21   -1    0    0  501  503 -0.00000000000E+00 -0.00000000000E+00 -0.34769009197E+03  0.34769009197E+03  0.00000000000E+00 0. -1.
          6    2    1    2  501    0  0.25410161385E+03 -0.98515050774E+02 -0.12142379007E+03  0.34523200160E+03  0.17369096910E+03 0.  0.
         24    2    3    3    0    0  0.91116599987E+02  0.11106464667E+02 -0.77690620827E+02  0.14394695128E+03  0.79115762450E+02 0.  0.
         -6    2    1    2    0  502 -0.25410161385E+03  0.98515050774E+02  0.11125867554E+03  0.33998306782E+03  0.17010922412E+03 0.  0.
        -24    2    5    5    0    0 -0.26650707856E+03  0.77034519662E+02  0.79955453574E+02  0.29976751763E+03  0.80668146919E+02 0.  0.
          5    1    3    3  501    0  0.16298501386E+03 -0.10962151544E+03 -0.43733169239E+02  0.20128505032E+03  0.47000000000E+01 0. -1.
        -11    1    4    4    0    0  0.38800827042E+02 -0.72043607823E+01  0.95356753950E+01  0.40599705648E+02  0.00000000000E+00 0.  1.
         12    1    4    4    0    0  0.52315772945E+02  0.18310825450E+02 -0.87226296222E+02  0.10334724563E+03  0.00000000000E+00 0. -1.
         -5    1    5    5    0  502  0.12405464708E+02  0.21480531112E+02  0.31303221971E+02  0.40215550192E+02  0.47000000000E+01 0.  1.
         11    1    6    6    0    0 -0.15563007281E+03  0.82603822099E+02  0.64749599862E+02  0.18771420210E+03  0.00000000000E+00 0. -1.
        -12    1    6    6    0    0 -0.11087700575E+03 -0.55693024367E+01  0.15205853712E+02  0.11205331553E+03  0.00000000000E+00 0.  1.
</event>
<event>
12    1  0.8747122E-002  0.2502667E+03  0.7818608E-02  0.1113399E+00
         21   -1    0    0  503  502  0.00000000000E+00  0.00000000000E+00  0.11301889785E+03  0.11301889785E+03  0.00000000000E+00 0.  1.
         21   -1    0    0  501  503 -0.00000000000E+00 -0.00000000000E+00 -0.58310819031E+03  0.58310819031E+03  0.00000000000E+00 0.  1.
          6    2    1    2  501    0 -0.16875406527E+03 -0.66935523991E+02 -0.31659789242E+03  0.40254057129E+03  0.16984224188E+03 0.  0.
         24    2    3    3    0    0 -0.16903622518E+03 -0.84176135200E+02 -0.32388724678E+03  0.38323919890E+03  0.79438452824E+02 0.  0.
         -6    2    1    2    0  502  0.16875406527E+03  0.66935523991E+02 -0.15349140003E+03  0.29358651687E+03  0.17226472096E+03 0.  0.
        -24    2    5    5    0    0  0.57462883403E+02 -0.76058651581E+01 -0.11137480470E+02  0.98064461152E+02  0.78311958959E+02 0.  0.
          5    1    3    3  501    0  0.28215990410E+00  0.17240611209E+02  0.72893543577E+01  0.19301372387E+02  0.47000000000E+01 0. -1.
        -13    1    4    4    0    0 -0.16690096690E+02 -0.23501429736E+02 -0.11005667335E+03  0.11376883525E+03  0.00000000000E+00 0.  1.
         14    1    4    4    0    0 -0.15234612849E+03 -0.60674705464E+02 -0.21383057344E+03  0.26947036365E+03  0.00000000000E+00 0. -1.
         -5    1    5    5    0  502  0.11129118187E+03  0.74541389149E+02 -0.14235391956E+03  0.19552205572E+03  0.47000000000E+01 0.  1.
         11    1    6    6    0    0  0.46043511000E+02  0.18455486437E+02  0.22105629830E+02  0.54307170383E+02  0.00000000000E+00 0. -1.
        -12    1    6    6    0    0  0.11419372402E+02 -0.26061351595E+02 -0.33243110300E+02  0.43757290769E+02  0.00000000000E+00 0.  1.
</event>
<event>
12    1  0.8747122E-002  0.1832353E+03  0.7818608E-02  0.1165886E+00
         21   -1    0    0  501  502  0.00000000000E+00  0.00000000000E+00  0.78225761922E+03  0.78225761922E+03  0.00000000000E+00 0.  1.
         21   -1    0    0  502  503 -0.00000000000E+00 -0.00000000000E+00 -0.42023363822E+02  0.42023363822E+02  0.00000000000E+00 0.  1.
         -6    2    1    2    0  503 -0.44741179463E+02  0.17105964169E+02  0.33365011395E+03  0.37831479328E+03  0.17177106020E+03 0.  0.
        -24    2    3    3    0    0 -0.19932952990E+02  0.61467175168E+02  0.29839324214E+03  0.31627849622E+03  0.82571326626E+02 0.  0.
          6    2    1    2  501    0  0.44741179463E+02 -0.17105964169E+02  0.40658414145E+03  0.44596618977E+03  0.17686376449E+03 0.  0.
         24    2    5    5    0    0  0.32603222423E+02  0.17410621423E+02  0.87091287186E+02  0.12435073832E+03  0.80697670149E+02 0.  0.
          5    1    5    5  501    0  0.12137957039E+02 -0.34516585592E+02  0.31949285426E+03  0.32161545144E+03  0.47000000000E+01 0. -1.
        -11    1    6    6    0    0  0.42956494824E+02 -0.16058402958E+02  0.73784124605E+02  0.86874793795E+02  0.00000000000E+00 0.  1.
         12    1    6    6    0    0 -0.10353272401E+02  0.33469024381E+02  0.13307162581E+02  0.37475944530E+02  0.00000000000E+00 0. -1.
         -5    1    3    3    0  503 -0.24808226473E+02 -0.44361210999E+02  0.35256871810E+02  0.62036297051E+02  0.47000000000E+01 0.  1.
         13    1    4    4    0    0  0.27456513060E+02  0.50857584061E+01  0.50872363369E+02  0.58032080806E+02  0.00000000000E+00 0. -1.
        -14    1    4    4    0    0 -0.47389466049E+02  0.56381416762E+02  0.24752087877E+03  0.25824641542E+03  0.00000000000E+00 0.  1.
</event>
<event>
12    1  0.8747122E-002  0.1964363E+03  0.7818608E-02  0.1154048E+00
         21   -1    0    0  503  502  0.00000000000E+00  0.00000000000E+00  0.16415486506E+03  0.16415486506E+03  0.00000000000E+00 0.  1.
         21   -1    0    0  501  503 -0.00000000000E+00 -0.00000000000E+00 -0.72271112443E+03  0.72271112443E+03  0.00000000000E+00 0.  1.
          6    2    1    2  501    0  0.63101485267E+02  0.46752742551E+02 -0.64738206823E+03  0.67652847382E+03  0.18005448411E+03 0.  0.
         24    2    3    3    0    0  0.14601645069E+01 -0.28655503272E+02 -0.42587154361E+03  0.43450562680E+03  0.81272985153E+02 0.  0.
         -6    2    1    2    0  502 -0.63101485267E+02 -0.46752742551E+02  0.88825808869E+02  0.21033751567E+03  0.17373609238E+03 0.  0.
        -24    2    5    5    0    0 -0.20990746414E+02  0.24405349294E+02  0.89700336160E+02  0.12751455291E+03  0.84720590105E+02 0.  0.
          5    1    3    3  501    0  0.61641320760E+02  0.75408245822E+02 -0.22151052462E+03  0.24202284702E+03  0.47000000000E+01 0. -1.
        -13    1    4    4    0    0  0.21973189572E+02  0.16287531251E+02 -0.25996116373E+03  0.26139608142E+03  0.00000000000E+00 0.  1.
         14    1    4    4    0    0 -0.20513025066E+02 -0.44943034522E+02 -0.16591037988E+03  0.17310954538E+03  0.00000000000E+00 0. -1.
         -5    1    5    5    0  502 -0.42110738853E+02 -0.71158091845E+02 -0.87452729114E+00  0.82822962756E+02  0.47000000000E+01 0.  1.
         11    1    6    6    0    0  0.18720361900E+02 -0.22436406220E+02  0.28918552682E+02  0.41111153754E+02  0.00000000000E+00 0. -1.
        -12    1    6    6    0    0 -0.39711108314E+02  0.46841755514E+02  0.60781783478E+02  0.86403399158E+02  0.00000000000E+00 0.  1.
</event>
<event>
12    1  0.8747122E-002  0.3178703E+03  0.7818608E-02  0.1077085E+00
         21   -1    0    0  503  502  0.00000000000E+00  0.00000000000E+00  0.44006498737E+02  0.44006498737E+02  0.00000000000E+00 0.  1.
         21   -1    0    0  501  503 -0.00000000000E+00 -0.00000000000E+00 -0.25045135744E+04  0.25045135744E+04  0.00000000000E+00 0.  1.
          6    2    1    2  501    0 -0.12956798047E+03  0.23251676280E+03 -0.16148219115E+04  0.16450684133E+04  0.16657842588E+03 0.  0.
         24    2    3    3    0    0 -0.13849808335E+03  0.24837120283E+03 -0.15225386900E+04  0.15508909586E+04  0.79175307569E+02 0.  0.
         -6    2    1    2    0  502  0.12956798047E+03 -0.23251676280E+03 -0.84568516418E+03  0.90345165987E+03  0.17375154177E+03 0.  0.
        -24    2    5    5    0    0  0.15937095235E+03 -0.21808467736E+03 -0.71050341475E+03  0.76419399365E+03  0.78850051412E+02 0.  0.
          5    1    3    3  501    0  0.89301028750E+01 -0.15854440034E+02 -0.92283221479E+02  0.94177454694E+02  0.47000000000E+01 0. -1.
        -13    1    4    4    0    0 -0.11092334463E+03  0.19406137262E+03 -0.13384773033E+04  0.13570133736E+04  0.00000000000E+00 0.  1.
         14    1    4    4    0    0 -0.27574738721E+02  0.54309830206E+02 -0.18406138678E+03  0.19387758503E+03  0.00000000000E+00 0. -1.
         -5    1    5    5    0  502 -0.29802971877E+02 -0.14432085434E+02 -0.13518174943E+03  0.13925766622E+03  0.47000000000E+01 0.  1.
         13    1    6    6    0    0  0.10985192138E+03 -0.14592043729E+03 -0.57108150735E+03  0.59957844081E+03  0.00000000000E+00 0. -1.
        -14    1    6    6    0    0  0.49519030969E+02 -0.72164240072E+02 -0.13942190740E+03  0.16461555284E+03  0.00000000000E+00 0.  1.
</event>
<event>
12    1  0.8747122E-002  0.1890675E+03  0.7818608E-02  0.1159360E+00
         21   -1    0    0  501  502  0.00000000000E+00  0.00000000000E+00  0.29531032038E+03  0.29531032038E+03  0.00000000000E+00 0. -1.
         21   -1    0    0  502  503 -0.00000000000E+00 -0.00000000000E+00 -0.24073943800E+03  0.24073943800E+03  0.00000000000E+00 0. -1.
         -6    2    1    2    0  503  0.57759760975E+02  0.52575010946E+02 -0.16183290713E+03  0.24868743820E+03  0.17191634688E+03 0.  0.
        -24    2    3    3    0    0  0.69698021857E+02  0.92237159985E+02 -0.14896598358E+03  0.20506111747E+03  0.80583433162E+02 0.  0.
          6    2    1    2  501    0 -0.57759760975E+02 -0.52575010946E+02  0.21640378951E+03  0.28736232018E+03  0.17218066437E+03 0.  0.
         24    2    5    5    0    0 -0.14804033710E+02 -0.17783603282E+02  0.14714013898E+02  0.78181794943E+02  0.73215264090E+02 0.  0.
          5    1    5    5  501    0 -0.42955727265E+02 -0.34791407663E+02  0.20168977561E+03  0.20918052524E+03  0.47000000000E+01 0. -1.
        -11    1    6    6    0    0  0.14577626895E+02 -0.11272238056E+02  0.36595518231E+02  0.40973192593E+02  0.00000000000E+00 0.  1.
         12    1    6    6    0    0 -0.29381660605E+02 -0.65113652262E+01 -0.21881504333E+02  0.37208602350E+02  0.00000000000E+00 0. -1.
         -5    1    3    3    0  503 -0.11938260882E+02 -0.39662149040E+02 -0.12866923557E+02  0.43626320738E+02  0.47000000000E+01 0.  1.
         11    1    4    4    0    0 -0.42552376156E+01  0.45255715240E+02 -0.85644244112E+02  0.96959390255E+02  0.00000000000E+00 0. -1.
        -12    1    4    4    0    0  0.73953259473E+02  0.46981444745E+02 -0.63321739464E+02  0.10810172721E+03  0.00000000000E+00 0.  1.
</event>
<event>
12    1  0.8747122E-002  0.1801897E+03  0.7818608E-02  0.1167866E+00
         21   -1    0    0  503  502  0.00000000000E+00  0.00000000000E+00  0.17906060642E+04  0.17906060642E+04  0.00000000000E+00 0.  1.
         21   -1    0    0  501  503 -0.00000000000E+00 -0.00000000000E+00 -0.20364402984E+02  0.20364402984E+02  0.00000000000E+00 0.  1.
          6    2    1    2  501    0 -0.97272655205E+01  0.53797439769E+02  0.57636762639E+03  0.60357511433E+03  0.17062969750E+03 0.  0.
         24    2    3    3    0    0  0.35291239070E+02 -0.23169289932E+02  0.24576607578E+03  0.26112801111E+03  0.77489267858E+02 0.  0.
         -6    2    1    2    0  502  0.97272655205E+01 -0.53797439769E+02  0.11938740348E+04  0.12073953529E+04  0.17169607693E+03 0.  0.
        -24    2    5    5    0    0  0.65935541695E+02 -0.22517182275E+02  0.91165439615E+03  0.91789951649E+03  0.81063340580E+02 0.  0.
          5    1    3    3  501    0 -0.45018504590E+02  0.76966729701E+02  0.33060155061E+03  0.34244710322E+03  0.47000000000E+01 0. -1.
        -13    1    4    4    0    0 -0.24812603707E+02 -0.96241554411E+01  0.76600517084E+02  0.81092101269E+02  0.00000000000E+00 0.  1.
         14    1    4    4    0    0  0.60103842777E+02 -0.13545134491E+02  0.16916555869E+03  0.18003590984E+03  0.00000000000E+00 0. -1.
         -5    1    5    5    0  502 -0.56208276175E+02 -0.31280257494E+02  0.28221963868E+03  0.28949583637E+03  0.47000000000E+01 0.  1.
         13    1    6    6    0    0  0.99498955809E+01 -0.22938934302E+02  0.69060296495E+02  0.73447393970E+02  0.00000000000E+00 0. -1.
        -14    1    6    6    0    0  0.55985646114E+02  0.42175202714E+00  0.84259409966E+03  0.84445212252E+03  0.00000000000E+00 0.  1.
</event>
<event>
12    1  0.8747122E-002  0.2891986E+03  0.7818608E-02  0.1090969E+00
         21   -1    0    0  503  502  0.00000000000E+00  0.00000000000E+00  0.14086631579E+04  0.14086631579E+04  0.00000000000E+00 0. -1.
         21   -1    0    0  501  503 -0.00000000000E+00 -0.00000000000E+00 -0.19946131986E+03  0.19946131986E+03  0.00000000000E+00 0.  1.
          6    2    1    2  501    0  0.77327222784E+02 -0.21690317824E+03 -0.69525556715E+02  0.29743844726E+03  0.17495524787E+03 0.  0.
         24    2    3    3    0    0 -0.17113518173E+01 -0.17019449478E+03 -0.83358722864E+02  0.20447477763E+03  0.76760427503E+02 0.  0.
         -6    2    1    2    0  502 -0.77327222784E+02  0.21690317824E+03  0.12787273947E+04  0.13106860305E+04  0.17241703037E+03 0.  0.
        -24    2    5    5    0    0 -0.52035201529E+02  0.18970348135E+03  0.71993219326E+03  0.75063810661E+03  0.80374941173E+02 0.  0.
          5    1    3    3  501    0  0.79038574601E+02 -0.46708683460E+02  0.13833166149E+02  0.92963669631E+02  0.47000000000E+01 0. -1.
        -13    1    4    4    0    0  0.36979083624E+02 -0.85691703719E+02 -0.48800649903E+02  0.10531867898E+03  0.00000000000E+00 0.  1.
         14    1    4    4    0    0 -0.38690435442E+02 -0.84502791058E+02 -0.34558072961E+02  0.99156098643E+02  0.00000000000E+00 0. -1.
         -5    1    5    5    0  502 -0.25292021255E+02  0.27199696884E+02  0.55879520148E+03  0.56004792389E+03  0.47000000000E+01 0.  1.
         13    1    6    6    0    0 -0.32976070934E+02  0.60118137637E+02  0.38401393109E+03  0.39008756837E+03  0.00000000000E+00 0. -1.
        -14    1    6    6    0    0 -0.19059130596E+02  0.12958534372E+03  0.33591826217E+03  0.36055053824E+03  0.00000000000E+00 0.  1.
</event>
<event>
12    1  0.8747122E-002  0.1864880E+03  0.7818608E-02  0.1161681E+00
         21   -1    0    0  503  502  0.00000000000E+00  0.00000000000E+00  0.11858684269E+04  0.11858684269E+04  0.00000000000E+00 0. -1.
         21   -1    0    0  501  503 -0.00000000000E+00 -0.00000000000E+00 -0.29322836666E+02  0.29322836666E+02  0.00000000000E+00 0.  1.
          6    2    1    2  501    0 -0.69917587642E+02 -0.26417029268E+02  0.57029445574E+03  0.60001128494E+03  0.17085504767E+03 0.  0.
         24    2    3    3    0    0 -0.42389065199E+02 -0.30204154649E+02  0.14628969108E+03  0.17507094522E+03  0.80870503514E+02 0.  0.
         -6    2    1    2    0  502  0.69917587642E+02  0.26417029268E+02  0.58625113453E+03  0.61517997866E+03  0.17079134905E+03 0.  0.
        -24    2    5    5    0    0  0.46507525059E+02 -0.28918298626E+02  0.50438423902E+03  0.51352217953E+03  0.79387344179E+02 0.  0.
          5    1    3    3  501    0 -0.27528522442E+02  0.37871253815E+01  0.42400476466E+03  0.42494033971E+03  0.47000000000E+01 0. -1.
        -11    1    4    4    0    0 -0.53219287584E+02  0.78109169706E+01  0.62731786814E+02  0.82635222948E+02  0.00000000000E+00 0.  1.
         12    1    4    4    0    0  0.10830222384E+02 -0.38015071620E+02  0.83557904268E+02  0.92435722277E+02  0.00000000000E+00 0. -1.
         -5    1    5    5    0  502  0.23410062583E+02  0.55335327893E+02  0.81866895509E+02  0.10165779913E+03  0.47000000000E+01 0.  1.
         11    1    6    6    0    0  0.57568007980E+02 -0.21291815354E+02  0.20884834424E+03  0.21768106908E+03  0.00000000000E+00 0. -1.
        -12    1    6    6    0    0 -0.11060482921E+02 -0.76264832713E+01  0.29553589478E+03  0.29584111045E+03  0.00000000000E+00 0.  1.
</event>
<event>
12    1  0.8747122E-002  0.3327952E+03  0.7818608E-02  0.1070566E+00
         21   -1    0    0  503  502  0.00000000000E+00  0.00000000000E+00  0.26492262607E+03  0.26492262607E+03  0.00000000000E+00 0. -1.
         21   -1    0    0  501  503 -0.00000000000E+00 -0.00000000000E+00 -0.61360075605E+03  0.61360075605E+03  0.00000000000E+00 0. -1.
          6    2    1    2  501    0 -0.38889767549E+02 -0.28204081399E+03 -0.42593345336E+03  0.53687875257E+03  0.16049938784E+03 0.  0.
         24    2    3    3    0    0  0.16362557385E+02 -0.24558143940E+03 -0.36061201441E+03  0.44376008746E+03  0.79397818745E+02 0.  0.
         -6    2    1    2    0  502  0.38889767549E+02  0.28204081399E+03  0.77255323386E+02  0.34164462956E+03  0.17231724562E+03 0.  0.
        -24    2    5    5    0    0  0.45804191218E+02  0.19561429388E+03  0.12031854586E+03  0.24472257962E+03  0.71060626213E+02 0.  0.
          5    1    3    3  501    0 -0.55252324934E+02 -0.36459374588E+02 -0.65321438950E+02  0.93118665113E+02  0.47000000000E+01 0. -1.
        -11    1    4    4    0    0 -0.11258958109E+02 -0.21342550426E+02 -0.79649294535E+02  0.83224267592E+02  0.00000000000E+00 0.  1.
         12    1    4    4    0    0  0.27621515494E+02 -0.22423888897E+03 -0.28096271988E+03  0.36053581987E+03  0.00000000000E+00 0. -1.
         -5    1    5    5    0  502 -0.69144236688E+01  0.86426520109E+02 -0.43063222476E+02  0.96922049931E+02  0.47000000000E+01 0.  1.
         13    1    6    6    0    0  0.15949628279E+02  0.13871476991E+03  0.11381356557E+03  0.18013801859E+03  0.00000000000E+00 0. -1.
        -14    1    6    6    0    0  0.29854562939E+02  0.56899523962E+02  0.65049802960E+01  0.64584561034E+02  0.00000000000E+00 0.  1.
</event>
<event>
12    1  0.8747122E-002  0.1956473E+03  0.7818608E-02  0.1153731E+00
         21   -1    0    0  501  502  0.00000000000E+00  0.00000000000E+00  0.12901833948E+04  0.12901833948E+04  0.00000000000E+00 0.  1.
         21   -1    0    0  502  503 -0.00000000000E+00 -0.00000000000E+00 -0.34318625604E+02  0.34318625604E+02  0.00000000000E+00 0. -1.
         -6    2    1    2    0  503  0.81752728316E+02 -0.35933401453E+02  0.37766188491E+03  0.42476974259E+03  0.17270239425E+03 0.  0.
        -24    2    3    3    0    0 -0.61544632699E+01  0.61674002094E+01  0.76192525489E+02  0.10790065842E+03  0.75903470958E+02 0.  0.
          6    2    1    2  501    0 -0.81752728316E+02  0.35933401453E+02  0.87820288431E+03  0.89973227784E+03  0.17407799357E+03 0.  0.
         24    2    5    5    0    0 -0.55598260437E+02  0.44118127789E+02  0.26159893572E+03  0.28250171691E+03  0.79596740639E+02 0.  0.
          5    1    5    5  501    0 -0.26154467880E+02 -0.81847263364E+01  0.61660394858E+03  0.61723056093E+03  0.47000000000E+01 0. -1.
        -13    1    6    6    0    0 -0.67309708986E+02  0.56330997313E+02  0.23621883357E+03  0.25199824507E+03  0.00000000000E+00 0.  1.
         14    1    6    6    0    0  0.11711448550E+02 -0.12212869524E+02  0.25380102151E+02  0.30503471840E+02  0.00000000000E+00 0. -1.
         -5    1    3    3    0  503  0.87907191586E+02 -0.42100801662E+02  0.30146935942E+03  0.31686908417E+03  0.47000000000E+01 0.  1.
         11    1    4    4    0    0 -0.28022121941E+02 -0.25219131725E+02  0.43663875861E+02  0.57686896070E+02  0.00000000000E+00 0. -1.
        -12    1    4    4    0    0  0.21867658671E+02  0.31386531934E+02  0.32528649628E+02  0.50213762349E+02  0.00000000000E+00 0.  1.
</event>
<event>
12    1  0.8747122E-002  0.2906722E+03  0.7818608E-02  0.1091244E+00
         21   -1    0    0  503  502  0.00000000000E+00  0.00000000000E+00  0.13609244577E+03  0.13609244577E+03  0.00000000000E+00 0. -1.
         21   -1    0    0  501  503 -0.00000000000E+00 -0.00000000000E+00 -0.75039418334E+03  0.75039418334E+03  0.00000000000E+00 0.  1.
          6    2    1    2  501    0  0.10627666390E+03  0.20956687542E+03 -0.50091354336E+03  0.57448152331E+03  0.15460154637E+03 0.  0.
         24    2    3    3    0    0  0.65953746610E+02  0.18056057328E+03 -0.47408862575E+03  0.51783375701E+03  0.80248099778E+02 0.  0.
         -6    2    1    2    0  502 -0.10627666390E+03 -0.20956687542E+03 -0.11338819420E+03  0.31200510580E+03  0.17110610420E+03 0.  0.
        -24    2    5    5    0    0 -0.89282517975E+02 -0.71058984248E+02 -0.10124564431E+03  0.17185244463E+03  0.79131757066E+02 0.  0.
          5    1    3    3  501    0  0.40322917286E+02  0.29006302146E+02 -0.26824917618E+02  0.56647766310E+02  0.47000000000E+01 0. -1.
        -13    1    4    4    0    0  0.33484699236E+02  0.17322686729E+02 -0.13401240462E+03  0.13921431374E+03  0.00000000000E+00 0.  1.
         14    1    4    4    0    0  0.32469047374E+02  0.16323788655E+03 -0.34007622113E+03  0.37861944327E+03  0.00000000000E+00 0. -1.
         -5    1    5    5    0  502 -0.16994145921E+02 -0.13850789117E+03 -0.12142549893E+02  0.14015266116E+03  0.47000000000E+01 0.  1.
         13    1    6    6    0    0 -0.51578724247E+02  0.48816320516E+01 -0.23776151225E+02  0.57004390125E+02  0.00000000000E+00 0. -1.
        -14    1    6    6    0    0 -0.37703793728E+02 -0.75940616300E+02 -0.77469493086E+02  0.11484805451E+03  0.00000000000E+00 0.  1.
</event>
<event>
12    1  0.8747122E-002  0.2235635E+03  0.7818608E-02  0.1131877E+00
         21   -1    0    0  503  502  0.00000000000E+00  0.00000000000E+00  0.10645151297E+04  0.10645151297E+04  0.00000000000E+00 0.  1.
         21   -1    0    0  501  503 -0.00000000000E+00 -0.00000000000E+00 -0.46862786982E+02  0.46862786982E+02  0.00000000000E+00 0. -1.
          6    2    1    2  501    0  0.49534676494E+02  0.13353767893E+03  0.44109408468E+03  0.49299288177E+03  0.16790471722E+03 0.  0.
         24    2    3    3    0    0  0.38560647508E+02  0.13873332335E+03  0.44860578244E+03  0.47796159319E+03  0.80413170454E+02 0.  0.
         -6    2    1    2    0  502 -0.49534676494E+02 -0.13353767893E+03  0.57655825804E+03  0.61838503492E+03  0.17232130055E+03 0.  0.
        -24    2    5    5    0    0  0.21669249137E+02 -0.16331509951E+02  0.23606327004E+03  0.25127985663E+03  0.81727745044E+02 0.  0.
          5    1    3    3  501    0  0.10974028986E+02 -0.51956444198E+01 -0.75116977592E+01  0.15031288579E+02  0.47000000000E+01 0. -1.
        -13    1    4    4    0    0  0.58854507392E+02  0.71173697340E+02  0.29063301502E+03  0.30495425501E+03  0.00000000000E+00 0.  1.
         14    1    4    4    0    0 -0.20293859884E+02  0.67559626010E+02  0.15797276743E+03  0.17300733818E+03  0.00000000000E+00 0. -1.
         -5    1    5    5    0  502 -0.71203925631E+02 -0.11720616898E+03  0.34049498800E+03  0.36710517829E+03  0.47000000000E+01 0.  1.
         11    1    6    6    0    0 -0.78826403152E+01  0.25043070351E+02  0.14149180719E+03  0.14390699390E+03  0.00000000000E+00 0. -1.
        -12    1    6    6    0    0  0.29551889452E+02 -0.41374580302E+02  0.94571462851E+02  0.10737286273E+03  0.00000000000E+00 0.  1.
</event>
<event>
12    1  0.8747122E-002  0.2506014E+03  0.7818608E-02  0.1113380E+00
         21   -1    0    0  503  502  0.00000000000E+00  0.00000000000E+00  0.24944717939E+03  0.24944717939E+03  0.00000000000E+00 0.  1.
         21   -1    0    0  501  503 -0.00000000000E+00 -0.00000000000E+00 -0.47134481331E+03  0.47134481331E+03  0.00000000000E+00 0.  1.
          6    2    1    2  501    0  0.98767004225E+02  0.15326304162E+03 -0.35887491032E+03  0.43771253674E+03  0.17192027952E+03 0.  0.
         24    2    3    3    0    0  0.74878753562E+02  0.16244279350E+03 -0.20819563810E+03  0.28480325173E+03  0.75980126194E+02 0.  0.
         -6    2    1    2    0  502 -0.98767004225E+02 -0.15326304162E+03  0.13697727640E+03  0.28307945597E+03  0.16771023551E+03 0.  0.
        -24    2    5    5    0    0 -0.93663475518E+02 -0.11568529405E+03  0.31103139151E+02  0.17052033348E+03  0.77161162253E+02 0.  0.
          5    1    3    3  501    0  0.23888250662E+02 -0.91797518831E+01 -0.15067927222E+03  0.15290928501E+03  0.47000000000E+01 0. -1.
        -11    1    4    4    0    0 -0.90260862966E+01  0.51973419046E+02 -0.80580101306E+02  0.96311262310E+02  0.00000000000E+00 0.  1.
         12    1    4    4    0    0  0.83904839859E+02  0.11046937445E+03 -0.12761553679E+03  0.18849198942E+03  0.00000000000E+00 0. -1.
         -5    1    5    5    0  502 -0.51035287071E+01 -0.37577747567E+02  0.10587413725E+03  0.11255912249E+03  0.47000000000E+01 0.  1.
         13    1    6    6    0    0 -0.24480540955E+02 -0.39046686181E+01 -0.17522361754E+02  0.30357478221E+02  0.00000000000E+00 0. -1.
        -14    1    6    6    0    0 -0.69182934563E+02 -0.11178062543E+03  0.48625500905E+02  0.14016285526E+03  0.00000000000E+00 0.  1.
</event>
<event>
12    1  0.8747122E-002  0.2350436E+03  0.7818608E-02  0.1123492E+00
         21   -1    0    0  503  502  0.00000000000E+00  0.00000000000E+00  0.14059840828E+02  0.14059840828E+02  0.00000000000E+00 0. -1.
         21   -1    0    0  501  503 -0.00000000000E+00 -0.00000000000E+00 -0.39582832295E+04  0.39582832295E+04  0.00000000000E+00 0. -1.
          6    2    1    2  501    0 -0.35429930602E+02 -0.15539652740E+03 -0.22316660679E+04  0.22440095630E+04  0.17274871730E+03 0.  0.
         24    2    3    3    0    0  0.17199182461E+02 -0.15695903537E+03 -0.14784055469E+04  0.14888964804E+04  0.78726218936E+02 0.  0.
         -6    2    1    2    0  502  0.35429930602E+02  0.15539652740E+03 -0.17125573207E+04  0.17283335073E+04  0.16994344661E+03 0.  0.
        -24    2    5    5    0    0  0.28383213149E+02  0.89879347253E+02 -0.54869427111E+03  0.56259706825E+03  0.81031809809E+02 0.  0.
          5    1    3    3  501    0 -0.52629113063E+02  0.15625079696E+01 -0.75326052103E+03  0.75511308260E+03  0.47000000000E+01 0. -1.
        -13    1    4    4    0    0 -0.10237357820E+02  0.47722748004E+01 -0.61709439880E+02  0.62734624190E+02  0.00000000000E+00 0.  1.
         14    1    4    4    0    0  0.27436540281E+02 -0.16173131017E+03 -0.14166961070E+04  0.14261618562E+04  0.00000000000E+00 0. -1.
         -5    1    5    5    0  502  0.70467174522E+01  0.65517180150E+02 -0.11638630496E+04  0.11657364391E+04  0.47000000000E+01 0.  1.
         13    1    6    6    0    0  0.13925015472E+02  0.10067756068E+03 -0.39577975506E+03  0.40862145293E+03  0.00000000000E+00 0. -1.
        -14    1    6    6    0    0  0.14458197677E+02 -0.10798213427E+02 -0.15291451605E+03  0.15397561532E+03  0.00000000000E+00 0.  1.
</event>
<event>
12    1  0.8747122E-002  0.2022944E+03  0.7818608E-02  0.1147892E+00
         21   -1    0    0  501  502  0.00000000000E+00  0.00000000000E+00  0.32634049952E+03  0.32634049952E+03  0.00000000000E+00 0.  1.
         21   -1    0    0  502  503 -0.00000000000E+00 -0.00000000000E+00 -0.13812928030E+03  0.13812928030E+03  0.00000000000E+00 0. -1.
         -6    2    1    2    0  503  0.94204385004E+02 -0.47489680514E+02  0.23069775466E+02  0.20360556455E+03  0.17260728683E+03 0.  0.
        -24    2    3    3    0    0  0.39106842293E+02 -0.46706458895E+02  0.77110431236E+02  0.12628263700E+03  0.79312340697E+02 0.  0.
          6    2    1    2  501    0 -0.94204385004E+02  0.47489680514E+02  0.16514144375E+03  0.26086421527E+03  0.17218799741E+03 0.  0.
         24    2    5    5    0    0 -0.43874211548E+01  0.68394315190E+02  0.61798844483E+02  0.12227895786E+03  0.80224775113E+02 0.  0.
          5    1    5    5  501    0 -0.89816963850E+02 -0.20904634676E+02  0.10334259927E+03  0.13858525740E+03  0.47000000000E+01 0. -1.
        -11    1    6    6    0    0 -0.24013640850E+02  0.77741429234E+02  0.58679678100E+02  0.10031794151E+03  0.00000000000E+00 0.  1.
         12    1    6    6    0    0  0.19626219695E+02 -0.93471140441E+01  0.31191663831E+01  0.21961016356E+02  0.00000000000E+00 0. -1.
         -5    1    3    3    0  503  0.55097542711E+02 -0.78322161947E+00 -0.54040655770E+02  0.77322927550E+02  0.47000000000E+01 0.  1.
         11    1    4    4    0    0  0.51785563391E+02 -0.61188464885E+02  0.56431749114E+02  0.98032214699E+02  0.00000000000E+00 0. -1.
        -12    1    4    4    0    0 -0.12678721097E+02  0.14482005990E+02  0.20678682122E+02  0.28250422306E+02  0.00000000000E+00 0.  1.
</event>
<event>
12    1  0.8747122E-002  0.1823624E+03  0.7818608E-02  0.1168226E+00
         21   -1    0    0  503  502  0.00000000000E+00  0.00000000000E+00  0.11504136067E+03  0.11504136067E+03  0.00000000000E+00 0.  1.
         21   -1    0    0  501  503 -0.00000000000E+00 -0.00000000000E+00 -0.32080617228E+03  0.32080617228E+03  0.00000000000E+00 0. -1.
          6    2    1    2  501    0  0.58743989499E+01 -0.59555931065E+02 -0.19054738055E+03  0.26375057392E+03  0.17226329709E+03 0.  0.
         24    2    3    3    0    0 -0.16134203110E+02 -0.80400207355E+02 -0.20081094363E+03  0.23140411900E+03  0.80612191134E+02 0.  0.
         -6    2    1    2    0  502 -0.58743989499E+01  0.59555931065E+02 -0.15217431067E+02  0.17209695903E+03  0.16063740414E+03 0.  0.
        -24    2    5    5    0    0 -0.32918326351E+02  0.48005167974E+02 -0.61413373874E+02  0.11713379619E+03  0.80997600935E+02 0.  0.
          5    1    3    3  501    0  0.22008602060E+02  0.20844276290E+02  0.10263563081E+02  0.32346454919E+02  0.47000000000E+01 0. -1.
        -11    1    4    4    0    0  0.37074111479E+01 -0.41031632258E+01  0.71285901091E+01  0.90220642217E+01  0.00000000000E+00 0.  1.
         12    1    4    4    0    0 -0.19841614258E+02 -0.76297044129E+02 -0.20793953374E+03  0.22238205478E+03  0.00000000000E+00 0. -1.
         -5    1    5    5    0  502  0.27043927401E+02  0.11550763091E+02  0.46195942807E+02  0.54963162837E+02  0.47000000000E+01 0.  1.
         11    1    6    6    0    0 -0.74443631379E+01  0.64756275497E+02 -0.25421635473E+02  0.69964657570E+02  0.00000000000E+00 0. -1.
        -12    1    6    6    0    0 -0.25473963213E+02 -0.16751107523E+02 -0.35991738401E+02  0.47169138620E+02  0.00000000000E+00 0.  1.
</event>
<event>
12    1  0.8747122E-002  0.1869605E+03  0.7818608E-02  0.1161943E+00
         21   -1    0    0  503  502  0.00000000000E+00  0.00000000000E+00  0.11223905022E+04  0.11223905022E+04  0.00000000000E+00 0. -1.
         21   -1    0    0  501  503 -0.00000000000E+00 -0.00000000000E+00 -0.78480591883E+02  0.78480591883E+02  0.00000000000E+00 0. -1.
          6    2    1    2  501    0  0.63188671984E+02  0.24535426795E+02  0.51457289958E+02  0.19096197456E+03  0.17094978094E+03 0.  0.
         24    2    3    3    0    0 -0.98988750713E+01 -0.38037651314E+02  0.34089715987E+02  0.93079891093E+02  0.77180999893E+02 0.  0.
         -6    2    1    2    0  502 -0.63188671984E+02 -0.24535426795E+02  0.99245262034E+03  0.10099091195E+04  0.17423957817E+03 0.  0.
        -24    2    5    5    0    0 -0.43367091718E+02  0.50180146906E+01  0.21762120087E+03  0.23424674479E+03  0.74877668639E+02 0.  0.
          5    1    3    3  501    0  0.73087547055E+02  0.62573078109E+02  0.17367573971E+02  0.97882083469E+02  0.47000000000E+01 0. -1.
        -13    1    4    4    0    0 -0.28436461461E+02 -0.41762556847E+02  0.47934294587E+02  0.69645100993E+02  0.00000000000E+00 0.  1.
         14    1    4    4    0    0  0.18537586390E+02  0.37249055322E+01 -0.13844578600E+02  0.23434790099E+02  0.00000000000E+00 0. -1.
         -5    1    5    5    0  502 -0.19821580266E+02 -0.29553441486E+02  0.77483141947E+03  0.77566237471E+03  0.47000000000E+01 0.  1.
         13    1    6    6    0    0 -0.46001369156E+02  0.13644732723E+02  0.21979260944E+03  0.22496909979E+03  0.00000000000E+00 0. -1.
        -14    1    6    6    0    0  0.26342774378E+01 -0.86267180322E+01 -0.21714085680E+01  0.92776450027E+01  0.00000000000E+00 0.  1.
</event>
<event>
12    1  0.8747122E-002  0.1884218E+03  0.7818608E-02  0.1160603E+00
         21   -1    0    0  503  502  0.00000000000E+00  0.00000000000E+00  0.16518606097E+03  0.16518606097E+03  0.00000000000E+00 0. -1.
         21   -1    0    0  501  503 -0.00000000000E+00 -0.00000000000E+00 -0.22362159060E+03  0.22362159060E+03  0.00000000000E+00 0. -1.
          6    2    1    2  501    0 -0.38638203732E+02 -0.62932168435E+02 -0.74406045621E+02  0.19971021718E+03  0.16998394809E+03 0.  0.
         24    2    3    3    0    0 -0.12267199405E+02 -0.10733506019E+03 -0.48661270106E+02  0.14181436126E+03  0.77923645476E+02 0.  0.
         -6    2    1    2    0  502  0.38638203732E+02  0.62932168435E+02  0.15970515990E+02  0.18909743440E+03  0.17334766714E+03 0.  0.
        -24    2    5    5    0    0  0.56697967104E+02 -0.22171176796E+02  0.73539601404E+01  0.10154705200E+03  0.80941352143E+02 0.  0.
          5    1    3    3  501    0 -0.26371004327E+02  0.44402891758E+02 -0.25744775515E+02  0.57895855914E+02  0.47000000000E+01 0. -1.
        -13    1    4    4    0    0  0.20181463939E+02 -0.30082092375E+02 -0.45236831289E+02  0.57953383623E+02  0.00000000000E+00 0.  1.
         14    1    4    4    0    0 -0.32448663343E+02 -0.77252967818E+02 -0.34244388172E+01  0.83860977640E+02  0.00000000000E+00 0. -1.
         -5    1    5    5    0  502 -0.18059763372E+02  0.85103345231E+02  0.86165558498E+01  0.87550382394E+02  0.47000000000E+01 0.  1.
         13    1    6    6    0    0 -0.51119338624E+00  0.20475851347E+02  0.20512973347E+02  0.28987995491E+02  0.00000000000E+00 0. -1.
        -14    1    6    6    0    0  0.57209160490E+02 -0.42647028143E+02 -0.13159013207E+02  0.72559056513E+02  0.00000000000E+00 0.  1.
</event>
<event>
12    1  0.8747122E-002  0.3058079E+03  0.7818608E-02  0.1082459E+00
         21   -1    0    0  503  502  0.00000000000E+00  0.00000000000E+00  0.22601325181E+03  0.22601325181E+03  0.00000000000E+00 0. -1.
         21   -1    0    0  501  503 -0.00000000000E+00 -0.00000000000E+00 -0.10387759586E+04  0.10387759586E+04  0.00000000000E+00 0.  1.
          6    2    1    2  501    0  0.24917338527E+03 -0.38374216505E+02 -0.89710193828E+03  0.94756437170E+03  0.17183246031E+03 0.  0.
         24    2    3    3    0    0  0.17992304292E+03 -0.76462630546E+02 -0.76497969748E+03  0.79353608302E+03  0.79288979333E+02 0.  0.
         -6    2    1    2    0  502 -0.24917338527E+03  0.38374216505E+02  0.84339231531E+02  0.31722483868E+03  0.17308534277E+03 0.  0.
        -24    2    5    5    0    0 -0.46570334122E+02  0.11011176327E+02  0.60597880015E+02  0.11135479697E+03  0.80235563949E+02 0.  0.
          5    1    3    3  501    0  0.69250342349E+02  0.38088414042E+02 -0.13212224080E+03  0.15402828868E+03  0.47000000000E+01 0. -1.
        -13    1    4    4    0    0  0.76772177866E+02  0.83226016264E+01 -0.26315491510E+03  0.27425123944E+03  0.00000000000E+00 0.  1.
         14    1    4    4    0    0  0.10315086505E+03 -0.84785232173E+02 -0.50182478238E+03  0.51928484357E+03  0.00000000000E+00 0. -1.
         -5    1    5    5    0  502 -0.20260305115E+03  0.27363040177E+02  0.23741351517E+02  0.20587004171E+03  0.47000000000E+01 0.  1.
         11    1    6    6    0    0 -0.44970550333E+02  0.16353387062E+02 -0.25896086834E+01  0.47921704256E+02  0.00000000000E+00 0. -1.
        -12    1    6    6    0    0 -0.15997837893E+01 -0.53422107346E+01  0.63187488698E+02  0.63433092717E+02  0.00000000000E+00 0.  1.
</event>
<event>
12    1  0.8747122E-002  0.2137971E+03  0.7818608E-02  0.1138997E+00
         21   -1    0    0  501  502  0.00000000000E+00  0.00000000000E+00  0.34397245479E+03  0.34397245479E+03  0.00000000000E+00 0. -1.
         21   -1    0    0  502  503 -0.00000000000E+00 -0.00000000000E+00 -0.16167935606E+03  0.16167935606E+03  0.00000000000E+00 0. -1.
         -6    2    1    2    0  503  0.62410219456E+02 -0.11025535754E+03 -0.17540284489E+02  0.21451537285E+03  0.17221470393E+03 0.  0.
        -24    2    3    3    0    0 -0.15832416339E+02 -0.96988994604E+02  0.16888405257E+02  0.12788205871E+03  0.80069171503E+02 0.  0.
          6    2    1    2  501    0 -0.62410219456E+02  0.11025535754E+03  0.19983338322E+03  0.29113643800E+03  0.16963420978E+03 0.  0.
         24    2    5    5    0    0 -0.30967352663E+02  0.45943107806E+02  0.22213501931E+02  0.99575399259E+02  0.79699902031E+02 0.  0.
          5    1    5    5  501    0 -0.31442866793E+02  0.64312249730E+02  0.17761988129E+03  0.19156103875E+03  0.47000000000E+01 0. -1.
        -11    1    6    6    0    0 -0.26512811779E+02 -0.15027735514E+02  0.23412087964E+02  0.38430299062E+02  0.00000000000E+00 0.  1.
         12    1    6    6    0    0 -0.44545408839E+01  0.60970843320E+02 -0.11985860330E+01  0.61145100198E+02  0.00000000000E+00 0. -1.
         -5    1    3    3    0  503  0.78242635795E+02 -0.13266362933E+02 -0.34428689746E+02  0.86633314142E+02  0.47000000000E+01 0.  1.
         11    1    4    4    0    0  0.11650184336E+02 -0.97553522356E+02  0.19858691197E+02  0.10023364772E+03  0.00000000000E+00 0. -1.
        -12    1    4    4    0    0 -0.27482600676E+02  0.56452775176E+00 -0.29702859405E+01  0.27648410986E+02  0.00000000000E+00 0.  1.
</event>
<event>
12    1  0.8747122E-002  0.2260665E+03  0.7818608E-02  0.1129627E+00
         21   -1    0    0  503  502  0.00000000000E+00  0.00000000000E+00  0.21451540123E+03  0.21451540123E+03  0.00000000000E+00 0. -1.
         21   -1    0    0  501  503 -0.00000000000E+00 -0.00000000000E+00 -0.28350796380E+03  0.28350796380E+03  0.00000000000E+00 0. -1.
          6    2    1    2  501    0  0.14006220325E+03 -0.41092666830E+02 -0.13512566459E+03  0.26248214203E+03  0.17126558792E+03 0.  0.
         24    2    3    3    0    0  0.75500342072E+02 -0.16537655875E+02 -0.66666705427E+00  0.11124559056E+03  0.80008382430E+02 0.  0.
         -6    2    1    2    0  502 -0.14006220325E+03  0.41092666830E+02  0.66133102012E+02  0.23554122300E+03  0.17262691709E+03 0.  0.
        -24    2    5    5    0    0 -0.12653234705E+03  0.36339090194E+01 -0.10584820153E+02  0.14897364751E+03  0.77829744244E+02 0.  0.
          5    1    3    3  501    0  0.64561861178E+02 -0.24555010955E+02 -0.13445899754E+03  0.15123655147E+03  0.47000000000E+01 0. -1.
        -11    1    4    4    0    0 -0.68408200351E+01  0.19774193235E+02  0.32150066604E+01  0.21169596234E+02  0.00000000000E+00 0.  1.
         12    1    4    4    0    0  0.82341162107E+02 -0.36311849110E+02 -0.38816737147E+01  0.90075994326E+02  0.00000000000E+00 0. -1.
         -5    1    5    5    0  502 -0.13529856199E+02  0.37458757811E+02  0.76717922165E+02  0.86567575494E+02  0.47000000000E+01 0.  1.
         13    1    6    6    0    0 -0.10898487220E+03  0.22746558094E+02  0.15233255925E+02  0.11237063833E+03  0.00000000000E+00 0. -1.
        -14    1    6    6    0    0 -0.17547474854E+02 -0.19112649075E+02 -0.25818076078E+02  0.36603009176E+02  0.00000000000E+00 0.  1.
</event>
<event>
12    1  0.8747122E-002  0.2212327E+03  0.7818608E-02  0.1133078E+00
         21   -1    0    0  501  502  0.00000000000E+00  0.00000000000E+00  0.10273216683E+04  0.10273216683E+04  0.00000000000E+00 0.  1.
         21   -1    0    0  502  503 -0.00000000000E+00 -0.00000000000E+00 -0.52849793436E+02  0.52849793436E+02  0.00000000000E+00 0.  1.
         -6    2    1    2    0  503 -0.90242687590E+02  0.10612588094E+03  0.65943581762E+03  0.69555698298E+03  0.17186469600E+03 0.  0.
        -24    2    3    3    0    0 -0.11392616889E+03  0.12449418602E+03  0.49704325285E+03  0.53035487339E+03  0.75804499968E+02 0.  0.
          6    2    1    2  501    0  0.90242687590E+02 -0.10612588094E+03  0.31503605721E+03  0.38461447873E+03  0.17109685747E+03 0.  0.
         24    2    5    5    0    0  0.10057140045E+03 -0.19340082080E+02  0.15401300238E+03  0.20134153643E+03  0.79559814140E+02 0.  0.
          5    1    5    5  501    0 -0.10328712858E+02 -0.86785798865E+02  0.16102305483E+03  0.18327294231E+03  0.47000000000E+01 0. -1.
        -13    1    6    6    0    0  0.38411439462E+02 -0.36681560501E+01  0.47281272989E+01  0.38874789236E+02  0.00000000000E+00 0.  1.
         14    1    6    6    0    0  0.62159960986E+02 -0.15671926030E+02  0.14928487508E+03  0.16246674719E+03  0.00000000000E+00 0. -1.
         -5    1    3    3    0  503  0.23683481300E+02 -0.18368305071E+02  0.16239256477E+03  0.16520210958E+03  0.47000000000E+01 0.  1.
         13    1    4    4    0    0  0.53233952927E+01  0.77226362478E+00  0.11059011643E+01  0.54916250722E+01  0.00000000000E+00 0. -1.
        -14    1    4    4    0    0 -0.11924956418E+03  0.12372192239E+03  0.49593735169E+03  0.52486324832E+03  0.00000000000E+00 0.  1.
</event>
<event>
12    1  0.8747122E-002  0.2063438E+03  0.7818608E-02  0.1144843E+00
         21   -1    0    0  503  502  0.00000000000E+00  0.00000000000E+00  0.80330886167E+03  0.80330886167E+03  0.00000000000E+00 0.  1.
         21   -1    0    0  501  503 -0.00000000000E+00 -0.00000000000E+00 -0.97508619202E+02  0.97508619202E+02  0.00000000000E+00 0.  1.
          6    2    1    2  501    0 -0.74675418205E+01 -0.10981408688E+03  0.47903640878E+02  0.21183137596E+03  0.17453617153E+03 0.  0.
         24    2    3    3    0    0 -0.68305144018E+02 -0.35876927081E+02  0.26767896093E+02  0.11366454272E+03  0.79059227256E+02 0.  0.
         -6    2    1    2    0  502  0.74675418205E+01  0.10981408688E+03  0.65789660159E+03  0.68898610492E+03  0.17250801873E+03 0.  0.
        -24    2    5    5    0    0 -0.37109843242E+02  0.12789192957E+03  0.47081195178E+03  0.49575901611E+03  0.79872535937E+02 0.  0.
          5    1    3    3  501    0  0.60837602198E+02 -0.73937159797E+02  0.21135744786E+02  0.98166833236E+02  0.47000000000E+01 0. -1.
        -11    1    4    4    0    0 -0.29106558726E+02 -0.56554234875E+02  0.37244768660E+01  0.63713773794E+02  0.00000000000E+00 0.  1.
         12    1    4    4    0    0 -0.39198585292E+02  0.20677307794E+02  0.23043419227E+02  0.49950768925E+02  0.00000000000E+00 0. -1.
         -5    1    5    5    0  502  0.44577385062E+02 -0.18077842694E+02  0.18708464981E+03  0.19322708881E+03  0.47000000000E+01 0.  1.
         13    1    6    6    0    0 -0.12319335268E+02  0.75122596201E+01  0.71876080558E+01  0.16120228771E+02  0.00000000000E+00 0. -1.
        -14    1    6    6    0    0 -0.24790507974E+02  0.12037966995E+03  0.46362434373E+03  0.47963878734E+03  0.00000000000E+00 0.  1.
</event>
<event>
12    1  0.8747122E-002  0.1982139E+03  0.7818608E-02  0.1151485E+00
         21   -1    0    0  501  502  0.00000000000E+00  0.00000000000E+00  0.14860351974E+03  0.14860351974E+03  0.00000000000E+00 0. -1.
         21   -1    0    0  502  503 -0.00000000000E+00 -0.00000000000E+00 -0.27230469838E+03  0.27230469838E+03  0.00000000000E+00 0. -1.
         -6    2    1    2    0  503 -0.54894931756E+02 -0.80721782312E+02 -0.10068496888E+03  0.22136249865E+03  0.17127297854E+03 0.  0.
        -24    2    3    3    0    0 -0.25331399735E+02 -0.15445408043E+01  0.80245740388E+01  0.83584079731E+02  0.79232816290E+02 0.  0.
          6    2    1    2  501    0  0.54894931756E+02  0.80721782312E+02 -0.23016209755E+02  0.19954571947E+03  0.17250880724E+03 0.  0.
         24    2    5    5    0    0  0.53368004471E+01 -0.17876101739E+02 -0.25156107637E+02  0.89073006636E+02  0.83385456210E+02 0.  0.
          5    1    5    5  501    0  0.49558131309E+02  0.98597884051E+02  0.21398978816E+01  0.11047271284E+03  0.47000000000E+01 0. -1.
        -13    1    6    6    0    0 -0.29084776565E+02 -0.32950146798E+02 -0.26769083414E+02  0.51460861134E+02  0.00000000000E+00 0.  1.
         14    1    6    6    0    0  0.34421577012E+02  0.15074045059E+02  0.16129757768E+01  0.37612145502E+02  0.00000000000E+00 0. -1.
         -5    1    3    3    0  503 -0.29563532021E+02 -0.79177241508E+02 -0.10870954292E+03  0.13777841892E+03  0.47000000000E+01 0.  1.
         11    1    4    4    0    0 -0.16821676556E+02 -0.22873752404E+02 -0.28635263148E+02  0.40325620228E+02  0.00000000000E+00 0. -1.
        -12    1    4    4    0    0 -0.85097231789E+01  0.21329211599E+02  0.36659837187E+02  0.43258459504E+02  0.00000000000E+00 0.  1.
</event>
<event>
12    1  0.8747122E-002  0.2408355E+03  0.7818608E-02  0.1119338E+00
         21   -1    0    0  503  502  0.00000000000E+00  0.00000000000E+00  0.12580065042E+03  0.12580065042E+03  0.00000000000E+00 0.  1.
         21   -1    0    0  501  503 -0.00000000000E+00 -0.00000000000E+00 -0.47337771094E+03  0.47337771094E+03  0.00000000000E+00 0.  1.
          6    2    1    2  501    0  0.11001144234E+03 -0.12773606871E+03 -0.12345593440E+03  0.27063460204E+03  0.17199621911E+03 0.  0.
         24    2    3    3    0    0  0.30520199977E+02 -0.13151861588E+02 -0.17045719399E+01  0.85448526984E+02  0.78702548423E+02 0.  0.
         -6    2    1    2    0  502 -0.11001144234E+03  0.12773606871E+03 -0.22412112611E+03  0.32854375932E+03  0.17114818702E+03 0.  0.
        -24    2    5    5    0    0 -0.10918129841E+03  0.13571738840E+03 -0.24173566568E+03  0.30862510958E+03  0.80458441243E+02 0.  0.
          5    1    3    3  501    0  0.79491242362E+02 -0.11458420712E+03 -0.12175136246E+03  0.18518607506E+03  0.47000000000E+01 0. -1.
        -13    1    4    4    0    0  0.28835549170E+02  0.26304154025E+02  0.15983094461E+02  0.42176494917E+02  0.00000000000E+00 0.  1.
         14    1    4    4    0    0  0.16846508077E+01 -0.39456015614E+02 -0.17687666401E+02  0.43272032067E+02  0.00000000000E+00 0. -1.
         -5    1    5    5    0  502 -0.83014393207E+00 -0.79813196922E+01  0.17614539569E+02  0.19918649733E+02  0.47000000000E+01 0.  1.
         11    1    6    6    0    0 -0.12782318478E+02  0.30963012722E+02 -0.71958025570E+01  0.34261865053E+02  0.00000000000E+00 0. -1.
        -12    1    6    6    0    0 -0.96398979930E+02  0.10475437568E+03 -0.23453986312E+03  0.27436324453E+03  0.00000000000E+00 0.  1.
</event>
<event>
12    1  0.8747122E-002  0.2004161E+03  0.7818608E-02  0.1151336E+00
         21   -1    0    0  501  502  0.00000000000E+00  0.00000000000E+00  0.21090755121E+03  0.21090755121E+03  0.00000000000E+00 0.  1.
         21   -1    0    0  502  503 -0.00000000000E+00 -0.00000000000E+00 -0.37778865889E+03  0.37778865889E+03  0.00000000000E+00 0. -1.
         -6    2    1    2    0  503  0.57611979550E+02  0.57192617436E+02 -0.29626071263E+03  0.35768284681E+03  0.18323884244E+03 0.  0.
        -24    2    3    3    0    0  0.56334931447E+02  0.10653552604E+03 -0.25302351824E+03  0.29189608173E+03  0.81602566984E+02 0.  0.
          6    2    1    2  501    0 -0.57611979550E+02 -0.57192617436E+02  0.12937960495E+03  0.23101336329E+03  0.17331461613E+03 0.  0.
         24    2    5    5    0    0  0.37699596824E+02 -0.12311357244E+02  0.44070053695E+02  0.95372537416E+02  0.74705569690E+02 0.  0.
          5    1    5    5  501    0 -0.95311576374E+02 -0.44881260191E+02  0.85309551256E+02  0.13564082587E+03  0.47000000000E+01 0. -1.
        -11    1    6    6    0    0 -0.12423199318E+02  0.29109444336E+01  0.40955035726E+02  0.42896671551E+02  0.00000000000E+00 0.  1.
         12    1    6    6    0    0  0.50122796142E+02 -0.15222301678E+02  0.31150179685E+01  0.52475865866E+02  0.00000000000E+00 0. -1.
         -5    1    3    3    0  503  0.12770481030E+01 -0.49342908600E+02 -0.43237194393E+02  0.65786765081E+02  0.47000000000E+01 0.  1.
         11    1    4    4    0    0  0.24209220142E+02  0.59969234014E+02 -0.21298832382E+03  0.22259025462E+03  0.00000000000E+00 0. -1.
        -12    1    4    4    0    0  0.32125711305E+02  0.46566292021E+02 -0.40035194423E+02  0.69305827114E+02  0.00000000000E+00 0.  1.
</event>
<event>
12    1  0.8747122E-002  0.2229988E+03  0.7818608E-02  0.1132092E+00
         21   -1    0    0  503  502  0.00000000000E+00  0.00000000000E+00  0.97338558612E+02  0.97338558612E+02  0.00000000000E+00 0.  1.
         21   -1    0    0  501  503 -0.00000000000E+00 -0.00000000000E+00 -0.55392087559E+03  0.55392087559E+03  0.00000000000E+00 0. -1.
          6    2    1    2  501    0  0.12989510062E+03  0.48770005422E+02 -0.13104485408E+03  0.25666712030E+03  0.17162169522E+03 0.  0.
         24    2    3    3    0    0  0.11283108477E+03 -0.28809955770E+02 -0.90694558860E+02  0.16744791083E+03  0.79072325070E+02 0.  0.
         -6    2    1    2    0  502 -0.12989510062E+03 -0.48770005422E+02 -0.32553746290E+03  0.39459231390E+03  0.17457721455E+03 0.  0.
        -24    2    5    5    0    0 -0.14061100466E+03 -0.78817866681E+02 -0.31092961018E+03  0.35919197595E+03  0.79736706483E+02 0.  0.
          5    1    3    3  501    0  0.17064015848E+02  0.77579961193E+02 -0.40350295216E+02  0.89219209476E+02  0.47000000000E+01 0. -1.
        -13    1    4    4    0    0  0.70858790122E+02  0.14370965442E+02 -0.20891212227E+02  0.75259122594E+02  0.00000000000E+00 0.  1.
         14    1    4    4    0    0  0.41972294646E+02 -0.43180921212E+02 -0.69803346634E+02  0.92188788233E+02  0.00000000000E+00 0. -1.
         -5    1    5    5    0  502  0.10715904040E+02  0.30047861258E+02 -0.14607852716E+02  0.35400337944E+02  0.47000000000E+01 0.  1.
         11    1    6    6    0    0 -0.39009345683E+02 -0.19224956611E+02 -0.17022544716E+03  0.17569300176E+03  0.00000000000E+00 0. -1.
        -12    1    6    6    0    0 -0.10160165897E+03 -0.59592910070E+02 -0.14070416303E+03  0.18349897419E+03  0.00000000000E+00 0.  1.
</event>
<event>
12    1  0.8747122E-002  0.1895553E+03  0.7818608E-02  0.1159676E+00
         21   -1    0    0  501  502  0.00000000000E+00  0.00000000000E+00  0.20430341904E+04  0.20430341904E+04  0.00000000000E+00 0.  1.
         21   -1    0    0  502  503 -0.00000000000E+00 -0.00000000000E+00 -0.49926375940E+02  0.49926375940E+02  0.00000000000E+00 0. -1.
         -6    2    1    2    0  503 -0.77227615699E+02 -0.17308952851E+02  0.14680885646E+03  0.23695651541E+03  0.16832066238E+03 0.  0.
        -24    2    3    3    0    0 -0.86757549364E+02 -0.65561181413E+02  0.93648939034E+02  0.16438128535E+03  0.80161975470E+02 0.  0.
          6    2    1    2  501    0  0.77227615699E+02  0.17308952851E+02  0.18462989580E+04  0.18560040510E+04  0.17224253337E+03 0.  0.
         24    2    5    5    0    0  0.91532899580E+02 -0.58852856646E+01  0.17759616511E+04  0.17804260079E+04  0.86394879108E+02 0.  0.
          5    1    5    5  501    0 -0.14305283881E+02  0.23194238515E+02  0.70337306909E+02  0.75578043045E+02  0.47000000000E+01 0. -1.
        -13    1    6    6    0    0  0.41489006874E+02 -0.17195653821E+02  0.27951510662E+03  0.28310019963E+03  0.00000000000E+00 0.  1.
         14    1    6    6    0    0  0.50043892706E+02  0.11310368157E+02  0.14964465445E+04  0.14973258083E+04  0.00000000000E+00 0. -1.
         -5    1    3    3    0  503  0.95299336642E+01  0.48252228562E+02  0.53159917426E+02  0.72575230056E+02  0.47000000000E+01 0.  1.
         11    1    4    4    0    0 -0.43127528043E+02 -0.76725770545E+02  0.75001265068E+02  0.11563743902E+03  0.00000000000E+00 0. -1.
        -12    1    4    4    0    0 -0.43630021320E+02  0.11164589132E+02  0.18647673966E+02  0.48743846332E+02  0.00000000000E+00 0.  1.
</event>
<event>
12    1  0.8747122E-002  0.3092080E+03  0.7818608E-02  0.1080869E+00
         21   -1    0    0  503  502  0.00000000000E+00  0.00000000000E+00  0.83354813479E+02  0.83354813479E+02  0.00000000000E+00 0.  1.
         21   -1    0    0  501  503 -0.00000000000E+00 -0.00000000000E+00 -0.14400477354E+04  0.14400477354E+04  0.00000000000E+00 0. -1.
          6    2    1    2  501    0  0.17259302074E+03  0.18973367495E+03 -0.10234728520E+04  0.10688201020E+04  0.17056527579E+03 0.  0.
         24    2    3    3    0    0  0.13468545330E+03  0.19094117540E+03 -0.68479462036E+03  0.72799246763E+03  0.80191377623E+02 0.  0.
         -6    2    1    2    0  502 -0.17259302074E+03 -0.18973367495E+03 -0.33322006994E+03  0.45458244696E+03  0.17269153962E+03 0.  0.
        -24    2    5    5    0    0 -0.11369152584E+02 -0.95722352489E+02 -0.15691321461E+03  0.19779953934E+03  0.72186386841E+02 0.  0.
          5    1    3    3  501    0  0.37907567433E+02 -0.12075004468E+01 -0.33867823166E+03  0.34082763434E+03  0.47000000000E+01 0. -1.
        -11    1    4    4    0    0 -0.10459299314E+02  0.15643923998E+02 -0.67735928502E+02  0.70301389106E+02  0.00000000000E+00 0.  1.
         12    1    4    4    0    0  0.14514475262E+03  0.17529725140E+03 -0.61705869186E+03  0.65769107852E+03  0.00000000000E+00 0. -1.
         -5    1    5    5    0  502 -0.16122386815E+03 -0.94011322462E+02 -0.17630685533E+03  0.25678290763E+03  0.47000000000E+01 0.  1.
         11    1    6    6    0    0 -0.41423825685E+02 -0.67212520142E+02 -0.10018689777E+03  0.12755732313E+03  0.00000000000E+00 0. -1.
        -12    1    6    6    0    0  0.30054673101E+02 -0.28509832348E+02 -0.56726316841E+02  0.70242216210E+02  0.00000000000E+00 0.  1.
</event>
<event>
12    1  0.8747122E-002  0.2580595E+03  0.7818608E-02  0.1108374E+00
         21   -1    0    0  503  502  0.00000000000E+00  0.00000000000E+00  0.43958474713E+03  0.43958474713E+03  0.00000000000E+00 0.  1.
         21   -1    0    0  501  503 -0.00000000000E+00 -0.00000000000E+00 -0.16138829765E+03  0.16138829765E+03  0.00000000000E+00 0.  1.
          6    2    1    2  501    0 -0.54312487338E+01  0.19199241228E+03  0.21444844980E+03  0.33553366571E+03  0.17234882758E+03 0.  0.
         24    2    3    3    0    0 -0.34238580351E+02  0.23815125248E+02  0.73612982914E+02  0.11424159409E+03  0.76764770513E+02 0.  0.
         -6    2    1    2    0  502  0.54312487338E+01 -0.19199241228E+03  0.63747999677E+02  0.26543937907E+03  0.17176632866E+03 0.  0.
        -24    2    5    5    0    0 -0.47321088451E+02 -0.47743792611E+02 -0.29973580356E+01  0.97905782043E+02  0.71118231539E+02 0.  0.
          5    1    3    3  501    0  0.28807331617E+02  0.16817728703E+03  0.14083546689E+03  0.22129207162E+03  0.47000000000E+01 0. -1.
        -13    1    4    4    0    0  0.18388451639E+02  0.28912391932E+02  0.32989419695E+02  0.47564307761E+02  0.00000000000E+00 0.  1.
         14    1    4    4    0    0 -0.52627031991E+02 -0.50972666844E+01  0.40623563219E+02  0.66677286331E+02  0.00000000000E+00 0. -1.
         -5    1    5    5    0  502  0.52752337184E+02 -0.14424861967E+03  0.66745357712E+02  0.16753359702E+03  0.47000000000E+01 0.  1.
         11    1    6    6    0    0 -0.46830944729E+02 -0.40565280386E+02  0.26615061299E+02  0.67431749532E+02  0.00000000000E+00 0. -1.
        -12    1    6    6    0    0 -0.49014372167E+00 -0.71785122246E+01 -0.29612419335E+02  0.30474032511E+02  0.00000000000E+00 0.  1.
</event>
<event>
12    1  0.8747122E-002  0.1800171E+03  0.7818608E-02  0.1169339E+00
         21   -1    0    0  503  502  0.00000000000E+00  0.00000000000E+00  0.34109339907E+03  0.34109339907E+03  0.00000000000E+00 0.  1.
         21   -1    0    0  501  503 -0.00000000000E+00 -0.00000000000E+00 -0.19121836000E+03  0.19121836000E+03  0.00000000000E+00 0.  1.
          6    2    1    2  501    0  0.17941829954E+02 -0.16144580785E+02 -0.11768370504E+03  0.20983099234E+03  0.17203788583E+03 0.  0.
         24    2    3    3    0    0  0.34480627406E+01 -0.63604498051E+02 -0.12336405196E+03  0.15966258219E+03  0.78841800634E+02 0.  0.
         -6    2    1    2    0  502 -0.17941829954E+02  0.16144580785E+02  0.26755874411E+03  0.32248076674E+03  0.17839172239E+03 0.  0.
        -24    2    5    5    0    0  0.21339079820E+02  0.72751044443E+02  0.17863437784E+03  0.20988896190E+03  0.79969147711E+02 0.  0.
          5    1    3    3  501    0  0.14493767213E+02  0.47459917267E+02  0.56803469229E+01  0.50168410142E+02  0.47000000000E+01 0. -1.
        -13    1    4    4    0    0  0.30692804008E+02 -0.49043242173E+01 -0.66939926418E+02  0.73804162232E+02  0.00000000000E+00 0.  1.
         14    1    4    4    0    0 -0.27244741268E+02 -0.58700173834E+02 -0.56424125544E+02  0.85858419962E+02  0.00000000000E+00 0. -1.
         -5    1    5    5    0  502 -0.39280909774E+02 -0.56606463658E+02  0.88924366273E+02  0.11259180484E+03  0.47000000000E+01 0.  1.
         13    1    6    6    0    0  0.20090681572E+02 -0.56565805107E+01  0.84697792922E+01  0.22524865157E+02  0.00000000000E+00 0. -1.
        -14    1    6    6    0    0  0.12483982484E+01  0.78407624954E+02  0.17016459855E+03  0.18736409674E+03  0.00000000000E+00 0.  1.
</event>
<event>
12    1  0.8747122E-002  0.2932930E+03  0.7818608E-02  0.1088978E+00
         21   -1    0    0  501  502  0.00000000000E+00  0.00000000000E+00  0.17830604456E+03  0.17830604456E+03  0.00000000000E+00 0. -1.
         21   -1    0    0  502  503 -0.00000000000E+00 -0.00000000000E+00 -0.64886899981E+03  0.64886899981E+03  0.00000000000E+00 0.  1.
         -6    2    1    2    0  503 -0.81098399643E+02  0.22158629409E+03 -0.44818299442E+03  0.53562000264E+03  0.17419344015E+03 0.  0.
        -24    2    3    3    0    0 -0.11335747008E+02  0.31633030315E+02 -0.92221273237E+02  0.12613263157E+03  0.79218241220E+02 0.  0.
          6    2    1    2  501    0  0.81098399643E+02 -0.22158629409E+03 -0.22379960828E+02  0.29155504172E+03  0.16978234170E+03 0.  0.
         24    2    5    5    0    0  0.32047138652E+02 -0.10148140453E+03 -0.74155910831E+02  0.15179077697E+03  0.78840638647E+02 0.  0.
          5    1    5    5  501    0  0.49051260991E+02 -0.12010488957E+03  0.51775950003E+02  0.13976426475E+03  0.47000000000E+01 0. -1.
        -11    1    6    6    0    0 -0.22771586392E+02 -0.46105655323E+02 -0.13836703523E+02  0.53251581798E+02  0.00000000000E+00 0.  1.
         12    1    6    6    0    0  0.54818725045E+02 -0.55375749203E+02 -0.60319207308E+02  0.98539195174E+02  0.00000000000E+00 0. -1.
         -5    1    3    3    0  503 -0.69762652635E+02  0.18995326378E+03 -0.35596172118E+03  0.40948737107E+03  0.47000000000E+01 0.  1.
         11    1    4    4    0    0 -0.23194052275E+01 -0.15564922721E+02 -0.72505620797E+02  0.74193743045E+02  0.00000000000E+00 0. -1.
        -12    1    4    4    0    0 -0.90163417806E+01  0.47197953036E+02 -0.19715652440E+02  0.51938888524E+02  0.00000000000E+00 0.  1.
</event>
<event>
12    1  0.8747122E-002  0.1790474E+03  0.7818608E-02  0.1169847E+00
         21   -1    0    0  503  502  0.00000000000E+00  0.00000000000E+00  0.81650623212E+02  0.81650623212E+02  0.00000000000E+00 0.  1.
         21   -1    0    0  501  503 -0.00000000000E+00 -0.00000000000E+00 -0.76260878198E+03  0.76260878198E+03  0.00000000000E+00 0.  1.
          6    2    1    2  501    0  0.40531536226E+02 -0.41373684128E+02 -0.63620115620E+03  0.65970273797E+03  0.16462443370E+03 0.  0.
         24    2    3    3    0    0  0.20482605995E+02  0.20091499919E+02 -0.51519204173E+03  0.52242482920E+03  0.81741401879E+02 0.  0.
         -6    2    1    2    0  502 -0.40531536226E+02  0.41373684128E+02 -0.44757002568E+02  0.18455666722E+03  0.16942073949E+03 0.  0.
        -24    2    5    5    0    0  0.20619178987E+02 -0.19279474366E+02  0.50538988101E+01  0.84950284379E+02  0.79963493226E+02 0.  0.
          5    1    3    3  501    0  0.20048930230E+02 -0.61465184047E+02 -0.12100911447E+03  0.13727790878E+03  0.47000000000E+01 0. -1.
        -11    1    4    4    0    0 -0.13254491695E+02 -0.19802507906E+02 -0.30143112592E+03  0.30237153395E+03  0.00000000000E+00 0.  1.
         12    1    4    4    0    0  0.33737097690E+02  0.39894007825E+02 -0.21376091581E+03  0.22005329525E+03  0.00000000000E+00 0. -1.
         -5    1    5    5    0  502 -0.61150715213E+02  0.60653158495E+02 -0.49810901378E+02  0.99606382841E+02  0.47000000000E+01 0.  1.
         11    1    6    6    0    0  0.13217917431E+02  0.13070574232E+02 -0.30875712790E+02  0.36039740457E+02  0.00000000000E+00 0. -1.
        -12    1    6    6    0    0  0.74012615563E+01 -0.32350048599E+02  0.35929611600E+02  0.48910543921E+02  0.00000000000E+00 0.  1.
</event>
<event>
12    1  0.8747122E-002  0.1796802E+03  0.7818608E-02  0.1168666E+00
         21   -1    0    0  501  502  0.00000000000E+00  0.00000000000E+00  0.26452379731E+03  0.26452379731E+03  0.00000000000E+00 0. -1.
         21   -1    0    0  502  503 -0.00000000000E+00 -0.00000000000E+00 -0.12683074581E+03  0.12683074581E+03  0.00000000000E+00 0. -1.
         -6    2    1    2    0  503  0.36388413809E+02 -0.24577931152E+02  0.24764705221E+02  0.17913344922E+03  0.17189331181E+03 0.  0.
        -24    2    3    3    0    0  0.65877109096E+02 -0.19755501515E+02  0.69221477978E+02  0.12536232666E+03  0.78702138403E+02 0.  0.
          6    2    1    2  501    0 -0.36388413809E+02  0.24577931152E+02  0.11292834627E+03  0.21222109390E+03  0.17423200035E+03 0.  0.
         24    2    5    5    0    0 -0.24379909295E+02 -0.44790821365E+02  0.10447477056E+03  0.14115928314E+03  0.80064773013E+02 0.  0.
          5    1    5    5  501    0 -0.12008504514E+02  0.69368752517E+02  0.84535757184E+01  0.71061810763E+02  0.47000000000E+01 0. -1.
        -11    1    6    6    0    0  0.68907296771E+00 -0.38509760156E+02  0.55491948572E+01  0.38913622453E+02  0.00000000000E+00 0.  1.
         12    1    6    6    0    0 -0.25068982262E+02 -0.62810612090E+01  0.98925575699E+02  0.10224566068E+03  0.00000000000E+00 0. -1.
         -5    1    3    3    0  503 -0.29488695287E+02 -0.48224296375E+01 -0.44456772757E+02  0.53771122559E+02  0.47000000000E+01 0.  1.
         13    1    4    4    0    0  0.16433191795E+02 -0.25038009319E+02  0.69454480995E+02  0.75636476872E+02  0.00000000000E+00 0. -1.
        -14    1    4    4    0    0  0.49443917300E+02  0.52825078049E+01 -0.23300301735E+00  0.49725849788E+02  0.00000000000E+00 0.  1.
</event>
<event>
12    1  0.8747122E-002  0.1909519E+03  0.7818608E-02  0.1157905E+00
         21   -1    0    0  501  502  0.00000000000E+00  0.00000000000E+00  0.54601957399E+02  0.54601957399E+02  0.00000000000E+00 0. -1.
         21   -1    0    0  502  503 -0.00000000000E+00 -0.00000000000E+00 -0.12897590040E+04  0.12897590040E+04  0.00000000000E+00 0. -1.
         -6    2    1    2    0  503 -0.56341195102E+02  0.58578276066E+02 -0.10872169352E+04  0.11038583693E+04  0.17279146604E+03 0.  0.
        -24    2    3    3    0    0 -0.44359198444E+02  0.10671404810E+03 -0.83272640226E+03  0.84453590187E+03  0.80324354775E+02 0.  0.
          6    2    1    2  501    0  0.56341195102E+02 -0.58578276066E+02 -0.14794011140E+03  0.24050259203E+03  0.17131688627E+03 0.  0.
         24    2    5    5    0    0  0.91888454802E+02 -0.65468416275E+02 -0.14907383871E+03  0.20397237109E+03  0.81560512053E+02 0.  0.
          5    1    5    5  501    0 -0.35547259700E+02  0.68901402092E+01  0.11337273116E+01  0.36530220939E+02  0.47000000000E+01 0. -1.
        -13    1    6    6    0    0  0.16621689433E+02  0.16488624537E+02 -0.49045295282E+02  0.54346998886E+02  0.00000000000E+00 0.  1.
         14    1    6    6    0    0  0.75266765369E+02 -0.81957040812E+02 -0.10002854343E+03  0.14962537221E+03  0.00000000000E+00 0. -1.
         -5    1    3    3    0  503 -0.11981996658E+02 -0.48135772033E+02 -0.25449053290E+03  0.25932246746E+03  0.47000000000E+01 0.  1.
         11    1    4    4    0    0 -0.22537917418E+02 -0.45850555454E+01 -0.23666092551E+03  0.23777589053E+03  0.00000000000E+00 0. -1.
        -12    1    4    4    0    0 -0.21821281026E+02  0.11129910364E+03 -0.59606547675E+03  0.60676001134E+03  0.00000000000E+00 0.  1.
</event>
<event>
12    1  0.8747122E-002  0.1867311E+03  0.7818608E-02  0.1161698E+00
         21   -1    0    0  503  502  0.00000000000E+00  0.00000000000E+00  0.11309263728E+03  0.11309263728E+03  0.00000000000E+00 0.  1.
         21   -1    0    0  501  503 -0.00000000000E+00 -0.00000000000E+00 -0.33237180416E+03  0.33237180416E+03  0.00000000000E+00 0.  1.
          6    2    1    2  501    0 -0.56642043187E+02  0.36189742586E+02 -0.17208266301E+03  0.25393100651E+03  0.17421393352E+03 0.  0.
         24    2    3    3    0    0 -0.94012284201E+02  0.59759047148E+02 -0.15401626833E+03  0.20596714878E+03  0.79322141749E+02 0.  0.
         -6    2    1    2    0  502  0.56642043187E+02 -0.36189742586E+02 -0.47196503874E+02  0.19153343494E+03  0.17303042564E+03 0.  0.
        -24    2    5    5    0    0  0.51766306672E+01  0.22950766091E+02 -0.71684129293E+02  0.10926544450E+03  0.79036623154E+02 0.  0.
          5    1    3    3  501    0  0.37370241014E+02 -0.23569304562E+02 -0.18066394679E+02  0.47963857723E+02  0.47000000000E+01 0. -1.
        -13    1    4    4    0    0 -0.66334316321E+02  0.69874764123E+02 -0.14685789569E+03  0.17564158309E+03  0.00000000000E+00 0.  1.
         14    1    4    4    0    0 -0.27677967880E+02 -0.10115716975E+02 -0.71583726364E+01  0.30325565694E+02  0.00000000000E+00 0. -1.
         -5    1    5    5    0  502  0.51465412520E+02 -0.59140508677E+02  0.24487625420E+02  0.82267990440E+02  0.47000000000E+01 0.  1.
         13    1    6    6    0    0  0.37374898955E+02  0.33611195086E+01 -0.58175512500E+02  0.69228393387E+02  0.00000000000E+00 0. -1.
        -14    1    6    6    0    0 -0.32198268288E+02  0.19589646583E+02 -0.13508616793E+02  0.40037051111E+02  0.00000000000E+00 0.  1.
</event>
<event>
12    1  0.8747122E-002  0.4006275E+03  0.7818608E-02  0.1043576E+00
         21   -1    0    0  501  502  0.00000000000E+00  0.00000000000E+00  0.28623342889E+03  0.28623342889E+03  0.00000000000E+00 0.  1.
         21   -1    0    0  502  503 -0.00000000000E+00 -0.00000000000E+00 -0.10794855521E+04  0.10794855521E+04  0.00000000000E+00 0. -1.
         -6    2    1    2    0  503 -0.31220975904E+03  0.18191394164E+03 -0.87005329289E+03  0.95779639864E+03  0.17266613147E+03 0.  0.
        -24    2    3    3    0    0 -0.27599442781E+03  0.89096385245E+02 -0.66019256875E+03  0.72543835051E+03  0.79344076711E+02 0.  0.
          6    2    1    2  501    0  0.31220975904E+03 -0.18191394164E+03  0.76801169704E+02  0.40792258234E+03  0.17301675558E+03 0.  0.
         24    2    5    5    0    0  0.72636505807E+02 -0.60237134625E+02  0.67076431581E+02  0.13900391515E+03  0.76930269663E+02 0.  0.
          5    1    5    5  501    0  0.23957325324E+03 -0.12167680701E+03  0.97247381223E+01  0.26891866719E+03  0.47000000000E+01 0. -1.
        -11    1    6    6    0    0  0.73932746663E+02 -0.44702404642E+02  0.80757628246E+02  0.11826305649E+03  0.00000000000E+00 0.  1.
         12    1    6    6    0    0 -0.12962408558E+01 -0.15534729983E+02 -0.13681196664E+02  0.20740858665E+02  0.00000000000E+00 0. -1.
         -5    1    3    3    0  503 -0.36215331235E+02  0.92817556392E+02 -0.20986072414E+03  0.23235804812E+03  0.47000000000E+01 0.  1.
         11    1    4    4    0    0 -0.16126680678E+03  0.67723963102E+02 -0.47879725279E+03  0.50974535547E+03  0.00000000000E+00 0. -1.
        -12    1    4    4    0    0 -0.11472762102E+03  0.21372422143E+02 -0.18139531596E+03  0.21569299504E+03  0.00000000000E+00 0.  1.
</event>
<event>
12    1  0.8747122E-002  0.1810511E+03  0.7818608E-02  0.1166896E+00
         21   -1    0    0  503  502  0.00000000000E+00  0.00000000000E+00  0.11000660089E+03  0.11000660089E+03  0.00000000000E+00 0.  1.
         21   -1    0    0  501  503 -0.00000000000E+00 -0.00000000000E+00 -0.31396840174E+03  0.31396840174E+03  0.00000000000E+00 0.  1.
          6    2    1    2  501    0 -0.10250603775E+02 -0.54802173320E+02 -0.52943276783E+02  0.18820796890E+03  0.17178735670E+03 0.  0.
         24    2    3    3    0    0 -0.33488293725E+01 -0.35046252963E+02  0.38152919947E+02  0.94620908162E+02  0.79107625776E+02 0.  0.
         -6    2    1    2    0  502  0.10250603775E+02  0.54802173320E+02 -0.15101852406E+03  0.23576703373E+03  0.17225314657E+03 0.  0.
        -24    2    5    5    0    0 -0.18351059534E+02  0.83480588821E+02 -0.15585872911E+03  0.19470580817E+03  0.79452112597E+02 0.  0.
          5    1    3    3  501    0 -0.69017744027E+01 -0.19755920357E+02 -0.91096196730E+02  0.93587060739E+02  0.47000000000E+01 0. -1.
        -13    1    4    4    0    0  0.25748330897E+02 -0.44458740934E+02  0.38228959835E+02  0.64039125225E+02  0.00000000000E+00 0.  1.
         14    1    4    4    0    0 -0.29097160270E+02  0.94124879709E+01 -0.76039888334E-01  0.30581782937E+02  0.00000000000E+00 0. -1.
         -5    1    5    5    0  502  0.28601663309E+02 -0.28678415501E+02  0.48402050539E+01  0.41061225562E+02  0.47000000000E+01 0.  1.
         13    1    6    6    0    0  0.13201698738E+02  0.20250299321E+01  0.27470808844E+01  0.13635690272E+02  0.00000000000E+00 0. -1.
        -14    1    6    6    0    0 -0.31552758272E+02  0.81455558889E+02 -0.15860581000E+03  0.18107011789E+03  0.00000000000E+00 0.  1.
</event>
<event>
12    1  0.8747122E-002  0.2106199E+03  0.7818608E-02  0.1141144E+00
         21   -1    0    0  503  502  0.00000000000E+00  0.00000000000E+00  0.89348155857E+03  0.89348155857E+03  0.00000000000E+00 0.  1.
         21   -1    0    0  501  503 -0.00000000000E+00 -0.00000000000E+00 -0.53705217860E+02  0.53705217860E+02  0.00000000000E+00 0.  1.
          6    2    1    2  501    0  0.56897092188E+02 -0.10881295911E+03  0.28875434205E+03  0.35740706202E+03  0.17112334371E+03 0.  0.
         24    2    3    3    0    0  0.21466796841E+02 -0.12566266087E+03  0.15521068072E+03  0.21814034755E+03  0.85105394166E+02 0.  0.
         -6    2    1    2    0  502 -0.56897092188E+02  0.10881295911E+03  0.55102199866E+03  0.58977971440E+03  0.17069660028E+03 0.  0.
        -24    2    5    5    0    0 -0.51183067465E+02  0.12462949971E+03  0.54886684603E+03  0.57218574617E+03  0.89383974324E+02 0.  0.
          5    1    3    3  501    0  0.35430295348E+02  0.16849701767E+02  0.13354366133E+03  0.13926671447E+03  0.47000000000E+01 0. -1.
        -13    1    4    4    0    0  0.46094814689E+02 -0.11763019968E+03  0.13767595483E+03  0.18685894240E+03  0.00000000000E+00 0.  1.
         14    1    4    4    0    0 -0.24628017849E+02 -0.80324611944E+01  0.17534725886E+02  0.31281405146E+02  0.00000000000E+00 0. -1.
         -5    1    5    5    0  502 -0.57140247235E+01 -0.15816540604E+02  0.21551526336E+01  0.17593968230E+02  0.47000000000E+01 0.  1.
         13    1    6    6    0    0  0.45185892595E+00  0.88610750463E+00 -0.35719029549E+01  0.37078098277E+01  0.00000000000E+00 0. -1.
        -14    1    6    6    0    0 -0.51634926391E+02  0.12374339221E+03  0.55243874898E+03  0.56847793635E+03  0.00000000000E+00 0.  1.
</event>
<event>
12    1  0.8747122E-002  0.1888005E+03  0.7818608E-02  0.1159766E+00
         21   -1    0    0  503  502  0.00000000000E+00  0.00000000000E+00  0.11193376196E+04  0.11193376196E+04  0.00000000000E+00 0. -1.
         21   -1    0    0  501  503 -0.00000000000E+00 -0.00000000000E+00 -0.31959671852E+02  0.31959671852E+02  0.00000000000E+00 0.  1.
          6    2    1    2  501    0 -0.73362435029E+02 -0.91850806892E+01  0.48883526583E+03  0.52368357471E+03  0.17267934655E+03 0.  0.
         24    2    3    3    0    0 -0.73756469303E+02  0.55445227074E+02  0.32648388899E+03  0.34887713459E+03  0.81297818570E+02 0.  0.
         -6    2    1    2    0  502  0.73362435029E+02  0.91850806892E+01  0.59854268191E+03  0.62761371674E+03  0.17372168195E+03 0.  0.
        -24    2    5    5    0    0  0.19525342597E+01 -0.25431433359E+02  0.46307956234E+03  0.47054677643E+03  0.79504827252E+02 0.  0.
          5    1    3    3  501    0  0.39403427458E+00 -0.64630307763E+02  0.16235137684E+03  0.17480644012E+03  0.47000000000E+01 0. -1.
        -13    1    4    4    0    0  0.69310084937E+01  0.20077252164E+02  0.17321494663E+02  0.27407464504E+02  0.00000000000E+00 0.  1.
         14    1    4    4    0    0 -0.80687477797E+02  0.35367974909E+02  0.30916239432E+03  0.32146967009E+03  0.00000000000E+00 0. -1.
         -5    1    5    5    0  502  0.71409900769E+02  0.34616514048E+02  0.13546311957E+03  0.15706694030E+03  0.47000000000E+01 0.  1.
         13    1    6    6    0    0  0.20052534312E+02  0.60379570389E+01  0.37068371710E+03  0.37127480278E+03  0.00000000000E+00 0. -1.
        -14    1    6    6    0    0 -0.18100000053E+02 -0.31469390398E+02  0.92395845246E+02  0.99271973652E+02  0.00000000000E+00 0.  1.
</event>
<event>
12    1  0.8747122E-002  0.1743353E+03  0.7818608E-02  0.1173785E+00
         21   -1    0    0  501  502  0.00000000000E+00  0.00000000000E+00  0.43140426555E+02  0.43140426555E+02  0.00000000000E+00 0. -1.
         21   -1    0    0  502  503 -0.00000000000E+00 -0.00000000000E+00 -0.98790812579E+03  0.98790812579E+03  0.00000000000E+00 0. -1.
         -6    2    1    2    0  503  0.13662649911E+02 -0.66867432758E+01 -0.75000249515E+03  0.76965561258E+03  0.17214714257E+03 0.  0.
        -24    2    3    3    0    0 -0.15592921048E+02 -0.46331624962E+02 -0.66306809130E+03  0.66961919096E+03  0.79629194049E+02 0.  0.
          6    2    1    2  501    0 -0.13662649911E+02  0.66867432758E+01 -0.19476520408E+03  0.26139293977E+03  0.17367038810E+03 0.  0.
         24    2    5    5    0    0 -0.39911820913E+02 -0.55410813265E+02 -0.91073966033E+02  0.13762263495E+03  0.77344752160E+02 0.  0.
          5    1    5    5  501    0  0.26249171002E+02  0.62097556541E+02 -0.10369123805E+03  0.12377030482E+03  0.47000000000E+01 0. -1.
        -13    1    6    6    0    0  0.15187428550E+02 -0.17931315282E+02  0.15138851228E+01  0.23547439391E+02  0.00000000000E+00 0.  1.
         14    1    6    6    0    0 -0.55099249463E+02 -0.37479497984E+02 -0.92587851155E+02  0.11407519556E+03  0.00000000000E+00 0. -1.
         -5    1    3    3    0  503  0.29255570958E+02  0.39644881686E+02 -0.86934403855E+02  0.10003642162E+03  0.47000000000E+01 0.  1.
         11    1    4    4    0    0 -0.43977224564E+02 -0.15161724090E+02 -0.24080078455E+03  0.24525271048E+03  0.00000000000E+00 0. -1.
        -12    1    4    4    0    0  0.28384303516E+02 -0.31169900872E+02 -0.42226730675E+03  0.42436648048E+03  0.00000000000E+00 0.  1.
</event>
<event>
12    1  0.8747122E-002  0.1780755E+03  0.7818608E-02  0.1169812E+00
         21   -1    0    0  501  502  0.00000000000E+00  0.00000000000E+00  0.17445859911E+03  0.17445859911E+03  0.00000000000E+00 0. -1.
         21   -1    0    0  502  503 -0.00000000000E+00 -0.00000000000E+00 -0.18154344150E+03  0.18154344150E+03  0.00000000000E+00 0. -1.
         -6    2    1    2    0  503 -0.41129516279E+01  0.45737526645E+02  0.40362444105E+01  0.17812125626E+03  0.17205247150E+03 0.  0.
        -24    2    3    3    0    0  0.63272515834E+02  0.35564661742E+02  0.15354910507E+02  0.10887899599E+03  0.79690689962E+02 0.  0.
          6    2    1    2  501    0  0.41129516279E+01 -0.45737526645E+02 -0.11121086809E+02  0.17788078435E+03  0.17149069116E+03 0.  0.
         24    2    5    5    0    0  0.69223791654E+02 -0.17200958167E+02  0.55208074122E+01  0.10471795312E+03  0.76469367065E+02 0.  0.
          5    1    5    5  501    0 -0.65110840026E+02 -0.28536568478E+02 -0.16641894221E+02  0.73162831223E+02  0.47000000000E+01 0. -1.
        -11    1    6    6    0    0 -0.16702371209E+02 -0.10426435090E+01  0.42944522015E+01  0.17277112872E+02  0.00000000000E+00 0.  1.
         12    1    6    6    0    0  0.85926162863E+02 -0.16158314658E+02  0.12263552106E+01  0.87440840252E+02  0.00000000000E+00 0. -1.
         -5    1    3    3    0  503 -0.67385467461E+02  0.10172864903E+02 -0.11318666096E+02  0.69242260272E+02  0.47000000000E+01 0.  1.
         13    1    4    4    0    0  0.39635306876E+02  0.57409120390E+02 -0.63627374276E+01  0.70051760025E+02  0.00000000000E+00 0. -1.
        -14    1    4    4    0    0  0.23637208958E+02 -0.21844458648E+02  0.21717647934E+02  0.38827235966E+02  0.00000000000E+00 0.  1.
</event>
<event>
12    1  0.8747122E-002  0.2010070E+03  0.7818608E-02  0.1149188E+00
         21   -1    0    0  501  502  0.00000000000E+00  0.00000000000E+00  0.62712052700E+03  0.62712052700E+03  0.00000000000E+00 0. -1.
         21   -1    0    0  502  503 -0.00000000000E+00 -0.00000000000E+00 -0.64697030175E+02  0.64697030175E+02  0.00000000000E+00 0. -1.
         -6    2    1    2    0  503  0.97105015486E+02 -0.32748779748E+02  0.24373948620E+03  0.31503735018E+03  0.17128259768E+03 0.  0.
        -24    2    3    3    0    0  0.13226983581E+03 -0.66393490097E+01  0.17964027970E+03  0.23726161338E+03  0.80517406019E+02 0.  0.
          6    2    1    2  501    0 -0.97105015486E+02  0.32748779748E+02  0.31868401063E+03  0.37678020700E+03  0.17292182958E+03 0.  0.
         24    2    5    5    0    0 -0.91256717940E+01  0.68407089095E+02  0.16238319847E+03  0.19384876130E+03  0.80288426248E+02 0.  0.
          5    1    5    5  501    0 -0.87979343692E+02 -0.35658309346E+02  0.15630081216E+03  0.18293144570E+03  0.47000000000E+01 0. -1.
        -11    1    6    6    0    0 -0.16676451735E+02  0.74144130752E+02  0.77880298794E+02  0.10881542679E+03  0.00000000000E+00 0.  1.
         12    1    6    6    0    0  0.75507799409E+01 -0.57370416570E+01  0.84502899677E+02  0.85033334513E+02  0.00000000000E+00 0. -1.
         -5    1    3    3    0  503 -0.35164820321E+02 -0.26109430739E+02  0.64099206497E+02  0.77775736803E+02  0.47000000000E+01 0.  1.
         13    1    4    4    0    0  0.94850564861E+02 -0.39799479865E+02  0.10160307171E+03  0.14458150792E+03  0.00000000000E+00 0. -1.
        -14    1    4    4    0    0  0.37419270945E+02  0.33160130856E+02  0.78037207984E+02  0.92680105451E+02  0.00000000000E+00 0.  1.
</event>
<event>
12    1  0.8747122E-002  0.2304482E+03  0.7818608E-02  0.1126592E+00
         21   -1    0    0  501  502  0.00000000000E+00  0.00000000000E+00  0.43425561834E+03  0.43425561834E+03  0.00000000000E+00 0. -1.
         21   -1    0    0  502  503 -0.00000000000E+00 -0.00000000000E+00 -0.20199046074E+03  0.20199046074E+03  0.00000000000E+00 0.  1.
         -6    2    1    2    0  503 -0.99334202238E+02 -0.11454328247E+03 -0.84927270142E+02  0.24417797500E+03  0.17153074060E+03 0.  0.
        -24    2    3    3    0    0 -0.99665816010E+02 -0.41685429691E+02 -0.40801532240E-01  0.13221289459E+03  0.76218750330E+02 0.  0.
          6    2    1    2  501    0  0.99334202238E+02  0.11454328247E+03  0.31719242774E+03  0.39206810407E+03  0.17354801849E+03 0.  0.
         24    2    5    5    0    0  0.71540839753E+02  0.12775870876E+03  0.15846025469E+03  0.23031177112E+03  0.80582133145E+02 0.  0.
          5    1    5    5  501    0  0.27793362485E+02 -0.13215426289E+02  0.15873217305E+03  0.16175633296E+03  0.47000000000E+01 0. -1.
        -13    1    6    6    0    0  0.50168788264E+02  0.33014287536E+02  0.10087341430E+03  0.11739802473E+03  0.00000000000E+00 0.  1.
         14    1    6    6    0    0  0.21372051489E+02  0.94744421220E+02  0.57586840390E+02  0.11291374639E+03  0.00000000000E+00 0. -1.
         -5    1    3    3    0  503  0.33161377190E+00 -0.72857852777E+02 -0.84886468610E+02  0.11196508041E+03  0.47000000000E+01 0.  1.
         11    1    4    4    0    0 -0.39859334032E+02 -0.32615849844E+02  0.35034082583E+02  0.62289221483E+02  0.00000000000E+00 0. -1.
        -12    1    4    4    0    0 -0.59806481979E+02 -0.90695798468E+01 -0.35074884115E+02  0.69923673108E+02  0.00000000000E+00 0.  1.
</event>
<event>
12    1  0.8747122E-002  0.1771880E+03  0.7818608E-02  0.1170683E+00
         21   -1    0    0  503  502  0.00000000000E+00  0.00000000000E+00  0.61849541124E+03  0.61849541124E+03  0.00000000000E+00 0.  1.
         21   -1    0    0  501  503 -0.00000000000E+00 -0.00000000000E+00 -0.86505094750E+02  0.86505094750E+02  0.00000000000E+00 0.  1.
          6    2    1    2  501    0  0.14065238380E+02  0.42573478321E+02  0.38694061753E+02  0.18084711704E+03  0.17087456610E+03 0.  0.
         24    2    3    3    0    0 -0.22659640201E+02  0.44771067898E+02 -0.30452422952E+02  0.10238137641E+03  0.83884970981E+02 0.  0.
         -6    2    1    2    0  502 -0.14065238380E+02 -0.42573478321E+02  0.49329625473E+03  0.52415338894E+03  0.17142125953E+03 0.  0.
        -24    2    5    5    0    0 -0.67082810821E+02 -0.50680588421E+02  0.25678623172E+03  0.28159273837E+03  0.79288561280E+02 0.  0.
          5    1    3    3  501    0  0.36724878581E+02 -0.21975895766E+01  0.69146484705E+02  0.78465740637E+02  0.47000000000E+01 0. -1.
        -13    1    4    4    0    0 -0.28111347062E+02 -0.12271397397E+02  0.99739980468E+01  0.32253924796E+02  0.00000000000E+00 0.  1.
         14    1    4    4    0    0  0.54517068607E+01  0.57042465295E+02 -0.40426420999E+02  0.70127451610E+02  0.00000000000E+00 0. -1.
         -5    1    5    5    0  502  0.53017572441E+02  0.81071100997E+01  0.23651002301E+03  0.24256065058E+03  0.47000000000E+01 0.  1.
         11    1    6    6    0    0 -0.76179574275E+02 -0.17179264748E+02  0.20377733156E+03  0.21822844803E+03  0.00000000000E+00 0. -1.
        -12    1    6    6    0    0  0.90967634541E+01 -0.33501323673E+02  0.53008900162E+02  0.63364290334E+02  0.00000000000E+00 0.  1.
</event>
<event>
12    1  0.8747122E-002  0.1866981E+03  0.7818608E-02  0.1162058E+00
         21   -1    0    0  501  502  0.00000000000E+00  0.00000000000E+00  0.40127696940E+03  0.40127696940E+03  0.00000000000E+00 0. -1.
         21   -1    0    0  502  503 -0.00000000000E+00 -0.00000000000E+00 -0.86079040897E+02  0.86079040897E+02  0.00000000000E+00 0. -1.
         -6    2    1    2    0  503  0.59951282135E+02 -0.12415861517E+02  0.17488318698E+03  0.25581303881E+03  0.17637423818E+03 0.  0.
        -24    2    3    3    0    0  0.98957056651E+01 -0.54002650123E+02  0.34496894734E+02  0.10100534271E+03  0.77445673211E+02 0.  0.
          6    2    1    2  501    0 -0.59951282135E+02  0.12415861517E+02  0.14031474153E+03  0.23154297149E+03  0.17371128665E+03 0.  0.
         24    2    5    5    0    0  0.30976031770E+02  0.25952342198E+01  0.36761243392E+02  0.93305356813E+02  0.79926533825E+02 0.  0.
          5    1    5    5  501    0 -0.90927313906E+02  0.98206272975E+01  0.10355349814E+03  0.13823761467E+03  0.47000000000E+01 0. -1.
        -13    1    6    6    0    0  0.10637077595E+02  0.36790621532E+02 -0.11967878290E+01  0.38316178745E+02  0.00000000000E+00 0.  1.
         14    1    6    6    0    0  0.20338954175E+02 -0.34195387312E+02  0.37958031221E+02  0.54989178068E+02  0.00000000000E+00 0. -1.
         -5    1    3    3    0  503  0.50055576470E+02  0.41586788605E+02  0.14038629224E+03  0.15480769610E+03  0.47000000000E+01 0.  1.
         11    1    4    4    0    0  0.39303595364E+02 -0.45597576637E+02  0.36421609746E+02  0.70359400652E+02  0.00000000000E+00 0. -1.
        -12    1    4    4    0    0 -0.29407889699E+02 -0.84050734855E+01 -0.19247150117E+01  0.30645942059E+02  0.00000000000E+00 0.  1.
</event>
<event>
12    1  0.8747122E-002  0.1762865E+03  0.7818608E-02  0.1171665E+00
         21   -1    0    0  503  502  0.00000000000E+00  0.00000000000E+00  0.49600343574E+02  0.49600343574E+02  0.00000000000E+00 0. -1.
         21   -1    0    0  501  503 -0.00000000000E+00 -0.00000000000E+00 -0.64535558032E+03  0.64535558032E+03  0.00000000000E+00 0. -1.
          6    2    1    2  501    0  0.37249821625E+02 -0.37877233398E+01 -0.23454744424E+03  0.29341000773E+03  0.17226442747E+03 0.  0.
         24    2    3    3    0    0  0.41621983702E+02 -0.55288646141E+02 -0.83315978984E+02  0.13352096202E+03  0.78083743675E+02 0.  0.
         -6    2    1    2    0  502 -0.37249821625E+02  0.37877233398E+01 -0.36120779250E+03  0.40154591617E+03  0.17136556646E+03 0.  0.
        -24    2    5    5    0    0 -0.74689325429E+02 -0.39853747294E+02 -0.21763930983E+03  0.24681940383E+03  0.79913280606E+02 0.  0.
          5    1    3    3  501    0 -0.43721620776E+01  0.51500922801E+02 -0.15123146526E+03  0.15988904570E+03  0.47000000000E+01 0. -1.
        -11    1    4    4    0    0  0.24311437565E+02  0.15681268919E+02 -0.37226100524E+02  0.47145845540E+02  0.00000000000E+00 0.  1.
         12    1    4    4    0    0  0.17310546137E+02 -0.70969915060E+02 -0.46089878460E+02  0.86375116484E+02  0.00000000000E+00 0. -1.
         -5    1    5    5    0  502  0.37439503804E+02  0.43641470634E+02 -0.14356848267E+03  0.15472651233E+03  0.47000000000E+01 0.  1.
         11    1    6    6    0    0 -0.21461223388E+02 -0.16940489952E+02 -0.16889716244E+03  0.17109592569E+03  0.00000000000E+00 0. -1.
        -12    1    6    6    0    0 -0.53228102040E+02 -0.22913257342E+02 -0.48742147395E+02  0.75723478139E+02  0.00000000000E+00 0.  1.
</event>
<event>
12    1  0.8747122E-002  0.2254090E+03  0.7818608E-02  0.1130206E+00
         21   -1    0    0  503  502  0.00000000000E+00  0.00000000000E+00  0.46403278593E+02  0.46403278593E+02  0.00000000000E+00 0. -1.
         21   -1    0    0  501  503 -0.00000000000E+00 -0.00000000000E+00 -0.10967889502E+04  0.10967889502E+04  0.00000000000E+00 0. -1.
          6    2    1    2  501    0  0.79409511419E+02 -0.11990329648E+03 -0.47341315582E+03  0.52433695977E+03  0.17357004428E+03 0.  0.
         24    2    3    3    0    0  0.70441051106E+02 -0.14988958007E+03 -0.44578001134E+03  0.48232159166E+03  0.80532424394E+02 0.  0.
         -6    2    1    2    0  502 -0.79409511419E+02  0.11990329648E+03 -0.57697251575E+03  0.61885526898E+03  0.17146979035E+03 0.  0.
        -24    2    5    5    0    0  0.22043343029E+02  0.35894409968E+02 -0.19948961996E+03  0.21902330265E+03  0.80004881044E+02 0.  0.
          5    1    3    3  501    0  0.89684603135E+01  0.29986283587E+02 -0.27633144476E+02  0.42015368110E+02  0.47000000000E+01 0. -1.
        -13    1    4    4    0    0  0.75494330871E+02 -0.93590041716E+02 -0.36036423623E+03  0.37989587081E+03  0.00000000000E+00 0.  1.
         14    1    4    4    0    0 -0.50532797653E+01 -0.56299538353E+02 -0.85415775110E+02  0.10242572086E+03  0.00000000000E+00 0. -1.
         -5    1    5    5    0  502 -0.10145285445E+03  0.84008886513E+02 -0.37748289579E+03  0.39983196633E+03  0.47000000000E+01 0.  1.
         11    1    6    6    0    0 -0.24166699243E+02  0.17650752111E+02 -0.29888357612E+02  0.42295299067E+02  0.00000000000E+00 0. -1.
        -12    1    6    6    0    0  0.46210042272E+02  0.18243657858E+02 -0.16960126235E+03  0.17672800358E+03  0.00000000000E+00 0.  1.
</event>
<event>
12    1  0.8747122E-002  0.1842995E+03  0.7818608E-02  0.1164057E+00
         21   -1    0    0  501  502  0.00000000000E+00  0.00000000000E+00  0.14865890054E+03  0.14865890054E+03  0.00000000000E+00 0.  1.
         21   -1    0    0  502  503 -0.00000000000E+00 -0.00000000000E+00 -0.28413338405E+03  0.28413338405E+03  0.00000000000E+00 0.  1.
         -6    2    1    2    0  503 -0.37271078082E+02 -0.50511356301E+02 -0.16529856378E+03  0.24756801598E+03  0.17327947650E+03 0.  0.
        -24    2    3    3    0    0  0.30291112457E+02 -0.21331510402E+02 -0.29230002203E+02  0.92800912095E+02  0.79906391653E+02 0.  0.
          6    2    1    2  501    0  0.37271078082E+02  0.50511356301E+02  0.29824080268E+02  0.18522426861E+03  0.17169165251E+03 0.  0.
         24    2    5    5    0    0  0.24689282127E+02  0.90995744294E+02  0.50884815850E+02  0.13765398541E+03  0.86426668822E+02 0.  0.
          5    1    5    5  501    0  0.12581795954E+02 -0.40484387993E+02 -0.21060735582E+02  0.47570283202E+02  0.47000000000E+01 0. -1.
        -13    1    6    6    0    0 -0.59592142477E+01 -0.12498661701E+02  0.21870433687E+02  0.25885220656E+02  0.00000000000E+00 0.  1.
         14    1    6    6    0    0  0.30648496375E+02  0.10349440600E+03  0.29014382163E+02  0.11176876475E+03  0.00000000000E+00 0. -1.
         -5    1    3    3    0  503 -0.67562190539E+02 -0.29179845899E+02 -0.13606856157E+03  0.15476710389E+03  0.47000000000E+01 0.  1.
         11    1    4    4    0    0  0.28192709776E+02  0.27386463198E+02 -0.13728254488E+02  0.41633066453E+02  0.00000000000E+00 0. -1.
        -12    1    4    4    0    0  0.20984026813E+01 -0.48717973600E+02 -0.15501747715E+02  0.51167845642E+02  0.00000000000E+00 0.  1.
</event>
<event>
12    1  0.8747122E-002  0.1836964E+03  0.7818608E-02  0.1164738E+00
         21   -1    0    0  503  502  0.00000000000E+00  0.00000000000E+00  0.24415275769E+03  0.24415275769E+03  0.00000000000E+00 0. -1.
         21   -1    0    0  501  503 -0.00000000000E+00 -0.00000000000E+00 -0.18878668269E+03  0.18878668269E+03  0.00000000000E+00 0. -1.
          6    2    1    2  501    0 -0.46343584835E+02  0.41573959100E+02 -0.85869561954E+02  0.20277557527E+03  0.17282427585E+03 0.  0.
         24    2    3    3    0    0 -0.23454184962E+02 -0.43759727922E+02 -0.58729219369E+02  0.11023125635E+03  0.78973388489E+02 0.  0.
         -6    2    1    2    0  502  0.46343584835E+02 -0.41573959100E+02  0.14123563695E+03  0.23016386511E+03  0.17073891685E+03 0.  0.
        -24    2    5    5    0    0 -0.19865674870E+02 -0.68986881124E+02  0.98762963426E+02  0.14673034450E+03  0.81374665887E+02 0.  0.
          5    1    3    3  501    0 -0.22889399873E+02  0.85333687022E+02 -0.27140342585E+02  0.92544318913E+02  0.47000000000E+01 0. -1.
        -11    1    4    4    0    0  0.16981538351E+02 -0.44158802273E+02 -0.50050905124E+02  0.68872821684E+02  0.00000000000E+00 0.  1.
         12    1    4    4    0    0 -0.40435723313E+02  0.39907435120E+00 -0.86783142449E+01  0.41358434669E+02  0.00000000000E+00 0. -1.
         -5    1    5    5    0  502  0.66209259705E+02  0.27412922024E+02  0.42472673528E+02  0.83433520609E+02  0.47000000000E+01 0.  1.
         13    1    6    6    0    0 -0.72978299464E+01 -0.81451033127E+02  0.52454978909E+02  0.97154793663E+02  0.00000000000E+00 0. -1.
        -14    1    6    6    0    0 -0.12567844924E+02  0.12464152002E+02  0.46307984517E+02  0.49575550841E+02  0.00000000000E+00 0.  1.
</event>
<event>
12    1  0.8747122E-002  0.2425778E+03  0.7818608E-02  0.1119335E+00
         21   -1    0    0  501  502  0.00000000000E+00  0.00000000000E+00  0.33015909955E+03  0.33015909955E+03  0.00000000000E+00 0.  1.
         21   -1    0    0  502  503 -0.00000000000E+00 -0.00000000000E+00 -0.28474683715E+03  0.28474683715E+03  0.00000000000E+00 0.  1.
         -6    2    1    2    0  503  0.14360653268E+03  0.65493602877E+02 -0.16985393610E+03  0.29613234649E+03  0.18420575122E+03 0.  0.
        -24    2    3    3    0    0  0.13412621228E+03  0.10771488619E+03 -0.16691300612E+03  0.25250606647E+03  0.79416776989E+02 0.  0.
          6    2    1    2  501    0 -0.14360653268E+03 -0.65493602877E+02  0.21526619850E+03  0.31877359021E+03  0.17425503537E+03 0.  0.
         24    2    5    5    0    0 -0.17033807159E+03 -0.46847429505E+02  0.14546157811E+03  0.24159179196E+03  0.77445354601E+02 0.  0.
          5    1    5    5  501    0  0.26731538912E+02 -0.18646173372E+02  0.69804620386E+02  0.77181798251E+02  0.47000000000E+01 0. -1.
        -11    1    6    6    0    0 -0.15274793144E+02  0.16177282913E+02  0.43632733286E+01  0.22672934132E+02  0.00000000000E+00 0.  1.
         12    1    6    6    0    0 -0.15506327845E+03 -0.63024712418E+02  0.14109830478E+03  0.21891885783E+03  0.00000000000E+00 0. -1.
         -5    1    3    3    0  503  0.94803203978E+01 -0.42221283309E+02 -0.29409299821E+01  0.43626280019E+02  0.47000000000E+01 0.  1.
         13    1    4    4    0    0  0.36645672301E+02  0.32091840785E+02 -0.50321603322E+01  0.48970544013E+02  0.00000000000E+00 0. -1.
        -14    1    4    4    0    0  0.97480539981E+02  0.75623045401E+02 -0.16188084579E+03  0.20353552246E+03  0.00000000000E+00 0.  1.
</event>
<event>
12    1  0.8747122E-002  0.1927681E+03  0.7818608E-02  0.1156264E+00
         21   -1    0    0  503  502  0.00000000000E+00  0.00000000000E+00  0.74510371012E+03  0.74510371012E+03  0.00000000000E+00 0. -1.
         21   -1    0    0  501  503 -0.00000000000E+00 -0.00000000000E+00 -0.98720235205E+02  0.98720235205E+02  0.00000000000E+00 0. -1.
          6    2    1    2  501    0  0.84869510422E+02  0.14606519716E+02  0.25956800146E+02  0.19450783684E+03  0.17246263045E+03 0.  0.
         24    2    3    3    0    0  0.85362528454E+02  0.22239285461E+02 -0.42679509039E+02  0.12528692152E+03  0.78063596696E+02 0.  0.
         -6    2    1    2    0  502 -0.84869510422E+02 -0.14606519716E+02  0.62042667477E+03  0.64931610849E+03  0.17107298371E+03 0.  0.
        -24    2    5    5    0    0 -0.17068722640E+02  0.54195159395E+02  0.27276195567E+03  0.28845122410E+03  0.74676419523E+02 0.  0.
          5    1    3    3  501    0 -0.49301803184E+00 -0.76327657454E+01  0.68636309184E+02  0.69220915323E+02  0.47000000000E+01 0. -1.
        -13    1    4    4    0    0  0.16375689469E+02 -0.18753181855E+02  0.12540196166E+02  0.27876541305E+02  0.00000000000E+00 0.  1.
         14    1    4    4    0    0  0.68986838985E+02  0.40992467316E+02 -0.55219705204E+02  0.97410380210E+02  0.00000000000E+00 0. -1.
         -5    1    5    5    0  502 -0.67800787782E+02 -0.68801679111E+02  0.34766471910E+03  0.36086488438E+03  0.47000000000E+01 0.  1.
         13    1    6    6    0    0 -0.30848593386E+02  0.53811402174E+02  0.26592628921E+03  0.27306426718E+03  0.00000000000E+00 0. -1.
        -14    1    6    6    0    0  0.13779870746E+02  0.38375722066E+00  0.68356664537E+01  0.15386956919E+02  0.00000000000E+00 0.  1.
</event>
<event>
12    1  0.8747122E-002  0.1745369E+03  0.7818608E-02  0.1173750E+00
         21   -1    0    0  503  502  0.00000000000E+00  0.00000000000E+00  0.39224760749E+03  0.39224760749E+03  0.00000000000E+00 0.  1.
         21   -1    0    0  501  503 -0.00000000000E+00 -0.00000000000E+00 -0.89433322709E+02  0.89433322709E+02  0.00000000000E+00 0.  1.
          6    2    1    2  501    0 -0.89946780549E+00 -0.20787820403E+02  0.59706487530E+02  0.18240761810E+03  0.17109860306E+03 0.  0.
         24    2    3    3    0    0 -0.66614495505E+02 -0.79079693053E+00  0.36379779959E+02  0.10971256257E+03  0.79216422688E+02 0.  0.
         -6    2    1    2    0  502  0.89946780549E+00  0.20787820403E+02  0.24310779725E+03  0.29927331210E+03  0.17329215715E+03 0.  0.
        -24    2    5    5    0    0 -0.49733822948E+02 -0.12450321013E+02  0.75887411700E+02  0.12135970520E+03  0.79629235537E+02 0.  0.
          5    1    3    3  501    0  0.65715027700E+02 -0.19997023473E+02  0.23326707571E+02  0.72695055537E+02  0.47000000000E+01 0. -1.
        -11    1    4    4    0    0 -0.43309283176E+02 -0.38835232536E+02  0.14155908441E+02  0.59868681622E+02  0.00000000000E+00 0.  1.
         12    1    4    4    0    0 -0.23305212330E+02  0.38044435605E+02  0.22223871518E+02  0.49843880943E+02  0.00000000000E+00 0. -1.
         -5    1    5    5    0  502  0.50633290754E+02  0.33238141416E+02  0.16722038555E+03  0.17791360690E+03  0.47000000000E+01 0.  1.
         11    1    6    6    0    0 -0.36099461249E+02 -0.24958689498E+02  0.88624982185E+02  0.98896383914E+02  0.00000000000E+00 0. -1.
        -12    1    6    6    0    0 -0.13634361699E+02  0.12508368486E+02 -0.12737570485E+02  0.22463321281E+02  0.00000000000E+00 0.  1.
</event>
<event>
12    1  0.8747122E-002  0.2167176E+03  0.7818608E-02  0.1136863E+00
         21   -1    0    0  503  502  0.00000000000E+00  0.00000000000E+00  0.14263252297E+03  0.14263252297E+03  0.00000000000E+00 0.  1.
         21   -1    0    0  501  503 -0.00000000000E+00 -0.00000000000E+00 -0.39162325755E+03  0.39162325755E+03  0.00000000000E+00 0.  1.
          6    2    1    2  501    0  0.12805590770E+03  0.31350362416E+02 -0.15168775586E+02  0.21724778725E+03  0.17200392028E+03 0.  0.
         24    2    3    3    0    0  0.93211275393E+02 -0.57810319550E+01 -0.70871534495E+02  0.14163180879E+03  0.79467179817E+02 0.  0.
         -6    2    1    2    0  502 -0.12805590770E+03 -0.31350362416E+02 -0.23382195899E+03  0.31700799327E+03  0.16864222060E+03 0.  0.
        -24    2    5    5    0    0 -0.11870694392E+02 -0.32503251204E+02 -0.47167833482E+02  0.97093952076E+02  0.77492298264E+02 0.  0.
          5    1    3    3  501    0  0.34844632304E+02  0.37131394371E+02  0.55702758909E+02  0.75615978460E+02  0.47000000000E+01 0. -1.
        -11    1    4    4    0    0 -0.17017259590E+01 -0.15375917772E+02  0.83948186340E+01  0.17600786871E+02  0.00000000000E+00 0.  1.
         12    1    4    4    0    0  0.94913001352E+02  0.95948858173E+01 -0.79266353129E+02  0.12403102192E+03  0.00000000000E+00 0. -1.
         -5    1    5    5    0  502 -0.11618521330E+03  0.11528887881E+01 -0.18665412551E+03  0.21991404119E+03  0.47000000000E+01 0.  1.
         11    1    6    6    0    0 -0.17447987165E+01  0.21946937721E+02 -0.33435688275E+02  0.40033206820E+02  0.00000000000E+00 0. -1.
        -12    1    6    6    0    0 -0.10125895676E+02 -0.54450188925E+02 -0.13732145207E+02  0.57060745256E+02  0.00000000000E+00 0.  1.
</event>
<event>
12    1  0.8747122E-002  0.1752261E+03  0.7818608E-02  0.1173426E+00
         21   -1    0    0  501  502  0.00000000000E+00  0.00000000000E+00  0.16866813419E+02  0.16866813419E+02  0.00000000000E+00 0. -1.
         21   -1    0    0  502  503 -0.00000000000E+00 -0.00000000000E+00 -0.19275472815E+04  0.19275472815E+04  0.00000000000E+00 0.  1.
         -6    2    1    2    0  503 -0.12152110002E+01  0.38734059488E+02 -0.12124491045E+04  0.12245313080E+04  0.16715947205E+03 0.  0.
        -24    2    3    3    0    0  0.15111231966E+02 -0.86387231401E+01 -0.30885200052E+03  0.31953376676E+03  0.80058060224E+02 0.  0.
          6    2    1    2  501    0  0.12152110002E+01 -0.38734059488E+02 -0.69823136362E+03  0.71988278699E+03  0.17088705555E+03 0.  0.
         24    2    5    5    0    0  0.55861547887E+02  0.13802938059E+02 -0.41846575154E+03  0.42999100382E+03  0.80421666990E+02 0.  0.
          5    1    5    5  501    0 -0.54646336887E+02 -0.52536997547E+02 -0.27976561208E+03  0.28989178317E+03  0.47000000000E+01 0. -1.
        -11    1    6    6    0    0  0.12662709068E+02 -0.17723190004E+02 -0.29028840837E+03  0.29110447557E+03  0.00000000000E+00 0.  1.
         12    1    6    6    0    0  0.43198838819E+02  0.31526128062E+02 -0.12817734317E+03  0.13888652825E+03  0.00000000000E+00 0. -1.
         -5    1    3    3    0  503 -0.16326442966E+02  0.47372782628E+02 -0.90359710398E+03  0.90499754121E+03  0.47000000000E+01 0.  1.
         13    1    4    4    0    0 -0.15530798077E+02  0.29236585663E+02 -0.11711648449E+03  0.12170560616E+03  0.00000000000E+00 0. -1.
        -14    1    4    4    0    0  0.30642030043E+02 -0.37875308803E+02 -0.19173551603E+03  0.19782816060E+03  0.00000000000E+00 0.  1.
</event>
<event>
12    1  0.8747122E-002  0.1877146E+03  0.7818608E-02  0.1161178E+00
         21   -1    0    0  501  502  0.00000000000E+00  0.00000000000E+00  0.60496242269E+02  0.60496242269E+02  0.00000000000E+00 0.  1.
         21   -1    0    0  502  503 -0.00000000000E+00 -0.00000000000E+00 -0.16203459776E+04  0.16203459776E+04  0.00000000000E+00 0.  1.
         -6    2    1    2    0  503  0.56123135341E+02  0.41287365391E+02 -0.14532504862E+04  0.14649715140E+04  0.17131873360E+03 0.  0.
        -24    2    3    3    0    0  0.35264624697E+02  0.25672037638E+02 -0.36083549354E+03  0.37223571702E+03  0.80340079384E+02 0.  0.
          6    2    1    2  501    0 -0.56123135341E+02 -0.41287365391E+02 -0.10659924918E+03  0.21587070587E+03  0.17430521755E+03 0.  0.
         24    2    5    5    0    0 -0.85678881187E+01 -0.89269966605E+02 -0.65050649884E+02  0.13642130272E+03  0.79603072427E+02 0.  0.
          5    1    5    5  501    0 -0.47555247222E+02  0.47982601213E+02 -0.41548599296E+02  0.79449403151E+02  0.47000000000E+01 0. -1.
        -11    1    6    6    0    0  0.23856282429E+02 -0.28803150340E+02 -0.55820849651E+02  0.67191598706E+02  0.00000000000E+00 0.  1.
         12    1    6    6    0    0 -0.32424170548E+02 -0.60466816265E+02 -0.92298002329E+01  0.69229704010E+02  0.00000000000E+00 0. -1.
         -5    1    3    3    0  503  0.20858510643E+02  0.15615327754E+02 -0.10924149926E+04  0.10927357970E+04  0.47000000000E+01 0.  1.
         11    1    4    4    0    0  0.58172816942E+02  0.22460468959E+02 -0.19326497418E+03  0.20307609298E+03  0.00000000000E+00 0. -1.
        -12    1    4    4    0    0 -0.22908192245E+02  0.32115686788E+01 -0.16757051936E+03  0.16915962404E+03  0.00000000000E+00 0.  1.
</event>
<event>
12    1  0.8747122E-002  0.1957395E+03  0.7818608E-02  0.1153776E+00
         21   -1    0    0  501  502  0.00000000000E+00  0.00000000000E+00  0.25642679308E+03  0.25642679308E+03  0.00000000000E+00 0. -1.
         21   -1    0    0  502  503 -0.00000000000E+00 -0.00000000000E+00 -0.37512430380E+03  0.37512430380E+03  0.00000000000E+00 0. -1.
         -6    2    1    2    0  503 -0.73054746520E+02  0.53405068626E+02 -0.30492510822E+03  0.36137585789E+03  0.17153452043E+03 0.  0.
        -24    2    3    3    0    0 -0.76284279229E+00  0.66187028380E+02 -0.11312781382E+03  0.15595485122E+03  0.84514547305E+02 0.  0.
          6    2    1    2  501    0  0.73054746520E+02 -0.53405068626E+02  0.18622759750E+03  0.27017523898E+03  0.17356510116E+03 0.  0.
         24    2    5    5    0    0  0.70128779672E+02  0.25898469866E+02  0.73429874945E+02  0.13217875818E+03  0.80563646264E+02 0.  0.
          5    1    5    5  501    0  0.29259668481E+01 -0.79303538492E+02  0.11279772256E+03  0.13799648080E+03  0.47000000000E+01 0. -1.
        -11    1    6    6    0    0  0.61110548779E+01  0.29120094110E+02  0.59586227198E+02  0.66602127176E+02  0.00000000000E+00 0.  1.
         12    1    6    6    0    0  0.64017724794E+02 -0.32216242441E+01  0.13843647747E+02  0.65576631001E+02  0.00000000000E+00 0. -1.
         -5    1    3    3    0  503 -0.72291903727E+02 -0.12781959754E+02 -0.19179729441E+03  0.20542100667E+03  0.47000000000E+01 0.  1.
         13    1    4    4    0    0 -0.18716882704E+02  0.53098986099E+02 -0.12012216401E+03  0.13266181934E+03  0.00000000000E+00 0. -1.
        -14    1    4    4    0    0  0.17954039911E+02  0.13088042281E+02  0.69943501934E+01  0.23293031888E+02  0.00000000000E+00 0.  1.
</event>
<event>
12    1  0.8747122E-002  0.1879867E+03  0.7818608E-02  0.1161463E+00
         21   -1    0    0  501  502  0.00000000000E+00  0.00000000000E+00  0.33948318647E+03  0.33948318647E+03  0.00000000000E+00 0. -1.
         21   -1    0    0  502  503 -0.00000000000E+00 -0.00000000000E+00 -0.11987776178E+03  0.11987776178E+03  0.00000000000E+00 0. -1.
         -6    2    1    2    0  503 -0.74507785706E+02  0.43188766958E+01  0.20144056293E+03  0.27553097010E+03  0.17253681422E+03 0.  0.
        -24    2    3    3    0    0  0.11087857311E+02 -0.21285050646E+02  0.15129273983E+03  0.17296845570E+03  0.80328074666E+02 0.  0.
          6    2    1    2  501    0  0.74507785706E+02 -0.43188766958E+01  0.18164861756E+02  0.18382997815E+03  0.16701328042E+03 0.  0.
         24    2    5    5    0    0  0.70933134639E+02 -0.10458655745E+02 -0.47792240797E+02  0.11732505808E+03  0.79625234080E+02 0.  0.
          5    1    5    5  501    0  0.35746510667E+01  0.61397790491E+01  0.65957102553E+02  0.66504920075E+02  0.47000000000E+01 0. -1.
        -13    1    6    6    0    0  0.46324206799E+02  0.18492360654E+02  0.72898168787E+01  0.50408739006E+02  0.00000000000E+00 0.  1.
         14    1    6    6    0    0  0.24608927840E+02 -0.28951016399E+02 -0.55082057675E+02  0.66916319069E+02  0.00000000000E+00 0. -1.
         -5    1    3    3    0  503 -0.85595643016E+02  0.25603927342E+02  0.50147823105E+02  0.10256251440E+03  0.47000000000E+01 0.  1.
         13    1    4    4    0    0  0.33821191509E+02 -0.88590843797E+01  0.22456158506E+02  0.41552802866E+02  0.00000000000E+00 0. -1.
        -14    1    4    4    0    0 -0.22733334198E+02 -0.12425966267E+02  0.12883658132E+03  0.13141565283E+03  0.00000000000E+00 0.  1.
</event>
<event>
12    1  0.8747122E-002  0.2269590E+03  0.7818608E-02  0.1129259E+00
         21   -1    0    0  503  502  0.00000000000E+00  0.00000000000E+00  0.73246943471E+03  0.73246943471E+03  0.00000000000E+00 0. -1.
         21   -1    0    0  501  503 -0.00000000000E+00 -0.00000000000E+00 -0.18737839807E+03  0.18737839807E+03  0.00000000000E+00 0. -1.
          6    2    1    2  501    0  0.34564747237E+02 -0.14333697079E+03 -0.92760650884E+02  0.24282111799E+03  0.16916662805E+03 0.  0.
         24    2    3    3    0    0  0.54097958654E+02 -0.10803532496E+03 -0.12477051688E+02  0.15284723930E+03  0.92781362210E+02 0.  0.
         -6    2    1    2    0  502 -0.34564747237E+02  0.14333697079E+03  0.63785168752E+03  0.67702671479E+03  0.17254039620E+03 0.  0.
        -24    2    5    5    0    0  0.15173026420E+02  0.15474529953E+03  0.51575669815E+03  0.54461345064E+03  0.80140566989E+02 0.  0.
          5    1    3    3  501    0 -0.19533211417E+02 -0.35301645823E+02 -0.80283599197E+02  0.89973878687E+02  0.47000000000E+01 0. -1.
        -13    1    4    4    0    0 -0.38132645773E+00  0.15698502261E+02  0.51057489513E+01  0.16512330406E+02  0.00000000000E+00 0.  1.
         14    1    4    4    0    0  0.54479285112E+02 -0.12373382722E+03 -0.17582800639E+02  0.13633490890E+03  0.00000000000E+00 0. -1.
         -5    1    5    5    0  502 -0.49737773657E+02 -0.11408328741E+02  0.12209498937E+03  0.13241326415E+03  0.47000000000E+01 0.  1.
         13    1    6    6    0    0  0.14375910645E+02  0.86854429003E+02  0.16176273220E+03  0.18416715281E+03  0.00000000000E+00 0. -1.
        -14    1    6    6    0    0  0.79711577413E+00  0.67890870523E+02  0.35399396595E+03  0.36044629783E+03  0.00000000000E+00 0.  1.
</event>
<event>
12    1  0.8747122E-002  0.2614014E+03  0.7818608E-02  0.1106505E+00
         21   -1    0    0  503  502  0.00000000000E+00  0.00000000000E+00  0.58101987943E+03  0.58101987943E+03  0.00000000000E+00 0.  1.
         21   -1    0    0  501  503 -0.00000000000E+00 -0.00000000000E+00 -0.11975796213E+03  0.11975796213E+03  0.00000000000E+00 0.  1.
          6    2    1    2  501    0  0.18870923813E+03  0.55105317179E+02  0.17804115805E+03  0.31627418820E+03  0.17228736352E+03 0.  0.
         24    2    3    3    0    0  0.51527878002E+02  0.76214267625E+02  0.62662057677E+02  0.13572297619E+03  0.77656010673E+02 0.  0.
         -6    2    1    2    0  502 -0.18870923813E+03 -0.55105317179E+02  0.28322075925E+03  0.38450365335E+03  0.17023891575E+03 0.  0.
        -24    2    5    5    0    0 -0.19065189010E+03 -0.54634834537E+02  0.29913382771E+03  0.36779105336E+03  0.80349883042E+02 0.  0.
          5    1    3    3  501    0  0.13718136013E+03 -0.21108950446E+02  0.11537910037E+03  0.18055121201E+03  0.47000000000E+01 0. -1.
        -13    1    4    4    0    0  0.68123237457E+02  0.42740987481E+02  0.29171643121E+02  0.85548537421E+02  0.00000000000E+00 0.  1.
         14    1    4    4    0    0 -0.16595359455E+02  0.33473280144E+02  0.33490414556E+02  0.50174438773E+02  0.00000000000E+00 0. -1.
         -5    1    5    5    0  502  0.19426519694E+01 -0.47048264175E+00 -0.15913068464E+02  0.16712599993E+02  0.47000000000E+01 0.  1.
         13    1    6    6    0    0 -0.11631808738E+02 -0.22457140442E+02  0.74943858883E+02  0.79096170044E+02  0.00000000000E+00 0. -1.
        -14    1    6    6    0    0 -0.17902008136E+03 -0.32177694095E+02  0.22418996883E+03  0.28869488331E+03  0.00000000000E+00 0.  1.
</event>
<event>
12    1  0.8747122E-002  0.2238667E+03  0.7818608E-02  0.1133399E+00
         21   -1    0    0  503  502  0.00000000000E+00  0.00000000000E+00  0.35263427424E+03  0.35263427424E+03  0.00000000000E+00 0.  1.
         21   -1    0    0  501  503 -0.00000000000E+00 -0.00000000000E+00 -0.17383054579E+03  0.17383054579E+03  0.00000000000E+00 0.  1.
          6    2    1    2  501    0 -0.98707276881E+02 -0.81842538578E+02 -0.38182737140E+02  0.21469656646E+03  0.16791475994E+03 0.  0.
         24    2    3    3    0    0 -0.12143632284E+03 -0.73246279123E+02 -0.67780836470E+02  0.17611363383E+03  0.79435334192E+02 0.  0.
         -6    2    1    2    0  502  0.98707276881E+02  0.81842538578E+02  0.21698646559E+03  0.31176825357E+03  0.18350746593E+03 0.  0.
        -24    2    5    5    0    0 -0.24665153306E+02  0.20005836656E+02  0.87313785844E+02  0.12234378813E+03  0.79597123107E+02 0.  0.
          5    1    3    3  501    0  0.22729045955E+02 -0.85962594556E+01  0.29598099330E+02  0.38582932634E+02  0.47000000000E+01 0. -1.
        -11    1    4    4    0    0 -0.99569335213E+02 -0.87209278357E+02 -0.70605628016E+02  0.15001555071E+03  0.00000000000E+00 0.  1.
         12    1    4    4    0    0 -0.21866987623E+02  0.13962999234E+02  0.28247915453E+01  0.26098083121E+02  0.00000000000E+00 0. -1.
         -5    1    5    5    0  502  0.12337243019E+03  0.61836701923E+02  0.12967267974E+03  0.18942446544E+03  0.47000000000E+01 0.  1.
         13    1    6    6    0    0  0.67343666036E+01 -0.22942442861E+02  0.51491006773E+01  0.24458548930E+02  0.00000000000E+00 0. -1.
        -14    1    6    6    0    0 -0.31399519910E+02  0.42948279517E+02  0.82164685167E+02  0.97885239197E+02  0.00000000000E+00 0.  1.
</event>
<event>
12    1  0.8747122E-002  0.1849581E+03  0.7818608E-02  0.1165901E+00
         21   -1    0    0  501  502  0.00000000000E+00  0.00000000000E+00  0.34234613642E+02  0.34234613642E+02  0.00000000000E+00 0. -1.
         21   -1    0    0  502  503 -0.00000000000E+00 -0.00000000000E+00 -0.10586547261E+04  0.10586547261E+04  0.00000000000E+00 0. -1.
         -6    2    1    2    0  503 -0.27643977377E+02  0.15313222344E+01 -0.31264916220E+03  0.35747967355E+03  0.17110138499E+03 0.  0.
        -24    2    3    3    0    0 -0.72932068472E+01  0.11513595946E+02 -0.55568693700E+02  0.99359048779E+02  0.81231687764E+02 0.  0.
          6    2    1    2  501    0  0.27643977377E+02 -0.15313222344E+01 -0.71177095023E+03  0.73540966616E+03  0.18287415635E+03 0.  0.
         24    2    5    5    0    0 -0.13272063479E+02  0.40631360155E+02 -0.62189327131E+03  0.62792989433E+03  0.75615184933E+02 0.  0.
          5    1    5    5  501    0  0.40916040855E+02 -0.42162682389E+02 -0.89877678919E+02  0.10747977183E+03  0.47000000000E+01 0. -1.
        -13    1    6    6    0    0 -0.44363097670E+02  0.26254881934E+02 -0.32427308459E+03  0.32834499638E+03  0.00000000000E+00 0.  1.
         14    1    6    6    0    0  0.31091034192E+02  0.14376478221E+02 -0.29762018672E+03  0.29958489794E+03  0.00000000000E+00 0. -1.
         -5    1    3    3    0  503 -0.20350770530E+02 -0.99822737112E+01 -0.25708046850E+03  0.25812062477E+03  0.47000000000E+01 0.  1.
         11    1    4    4    0    0 -0.43737004034E+02  0.91508231588E+01 -0.22222163039E+02  0.49904785507E+02  0.00000000000E+00 0. -1.
        -12    1    4    4    0    0  0.36443797187E+02  0.23627727868E+01 -0.33346530661E+02  0.49454263272E+02  0.00000000000E+00 0.  1.
</event>
<event>
12    1  0.8747122E-002  0.1775640E+03  0.7818608E-02  0.1170724E+00
         21   -1    0    0  501  502  0.00000000000E+00  0.00000000000E+00  0.71041100377E+03  0.71041100377E+03  0.00000000000E+00 0.  1.
         21   -1    0    0  502  503 -0.00000000000E+00 -0.00000000000E+00 -0.17784597597E+03  0.17784597597E+03  0.00000000000E+00 0.  1.
         -6    2    1    2    0  503 -0.39871199315E+01  0.33265865859E+02 -0.11883568315E+03  0.21366067151E+03  0.17437444768E+03 0.  0.
        -24    2    3    3    0    0 -0.51634623168E+02  0.65492104123E+02 -0.59369757704E+02  0.13079269647E+03  0.81404000565E+02 0.  0.
          6    2    1    2  501    0  0.39871199315E+01 -0.33265865859E+02  0.65140071095E+03  0.67459630823E+03  0.17214754690E+03 0.  0.
         24    2    5    5    0    0  0.32391501533E+02 -0.72151450612E+02  0.55611014941E+03  0.56772592546E+03  0.82457182638E+02 0.  0.
          5    1    5    5  501    0 -0.28404381601E+02  0.38885584753E+02  0.95290561542E+02  0.10687038278E+03  0.47000000000E+01 0. -1.
        -13    1    6    6    0    0 -0.26486280629E+02 -0.34900947465E+02  0.24759117786E+03  0.25143784630E+03  0.00000000000E+00 0.  1.
         14    1    6    6    0    0  0.58877782162E+02 -0.37250503146E+02  0.30851897154E+03  0.31628807916E+03  0.00000000000E+00 0. -1.
         -5    1    3    3    0  503  0.47647503237E+02 -0.32226238265E+02 -0.59465925449E+02  0.82867975038E+02  0.47000000000E+01 0.  1.
         11    1    4    4    0    0 -0.18459634474E+01  0.64721219476E+02 -0.45390536721E+02  0.79073033679E+02  0.00000000000E+00 0. -1.
        -12    1    4    4    0    0 -0.49788659721E+02  0.77088464771E+00 -0.13979220983E+02  0.51719662791E+02  0.00000000000E+00 0.  1.
</event>
<event>
12    1  0.8747122E-002  0.2610986E+03  0.7818608E-02  0.1106749E+00
         21   -1    0    0  501  502  0.00000000000E+00  0.00000000000E+00  0.29548215173E+03  0.29548215173E+03  0.00000000000E+00 0.  1.
         21   -1    0    0  502  503 -0.00000000000E+00 -0.00000000000E+00 -0.59682283423E+03  0.59682283423E+03  0.00000000000E+00 0. -1.
         -6    2    1    2    0  503  0.16887934990E+02  0.19404126773E+03 -0.50064740104E+03  0.56383024776E+03  0.17122941393E+03 0.  0.
        -24    2    3    3    0    0  0.68710323283E+02  0.16127674835E+03 -0.42715585399E+03  0.46800660169E+03  0.76398675018E+02 0.  0.
          6    2    1    2  501    0 -0.16887934990E+02 -0.19404126773E+03  0.19930671853E+03  0.32847473820E+03  0.17388291937E+03 0.  0.
         24    2    5    5    0    0  0.12542395661E+02 -0.22955190985E+02  0.90935232757E+02  0.12377237146E+03  0.79788037310E+02 0.  0.
          5    1    5    5  501    0 -0.29430330651E+02 -0.17108607675E+03  0.10837148577E+03  0.20470236674E+03  0.47000000000E+01 0. -1.
        -11    1    6    6    0    0 -0.17812298419E+02 -0.29896440208E+02  0.85303391378E+02  0.92128951436E+02  0.00000000000E+00 0.  1.
         12    1    6    6    0    0  0.30354694080E+02  0.69412492227E+01  0.56318413795E+01  0.31643420023E+02  0.00000000000E+00 0. -1.
         -5    1    3    3    0  503 -0.51822388293E+02  0.32764519379E+02 -0.73491547048E+02  0.95823646069E+02  0.47000000000E+01 0.  1.
         13    1    4    4    0    0 -0.51927929078E+01  0.81458672872E+02 -0.16187554126E+03  0.18129029577E+03  0.00000000000E+00 0. -1.
        -14    1    4    4    0    0  0.73903116191E+02  0.79818075483E+02 -0.26528031273E+03  0.28671630592E+03  0.00000000000E+00 0.  1.
</event>
<event>
12    1  0.8747122E-002  0.1948003E+03  0.7818608E-02  0.1154560E+00
         21   -1    0    0  501  502  0.00000000000E+00  0.00000000000E+00  0.27630545311E+03  0.27630545311E+03  0.00000000000E+00 0.  1.
         21   -1    0    0  502  503 -0.00000000000E+00 -0.00000000000E+00 -0.33883406592E+03  0.33883406592E+03  0.00000000000E+00 0.  1.
         -6    2    1    2    0  503  0.21097258122E+02  0.88503610699E+02 -0.26906942389E+03  0.33122709890E+03  0.17039675103E+03 0.  0.
        -24    2    3    3    0    0  0.24106961266E+02  0.11654592427E+03 -0.26722750414E+03  0.30257553119E+03  0.77313097594E+02 0.  0.
          6    2    1    2  501    0 -0.21097258122E+02 -0.88503610699E+02  0.20654081108E+03  0.28391242013E+03  0.17224741582E+03 0.  0.
         24    2    5    5    0    0  0.33921287955E+02 -0.16191975474E+02  0.48357889331E+02  0.10142970935E+03  0.80849654495E+02 0.  0.
          5    1    5    5  501    0 -0.55018546077E+02 -0.72311635226E+02  0.15818292175E+03  0.18248271078E+03  0.47000000000E+01 0. -1.
        -13    1    6    6    0    0  0.34721971575E+02 -0.41927248051E+02  0.10181430732E+02  0.55382045565E+02  0.00000000000E+00 0.  1.
         14    1    6    6    0    0 -0.80068361954E+00  0.25735272578E+02  0.38176458599E+02  0.46047663785E+02  0.00000000000E+00 0. -1.
         -5    1    3    3    0  503 -0.30097031440E+01 -0.28042313574E+02 -0.18419197503E+01  0.28651567705E+02  0.47000000000E+01 0.  1.
         13    1    4    4    0    0  0.67549256841E+01 -0.67704253043E+01 -0.22961469397E+01  0.98356479486E+01  0.00000000000E+00 0. -1.
        -14    1    4    4    0    0  0.17352035582E+02  0.12331634958E+03 -0.26493135720E+03  0.29273988324E+03  0.00000000000E+00 0.  1.
</event>
<event>
12    1  0.8747122E-002  0.1995817E+03  0.7818608E-02  0.1150371E+00
         21   -1    0    0  503  502  0.00000000000E+00  0.00000000000E+00  0.11729935077E+04  0.11729935077E+04  0.00000000000E+00 0. -1.
         21   -1    0    0  501  503 -0.00000000000E+00 -0.00000000000E+00 -0.36201852605E+02  0.36201852605E+02  0.00000000000E+00 0. -1.
          6    2    1    2  501    0 -0.80625582918E+02  0.57504233681E+02  0.41233425427E+03  0.45809649221E+03  0.17327907380E+03 0.  0.
         24    2    3    3    0    0 -0.15120423978E+01  0.27832459007E+02  0.84036880032E+02  0.11906755180E+03  0.79611259497E+02 0.  0.
         -6    2    1    2    0  502  0.80625582918E+02 -0.57504233681E+02  0.72445740084E+03  0.75109886811E+03  0.17176659318E+03 0.  0.
        -24    2    5    5    0    0  0.68237488714E+02 -0.11534896095E+02  0.67222333276E+03  0.68026714680E+03  0.78036998969E+02 0.  0.
          5    1    3    3  501    0 -0.79113540521E+02  0.29671774674E+02  0.32829737424E+03  0.33902894041E+03  0.47000000000E+01 0. -1.
        -13    1    4    4    0    0  0.10733577956E+02  0.24242087222E+02  0.97190089011E+02  0.10074126210E+03  0.00000000000E+00 0.  1.
         14    1    4    4    0    0 -0.12245620354E+02  0.35903717852E+01 -0.13153208979E+02  0.18326289691E+02  0.00000000000E+00 0. -1.
         -5    1    5    5    0  502  0.12388094205E+02 -0.45969337586E+02  0.52234068073E+02  0.70831721309E+02  0.47000000000E+01 0.  1.
         11    1    6    6    0    0  0.35309251158E+02 -0.37957880876E+02  0.51043927179E+03  0.51306509736E+03  0.00000000000E+00 0. -1.
        -12    1    6    6    0    0  0.32928237555E+02  0.26422984781E+02  0.16178406097E+03  0.16720204944E+03  0.00000000000E+00 0.  1.
</event>
<event>
12    1  0.8747122E-002  0.2203444E+03  0.7818608E-02  0.1134712E+00
         21   -1    0    0  503  502  0.00000000000E+00  0.00000000000E+00  0.30421291719E+02  0.30421291719E+02  0.00000000000E+00 0. -1.
         21   -1    0    0  501  503 -0.00000000000E+00 -0.00000000000E+00 -0.17704126539E+04  0.17704126539E+04  0.00000000000E+00 0. -1.
          6    2    1    2  501    0 -0.81163464620E+02 -0.99309244817E+02 -0.11742483380E+04  0.11936957224E+04  0.17204791315E+03 0.  0.
         24    2    3    3    0    0 -0.89941954354E+02 -0.86587147856E+02 -0.56433818482E+03  0.58357163787E+03  0.80569103013E+02 0.  0.
         -6    2    1    2    0  502  0.81163464620E+02  0.99309244817E+02 -0.56574302416E+03  0.60713822314E+03  0.17916980359E+03 0.  0.
        -24    2    5    5    0    0  0.12585511033E+03  0.86801111690E+02 -0.43809009401E+03  0.47122958777E+03  0.82221968727E+02 0.  0.
          5    1    3    3  501    0  0.87784897337E+01 -0.12722096961E+02 -0.60991015316E+03  0.61012408456E+03  0.47000000000E+01 0. -1.
        -11    1    4    4    0    0 -0.57303893523E+02 -0.42827294054E+01 -0.27716656354E+03  0.28306073894E+03  0.00000000000E+00 0.  1.
         12    1    4    4    0    0 -0.32638060831E+02 -0.82304418450E+02 -0.28717162127E+03  0.30051089893E+03  0.00000000000E+00 0. -1.
         -5    1    5    5    0  502 -0.44691645709E+02  0.12508133127E+02 -0.12765293015E+03  0.13590863537E+03  0.47000000000E+01 0.  1.
         13    1    6    6    0    0  0.89297936452E+02  0.19645879221E+02 -0.17766785985E+03  0.19981479036E+03  0.00000000000E+00 0. -1.
        -14    1    6    6    0    0  0.36557173877E+02  0.67155232469E+02 -0.26042223416E+03  0.27141479741E+03  0.00000000000E+00 0.  1.
</event>
<event>
12    1  0.8747122E-002  0.2223403E+03  0.7818608E-02  0.1132253E+00
         21   -1    0    0  503  502  0.00000000000E+00  0.00000000000E+00  0.12675974743E+03  0.12675974743E+03  0.00000000000E+00 0. -1.
         21   -1    0    0  501  503 -0.00000000000E+00 -0.00000000000E+00 -0.70112548093E+03  0.70112548093E+03  0.00000000000E+00 0. -1.
          6    2    1    2  501    0  0.87845140785E+01  0.14126690463E+03 -0.10798511475E+02  0.22204432349E+03  0.17074415865E+03 0.  0.
         24    2    3    3    0    0 -0.23527089242E+01  0.17142230773E+03 -0.68232652664E+01  0.18931393005E+03  0.80012901072E+02 0.  0.
         -6    2    1    2    0  502 -0.87845140785E+01 -0.14126690463E+03 -0.56356722202E+03  0.60584090487E+03  0.17146918746E+03 0.  0.
        -24    2    5    5    0    0 -0.12899119342E+02 -0.16693985447E+03 -0.40638960172E+03  0.44645795518E+03  0.78338337132E+02 0.  0.
          5    1    3    3  501    0  0.11137223003E+02 -0.30155403096E+02 -0.39752462082E+01  0.32730393436E+02  0.47000000000E+01 0. -1.
        -13    1    4    4    0    0 -0.16405009240E+02  0.18187182538E+02 -0.24232078391E+02  0.34454195100E+02  0.00000000000E+00 0.  1.
         14    1    4    4    0    0  0.14052300316E+02  0.15323512519E+03  0.17408813124E+02  0.15485973495E+03  0.00000000000E+00 0. -1.
         -5    1    5    5    0  502  0.41146052636E+01  0.25672949838E+02 -0.15717762030E+03  0.15938294969E+03  0.47000000000E+01 0.  1.
         13    1    6    6    0    0  0.32617444825E+02 -0.79441088536E+02 -0.17548434331E+03  0.19537026130E+03  0.00000000000E+00 0. -1.
        -14    1    6    6    0    0 -0.45516564167E+02 -0.87498765932E+02 -0.23090525842E+03  0.25108769388E+03  0.00000000000E+00 0.  1.
</event>
<event>
12    1  0.8747122E-002  0.1822676E+03  0.7818608E-02  0.1165834E+00
         21   -1    0    0  503  502  0.00000000000E+00  0.00000000000E+00  0.39306361106E+03  0.39306361106E+03  0.00000000000E+00 0.  1.
         21   -1    0    0  501  503 -0.00000000000E+00 -0.00000000000E+00 -0.20970666138E+03  0.20970666138E+03  0.00000000000E+00 0.  1.
          6    2    1    2  501    0  0.52785954232E+02  0.18661032202E+02 -0.14146818743E+03  0.23072650380E+03  0.17345570158E+03 0.  0.
         24    2    3    3    0    0 -0.34370746574E+01 -0.42507749806E+02 -0.11337053421E+03  0.14289588848E+03  0.75813156130E+02 0.  0.
         -6    2    1    2    0  502 -0.52785954232E+02 -0.18661032202E+02  0.32482513711E+03  0.37204376864E+03  0.17254160367E+03 0.  0.
        -24    2    5    5    0    0 -0.72071403046E+02 -0.46944844397E+02  0.13231261222E+03  0.17645474847E+03  0.78940137788E+02 0.  0.
          5    1    3    3  501    0  0.56223028889E+02  0.61168782008E+02 -0.28097653225E+02  0.87830615315E+02  0.47000000000E+01 0. -1.
        -13    1    4    4    0    0  0.84010486486E+01 -0.25636888326E+02  0.69116987882E+00  0.26987133550E+02  0.00000000000E+00 0.  1.
         14    1    4    4    0    0 -0.11838123306E+02 -0.16870861480E+02 -0.11406170409E+03  0.11590875493E+03  0.00000000000E+00 0. -1.
         -5    1    5    5    0  502  0.19285448815E+02  0.28283812195E+02  0.19251252489E+03  0.19558902017E+03  0.47000000000E+01 0.  1.
         13    1    6    6    0    0  0.98719897009E+01  0.12160628409E+02  0.19511686038E+02  0.25020850426E+02  0.00000000000E+00 0. -1.
        -14    1    6    6    0    0 -0.81943392747E+02 -0.59105472807E+02  0.11280092618E+03  0.15143389805E+03  0.00000000000E+00 0.  1.
</event>
<event>
12    1  0.8747122E-002  0.1739059E+03  0.7818608E-02  0.1174469E+00
         21   -1    0    0  503  502  0.00000000000E+00  0.00000000000E+00  0.25868353895E+02  0.25868353895E+02  0.00000000000E+00 0.  1.
         21   -1    0    0  501  503 -0.00000000000E+00 -0.00000000000E+00 -0.13033628132E+04  0.13033628132E+04  0.00000000000E+00 0.  1.
          6    2    1    2  501    0 -0.19019429661E+02 -0.20721693227E+02 -0.86895606526E+03  0.88618729541E+03  0.17161629269E+03 0.  0.
         24    2    3    3    0    0 -0.57448918717E+02 -0.57969066458E+02 -0.47552491144E+03  0.48910499256E+03  0.80243139375E+02 0.  0.
         -6    2    1    2    0  502  0.19019429661E+02  0.20721693227E+02 -0.40853839404E+03  0.44304387168E+03  0.16909501931E+03 0.  0.
        -24    2    5    5    0    0  0.35447814943E+02 -0.48627441518E+02 -0.23943561267E+03  0.25947635004E+03  0.79858549730E+02 0.  0.
          5    1    3    3  501    0  0.38429489056E+02  0.37247373231E+02 -0.39343115382E+03  0.39708230285E+03  0.47000000000E+01 0. -1.
        -11    1    4    4    0    0  0.76814034097E+00 -0.13597185447E+02 -0.78152247128E+01  0.15701949846E+02  0.00000000000E+00 0.  1.
         12    1    4    4    0    0 -0.58217059058E+02 -0.44371881011E+02 -0.46770968673E+03  0.47340304272E+03  0.00000000000E+00 0. -1.
         -5    1    5    5    0  502 -0.16428385282E+02  0.69349134745E+02 -0.16910278137E+03  0.18356752164E+03  0.47000000000E+01 0.  1.
         13    1    6    6    0    0  0.33365902404E+02 -0.51126119830E+02 -0.83143496650E+02  0.10315039800E+03  0.00000000000E+00 0. -1.
        -14    1    6    6    0    0  0.20819125395E+01  0.24986783120E+01 -0.15629211602E+03  0.15632595205E+03  0.00000000000E+00 0.  1.
</event>
<event>
12    1  0.8747122E-002  0.2636305E+03  0.7818608E-02  0.1105017E+00
         21   -1    0    0  503  502  0.00000000000E+00  0.00000000000E+00  0.83603546000E+02  0.83603546000E+02  0.00000000000E+00 0. -1.
         21   -1    0    0  501  503 -0.00000000000E+00 -0.00000000000E+00 -0.83118911263E+03  0.83118911263E+03  0.00000000000E+00 0.  1.
          6    2    1    2  501    0 -0.71693574109E+02  0.18688693691E+03 -0.38665745256E+03  0.46797970915E+03  0.17156435178E+03 0.  0.
         24    2    3    3    0    0 -0.80365588353E+02  0.51346902209E+02 -0.22469864961E+03  0.25655821381E+03  0.78977856272E+02 0.  0.
         -6    2    1    2    0  502  0.71693574109E+02 -0.18688693691E+03 -0.36092811407E+03  0.44681294948E+03  0.17118998961E+03 0.  0.
        -24    2    5    5    0    0  0.26252132507E+02 -0.19454295712E+03 -0.25778784410E+03  0.33374861138E+03  0.79983913430E+02 0.  0.
          5    1    3    3  501    0  0.86720142444E+01  0.13554003470E+03 -0.16195880295E+03  0.21142149534E+03  0.47000000000E+01 0. -1.
        -11    1    4    4    0    0 -0.55346268398E+02  0.33683834930E+02 -0.21482082374E+03  0.22437868988E+03  0.00000000000E+00 0.  1.
         12    1    4    4    0    0 -0.25019319956E+02  0.17663067279E+02 -0.98778258745E+01  0.32179523936E+02  0.00000000000E+00 0. -1.
         -5    1    5    5    0  502  0.45441441602E+02  0.76560202112E+01 -0.10314026997E+03  0.11306433810E+03  0.47000000000E+01 0.  1.
         11    1    6    6    0    0  0.52042391064E+02 -0.12045399922E+03 -0.13683306389E+03  0.18958075791E+03  0.00000000000E+00 0. -1.
        -12    1    6    6    0    0 -0.25790258557E+02 -0.74088957895E+02 -0.12095478021E+03  0.14416785347E+03  0.00000000000E+00 0.  1.
</event>
<event>
12    1  0.8747122E-002  0.2342071E+03  0.7818608E-02  0.1123954E+00
         21   -1    0    0  503  502  0.00000000000E+00  0.00000000000E+00  0.18523165733E+03  0.18523165733E+03  0.00000000000E+00 0. -1.
         21   -1    0    0  501  503 -0.00000000000E+00 -0.00000000000E+00 -0.42111130854E+03  0.42111130854E+03  0.00000000000E+00 0.  1.
          6    2    1    2  501    0  0.10221341798E+03  0.11831425548E+03 -0.28401662841E+03  0.36724015901E+03  0.17249360367E+03 0.  0.
         24    2    3    3    0    0  0.23420670308E+02  0.37596353027E+02 -0.21894471263E+03  0.23693236536E+03  0.78981928342E+02 0.  0.
         -6    2    1    2    0  502 -0.10221341798E+03 -0.11831425548E+03  0.48136977203E+02  0.23910280686E+03  0.17437642561E+03 0.  0.
        -24    2    5    5    0    0 -0.57356593401E+02 -0.98084331625E+01  0.60940750786E+02  0.12090096759E+03  0.86702276150E+02 0.  0.
          5    1    3    3  501    0  0.78792747671E+02  0.80717902458E+02 -0.65071915778E+02  0.13030779365E+03  0.47000000000E+01 0. -1.
        -13    1    4    4    0    0  0.29401317312E+02  0.59980696649E+02 -0.15008352463E+03  0.16427777024E+03  0.00000000000E+00 0.  1.
         14    1    4    4    0    0 -0.59806470044E+01 -0.22384343623E+02 -0.68861188002E+02  0.72654595114E+02  0.00000000000E+00 0. -1.
         -5    1    5    5    0  502 -0.44856824578E+02 -0.10850582232E+03 -0.12803773583E+02  0.11820183927E+03  0.47000000000E+01 0.  1.
         13    1    6    6    0    0 -0.56806725815E+02 -0.42950889106E+02  0.43404419985E+02  0.83400999077E+02  0.00000000000E+00 0. -1.
        -14    1    6    6    0    0 -0.54986758596E+00  0.33142455943E+02  0.17536330801E+02  0.37499968511E+02  0.00000000000E+00 0.  1.
</event>
<event>
12    1  0.8747122E-002  0.2657841E+03  0.7818608E-02  0.1103753E+00
         21   -1    0    0  503  502  0.00000000000E+00  0.00000000000E+00  0.27511454590E+03  0.27511454590E+03  0.00000000000E+00 0. -1.
         21   -1    0    0  501  503 -0.00000000000E+00 -0.00000000000E+00 -0.42425527683E+03  0.42425527683E+03  0.00000000000E+00 0.  1.
          6    2    1    2  501    0 -0.10839500160E+03  0.17069369851E+03 -0.29445636815E+03  0.39666829397E+03  0.17249744233E+03 0.  0.
         24    2    3    3    0    0 -0.13216361985E+03  0.11100280495E+03 -0.26470461627E+03  0.32570910339E+03  0.78924274070E+02 0.  0.
         -6    2    1    2    0  502  0.10839500160E+03 -0.17069369851E+03  0.14531563722E+03  0.30270152876E+03  0.17212136999E+03 0.  0.
        -24    2    5    5    0    0  0.36848430266E+02 -0.15532770838E+02  0.25965041140E+02  0.94229755776E+02  0.81277239921E+02 0.  0.
          5    1    3    3  501    0  0.23768618254E+02  0.59690893555E+02 -0.29751751886E+02  0.70959190578E+02  0.47000000000E+01 0. -1.
        -13    1    4    4    0    0 -0.64337684071E+02  0.77029377158E+02 -0.88270916566E+02  0.13365858464E+03  0.00000000000E+00 0.  1.
         14    1    4    4    0    0 -0.67825935780E+02  0.33973427792E+02 -0.17643369970E+03  0.19205051875E+03  0.00000000000E+00 0. -1.
         -5    1    5    5    0  502  0.71546571330E+02 -0.15516092767E+03  0.11935059608E+03  0.20847177298E+03  0.47000000000E+01 0.  1.
         13    1    6    6    0    0  0.23603817875E+02  0.41405278718E+00  0.54248760696E+02  0.59162823589E+02  0.00000000000E+00 0. -1.
        -14    1    6    6    0    0  0.13244612391E+02 -0.15946823625E+02 -0.28283719556E+02  0.35066932187E+02  0.00000000000E+00 0.  1.
</event>
<event>
12    1  0.8747122E-002  0.2288561E+03  0.7818608E-02  0.1128015E+00
         21   -1    0    0  503  502  0.00000000000E+00  0.00000000000E+00  0.74746302276E+02  0.74746302276E+02  0.00000000000E+00 0. -1.
         21   -1    0    0  501  503 -0.00000000000E+00 -0.00000000000E+00 -0.77753648815E+03  0.77753648815E+03  0.00000000000E+00 0.  1.
          6    2    1    2  501    0 -0.12275047342E+03  0.83945894784E+02 -0.49137374715E+03  0.54071895731E+03  0.16974757562E+03 0.  0.
         24    2    3    3    0    0 -0.26602608796E+02 -0.22390383728E+00 -0.29484396239E+03  0.30625144747E+03  0.78417077176E+02 0.  0.
         -6    2    1    2    0  502  0.12275047342E+03 -0.83945894784E+02 -0.21141643872E+03  0.31156383311E+03  0.17395551031E+03 0.  0.
        -24    2    5    5    0    0  0.13237152404E+03 -0.81818501787E+02 -0.23051684272E+03  0.28956370018E+03  0.80576883010E+02 0.  0.
          5    1    3    3  501    0 -0.96147864625E+02  0.84169798621E+02 -0.19652978476E+03  0.23446750984E+03  0.47000000000E+01 0. -1.
        -13    1    4    4    0    0 -0.43730928531E+02 -0.14125841849E+02 -0.98740041182E+02  0.10891064801E+03  0.00000000000E+00 0.  1.
         14    1    4    4    0    0  0.17128319736E+02  0.13901938011E+02 -0.19610392121E+03  0.19734079945E+03  0.00000000000E+00 0. -1.
         -5    1    5    5    0  502 -0.96210506229E+01 -0.21273929970E+01  0.19100403997E+02  0.22000132929E+02  0.47000000000E+01 0.  1.
         13    1    6    6    0    0  0.68405070762E+02 -0.51360555650E+02 -0.58786484469E+02  0.10379311701E+03  0.00000000000E+00 0. -1.
        -14    1    6    6    0    0  0.63966453282E+02 -0.30457946137E+02 -0.17173035825E+03  0.18577058317E+03  0.00000000000E+00 0.  1.
</event>
<event>
12    1  0.8747122E-002  0.1980560E+03  0.7818608E-02  0.1151463E+00
         21   -1    0    0  503  502  0.00000000000E+00  0.00000000000E+00  0.44833642874E+03  0.44833642874E+03  0.00000000000E+00 0.  1.
         21   -1    0    0  501  503 -0.00000000000E+00 -0.00000000000E+00 -0.10448433477E+03  0.10448433477E+03  0.00000000000E+00 0. -1.
          6    2    1    2  501    0 -0.94425363000E+02 -0.26103819840E+02  0.60088422482E+02  0.20697052007E+03  0.17212965774E+03 0.  0.
         24    2    3    3    0    0 -0.99164996057E+02 -0.70697811886E+02  0.18990212992E+02  0.14596034821E+03  0.78178756772E+02 0.  0.
         -6    2    1    2    0  502  0.94425363000E+02  0.26103819840E+02  0.28376367149E+03  0.34585024343E+03  0.17173529351E+03 0.  0.
        -24    2    5    5    0    0 -0.12911145000E+02  0.22514051453E+02  0.94199161703E+02  0.12792639032E+03  0.82571781472E+02 0.  0.
          5    1    3    3  501    0  0.47396330571E+01  0.44593992046E+02  0.41098209490E+02  0.61010171868E+02  0.47000000000E+01 0. -1.
        -13    1    4    4    0    0  0.53823827231E+01 -0.40131223631E+01  0.20889371643E+02  0.21941764799E+02  0.00000000000E+00 0.  1.
         14    1    4    4    0    0 -0.10454737878E+03 -0.66684689523E+02 -0.18991586505E+01  0.12401858341E+03  0.00000000000E+00 0. -1.
         -5    1    5    5    0  502  0.10733650800E+03  0.35897683862E+01  0.18956450979E+03  0.21792385312E+03  0.47000000000E+01 0.  1.
         13    1    6    6    0    0  0.29546132291E+02  0.24562998199E+02  0.67678755185E+02  0.77824987743E+02  0.00000000000E+00 0. -1.
        -14    1    6    6    0    0 -0.42457277292E+02 -0.20489467451E+01  0.26520406518E+02  0.50101402572E+02  0.00000000000E+00 0.  1.
</event>
<event>
12    1  0.8747122E-002  0.2939127E+03  0.7818608E-02  0.1088621E+00
         21   -1    0    0  503  502  0.00000000000E+00  0.00000000000E+00  0.73580893553E+03  0.73580893553E+03  0.00000000000E+00 0. -1.
         21   -1    0    0  501  503 -0.00000000000E+00 -0.00000000000E+00 -0.21124737274E+03  0.21124737274E+03  0.00000000000E+00 0.  1.
          6    2    1    2  501    0 -0.17351535246E+03 -0.15941339177E+03 -0.55448263362E+02  0.29682860870E+03  0.17179204295E+03 0.  0.
         24    2    3    3    0    0 -0.12886595851E+03 -0.18271798606E+03 -0.26925486262E+02  0.23875700369E+03  0.79294560376E+02 0.  0.
         -6    2    1    2    0  502  0.17351535246E+03  0.15941339177E+03  0.58000982615E+03  0.65022769957E+03  0.17568282740E+03 0.  0.
        -24    2    5    5    0    0  0.35010560044E+02  0.85543303755E+02  0.35824570856E+03  0.37848925680E+03  0.79816875928E+02 0.  0.
          5    1    3    3  501    0 -0.44649393949E+02  0.23304594297E+02 -0.28522777100E+02  0.58071605014E+02  0.47000000000E+01 0. -1.
        -11    1    4    4    0    0 -0.41546055588E+02 -0.10848040002E+03 -0.41211643933E+02  0.12325774425E+03  0.00000000000E+00 0.  1.
         12    1    4    4    0    0 -0.87319902927E+02 -0.74237586046E+02  0.14286157671E+02  0.11549925944E+03  0.00000000000E+00 0. -1.
         -5    1    5    5    0  502  0.13850479242E+03  0.73870088012E+02  0.22176411760E+03  0.27173844277E+03  0.47000000000E+01 0.  1.
         11    1    6    6    0    0  0.38212572767E+01 -0.88368693602E+00  0.15932427849E+03  0.15937254666E+03  0.00000000000E+00 0. -1.
        -12    1    6    6    0    0  0.31189302767E+02  0.86426990691E+02  0.19892143006E+03  0.21911671014E+03  0.00000000000E+00 0.  1.
</event>
<event>
12    1  0.8747122E-002  0.2792320E+03  0.7818608E-02  0.1097119E+00
         21   -1    0    0  503  502  0.00000000000E+00  0.00000000000E+00  0.20637498823E+03  0.20637498823E+03  0.00000000000E+00 0.  1.
         21   -1    0    0  501  503 -0.00000000000E+00 -0.00000000000E+00 -0.43548896024E+03  0.43548896024E+03  0.00000000000E+00 0. -1.
          6    2    1    2  501    0 -0.21383773581E+03 -0.53770033645E+02 -0.24212983153E+03  0.36959083109E+03  0.17132639416E+03 0.  0.
         24    2    3    3    0    0 -0.16331880033E+03 -0.88818661741E+02 -0.12479718472E+03  0.23704042867E+03  0.77794873200E+02 0.  0.
         -6    2    1    2    0  502  0.21383773581E+03  0.53770033645E+02  0.13015859524E+02  0.27227311738E+03  0.15920252534E+03 0.  0.
        -24    2    5    5    0    0  0.36099146285E+02  0.18331211492E+02 -0.92418820785E+01  0.89613835158E+02  0.79410612578E+02 0.  0.
          5    1    3    3  501    0 -0.50518935478E+02  0.35048628096E+02 -0.11733264681E+03  0.13255040242E+03  0.47000000000E+01 0. -1.
        -13    1    4    4    0    0 -0.10057798761E+03 -0.10555604903E+02 -0.59087277901E+02  0.11712667842E+03  0.00000000000E+00 0.  1.
         14    1    4    4    0    0 -0.62740812715E+02 -0.78263056838E+02 -0.65709906817E+02  0.11991375025E+03  0.00000000000E+00 0. -1.
         -5    1    5    5    0  502  0.17773858952E+03  0.35438822152E+02  0.22257741603E+02  0.18265928222E+03  0.47000000000E+01 0.  1.
         13    1    6    6    0    0  0.15507822647E+02 -0.25843433567E+02  0.16642263346E+02  0.34428775045E+02  0.00000000000E+00 0. -1.
        -14    1    6    6    0    0  0.20591323638E+02  0.44174645060E+02 -0.25884145425E+02  0.55185060113E+02  0.00000000000E+00 0.  1.
</event>
<event>
12    1  0.8747122E-002  0.2750014E+03  0.7818608E-02  0.1098739E+00
         21   -1    0    0  501  502  0.00000000000E+00  0.00000000000E+00  0.36402963763E+02  0.36402963763E+02  0.00000000000E+00 0.  1.
         21   -1    0    0  502  503 -0.00000000000E+00 -0.00000000000E+00 -0.23630047504E+04  0.23630047504E+04  0.00000000000E+00 0.  1.
         -6    2    1    2    0  503 -0.21614583634E+02 -0.21194642247E+03 -0.15953051587E+04  0.16188342474E+04  0.17388874252E+03 0.  0.
        -24    2    3    3    0    0  0.26542130623E+01 -0.23572949558E+02 -0.39187912753E+03  0.40050348672E+03  0.79190046610E+02 0.  0.
          6    2    1    2  501    0  0.21614583634E+02  0.21194642247E+03 -0.73129662790E+03  0.78057346678E+03  0.17062151928E+03 0.  0.
         24    2    5    5    0    0 -0.22556531944E+02  0.94865255593E+02 -0.45374958033E+03  0.47608448389E+03  0.10611098104E+03 0.  0.
          5    1    5    5  501    0  0.44171115578E+02  0.11708116688E+03 -0.27754704756E+03  0.30448898289E+03  0.47000000000E+01 0. -1.
        -13    1    6    6    0    0  0.22138689785E+02  0.96862617202E+02 -0.31545258249E+03  0.33073073640E+03  0.00000000000E+00 0.  1.
         14    1    6    6    0    0 -0.44695221729E+02 -0.19973616091E+01 -0.13829699784E+03  0.14535374750E+03  0.00000000000E+00 0. -1.
         -5    1    3    3    0  503 -0.24268796696E+02 -0.18837347291E+03 -0.12034260312E+04  0.12183307607E+04  0.47000000000E+01 0.  1.
         13    1    4    4    0    0  0.27583992869E+02  0.65988403349E+01 -0.28969906800E+03  0.29108413106E+03  0.00000000000E+00 0. -1.
        -14    1    4    4    0    0 -0.24929779807E+02 -0.30171789893E+02 -0.10218005953E+03  0.10941935566E+03  0.00000000000E+00 0.  1.
</event>
<event>
12    1  0.8747122E-002  0.1775787E+03  0.7818608E-02  0.1170230E+00
         21   -1    0    0  501  502  0.00000000000E+00  0.00000000000E+00  0.91602434236E+03  0.91602434236E+03  0.00000000000E+00 0. -1.
         21   -1    0    0  502  503 -0.00000000000E+00 -0.00000000000E+00 -0.34378920693E+02  0.34378920693E+02  0.00000000000E+00 0. -1.
         -6    2    1    2    0  503 -0.28085431408E+02 -0.29494353622E+02  0.43625770596E+03  0.47101485836E+03  0.17284531358E+03 0.  0.
        -24    2    3    3    0    0  0.10846340229E+02 -0.88520060087E+01  0.41325070034E+03  0.42108288798E+03  0.79615677546E+02 0.  0.
          6    2    1    2  501    0  0.28085431408E+02  0.29494353622E+02  0.44538771570E+03  0.47938840470E+03  0.17258133417E+03 0.  0.
         24    2    5    5    0    0  0.13236252975E+02 -0.67076642761E+01  0.62078716840E+02  0.94058724021E+02  0.69087519329E+02 0.  0.
          5    1    5    5  501    0  0.14849178432E+02  0.36202017898E+02  0.38330899886E+03  0.38532968068E+03  0.47000000000E+01 0. -1.
        -13    1    6    6    0    0 -0.12711506045E+01 -0.35573521749E+02  0.19425471450E+02  0.40551698047E+02  0.00000000000E+00 0.  1.
         14    1    6    6    0    0  0.14507403580E+02  0.28865857472E+02  0.42653245390E+02  0.53507025974E+02  0.00000000000E+00 0. -1.
         -5    1    3    3    0  503 -0.38931771637E+02 -0.20642347614E+02  0.23007005621E+02  0.49931970374E+02  0.47000000000E+01 0.  1.
         11    1    4    4    0    0 -0.27326540725E+02 -0.26742293248E+02  0.21869774005E+03  0.22201484541E+03  0.00000000000E+00 0. -1.
        -12    1    4    4    0    0  0.38172880954E+02  0.17890287240E+02  0.19455296029E+03  0.19906804258E+03  0.00000000000E+00 0.  1.
</event>
<event>
12    1  0.8747122E-002  0.1755592E+03  0.7818608E-02  0.1172425E+00
         21   -1    0    0  503  502  0.00000000000E+00  0.00000000000E+00  0.86496440140E+03  0.86496440140E+03  0.00000000000E+00 0.  1.
         21   -1    0    0  501  503 -0.00000000000E+00 -0.00000000000E+00 -0.42958746371E+02  0.42958746371E+02  0.00000000000E+00 0.  1.
          6    2    1    2  501    0  0.17753078015E+02 -0.28716152864E+02  0.21995541929E+03  0.28079833247E+03  0.17125281845E+03 0.  0.
         24    2    3    3    0    0 -0.25079473119E+02 -0.76402726519E+02  0.14836883291E+03  0.18459351921E+03  0.74800402173E+02 0.  0.
         -6    2    1    2    0  502 -0.17753078015E+02  0.28716152864E+02  0.60205023574E+03  0.62712481530E+03  0.17228249592E+03 0.  0.
        -24    2    5    5    0    0 -0.72376062990E+02  0.22804424393E+02  0.49394081806E+03  0.50576438018E+03  0.77857178554E+02 0.  0.
          5    1    3    3  501    0  0.42832551135E+02  0.47686573655E+02  0.71586586380E+02  0.96204813254E+02  0.47000000000E+01 0. -1.
        -11    1    4    4    0    0  0.24590572787E+02 -0.31191373574E+02  0.35600340899E+02  0.53338375750E+02  0.00000000000E+00 0.  1.
         12    1    4    4    0    0 -0.49670045907E+02 -0.45211352945E+02  0.11276849201E+03  0.13125514346E+03  0.00000000000E+00 0. -1.
         -5    1    5    5    0  502  0.54622984975E+02  0.59117284711E+01  0.10810941768E+03  0.12136043512E+03  0.47000000000E+01 0.  1.
         13    1    6    6    0    0 -0.57101468531E+02  0.60556905450E+00  0.14582766101E+03  0.15660986922E+03  0.00000000000E+00 0. -1.
        -14    1    6    6    0    0 -0.15274594459E+02  0.22198855338E+02  0.34811315705E+03  0.34915451096E+03  0.00000000000E+00 0.  1.
</event>
<event>
12    1  0.8747122E-002  0.2048633E+03  0.7818608E-02  0.1146000E+00
         21   -1    0    0  503  502  0.00000000000E+00  0.00000000000E+00  0.46459148178E+03  0.46459148178E+03  0.00000000000E+00 0.  1.
         21   -1    0    0  501  503 -0.00000000000E+00 -0.00000000000E+00 -0.14366615985E+03  0.14366615985E+03  0.00000000000E+00 0. -1.
          6    2    1    2  501    0  0.33575869344E+02 -0.10682167839E+03 -0.25591532684E+02  0.20645559938E+03  0.17155400897E+03 0.  0.
         24    2    3    3    0    0  0.59255764065E+01 -0.26889625467E+01  0.28373179910E+02  0.85863553981E+02  0.80778521828E+02 0.  0.
         -6    2    1    2    0  502 -0.33575869344E+02  0.10682167839E+03  0.34651685462E+03  0.40180204224E+03  0.16980206313E+03 0.  0.
        -24    2    5    5    0    0 -0.52027862446E+02  0.27699434108E+02  0.92797859610E+02  0.13535087596E+03  0.78957328688E+02 0.  0.
          5    1    3    3  501    0  0.27650292938E+02 -0.10413271584E+03 -0.53964712594E+02  0.12059204540E+03  0.47000000000E+01 0. -1.
        -13    1    4    4    0    0  0.41265547808E+00  0.37818924706E+02  0.34363811807E+01  0.37976967574E+02  0.00000000000E+00 0.  1.
         14    1    4    4    0    0  0.55129209285E+01 -0.40507887253E+02  0.24936798729E+02  0.47886586407E+02  0.00000000000E+00 0. -1.
         -5    1    5    5    0  502  0.18451993101E+02  0.79122244278E+02  0.25371899501E+03  0.26645116629E+03  0.47000000000E+01 0.  1.
         11    1    6    6    0    0 -0.14531936035E+02  0.43853049894E+02  0.16943891663E+02  0.49207343096E+02  0.00000000000E+00 0. -1.
        -12    1    6    6    0    0 -0.37495926411E+02 -0.16153615786E+02  0.75853967948E+02  0.86143532861E+02  0.00000000000E+00 0.  1.
</event>
<event>
12    1  0.8747122E-002  0.2000670E+03  0.7818608E-02  0.1150390E+00
         21   -1    0    0  503  502  0.00000000000E+00  0.00000000000E+00  0.23335686554E+03  0.23335686554E+03  0.00000000000E+00 0.  1.
         21   -1    0    0  501  503 -0.00000000000E+00 -0.00000000000E+00 -0.20488841977E+03  0.20488841977E+03  0.00000000000E+00 0.  1.
          6    2    1    2  501    0  0.69319727738E+02 -0.74778688005E+02 -0.77774156128E+02  0.21465234464E+03  0.17213289303E+03 0.  0.
         24    2    3    3    0    0 -0.10896836980E+02 -0.16694899242E+01  0.43738849228E-02  0.81043805129E+02  0.80290535419E+02 0.  0.
         -6    2    1    2    0  502 -0.69319727738E+02  0.74778688005E+02  0.10624260189E+03  0.22359294067E+03  0.16825348682E+03 0.  0.
        -24    2    5    5    0    0 -0.83678420674E+02 -0.42139119883E+01  0.53603130394E+02  0.12747318788E+03  0.79726299926E+02 0.  0.
          5    1    3    3  501    0  0.80216564718E+02 -0.73109198080E+02 -0.77778530013E+02  0.13360853951E+03  0.47000000000E+01 0. -1.
        -11    1    4    4    0    0 -0.42058138818E+02  0.70846722225E+01 -0.15206248179E+02  0.45280344577E+02  0.00000000000E+00 0.  1.
         12    1    4    4    0    0  0.31161301838E+02 -0.87541621467E+01  0.15210622063E+02  0.35763460552E+02  0.00000000000E+00 0. -1.
         -5    1    5    5    0  502  0.14358692935E+02  0.78992599993E+02  0.52639471500E+02  0.96119752789E+02  0.47000000000E+01 0.  1.
         11    1    6    6    0    0  0.55875608771E+01 -0.19568887536E+02 -0.31376704812E+01  0.20591434433E+02  0.00000000000E+00 0. -1.
        -12    1    6    6    0    0 -0.89265981551E+02  0.15354975547E+02  0.56740800875E+02  0.10688175345E+03  0.00000000000E+00 0.  1.
</event>
<event>
12    1  0.8747122E-002  0.1974249E+03  0.7818608E-02  0.1154493E+00
         21   -1    0    0  501  502  0.00000000000E+00  0.00000000000E+00  0.22685420270E+03  0.22685420270E+03  0.00000000000E+00 0. -1.
         21   -1    0    0  502  503 -0.00000000000E+00 -0.00000000000E+00 -0.24712787477E+03  0.24712787477E+03  0.00000000000E+00 0.  1.
         -6    2    1    2    0  503 -0.22991798447E+01  0.75105203863E+02 -0.14947777095E+03  0.24762912165E+03  0.18256642628E+03 0.  0.
        -24    2    3    3    0    0 -0.73715364610E+02  0.53806275447E+02 -0.10602928034E+03  0.16123596720E+03  0.80160829425E+02 0.  0.
          6    2    1    2  501    0  0.22991798447E+01 -0.75105203863E+02  0.12920409888E+03  0.22635295582E+03  0.16998789241E+03 0.  0.
         24    2    5    5    0    0 -0.63172675948E+02 -0.60754917933E+02  0.79715622967E+02  0.14290420595E+03  0.79906723699E+02 0.  0.
          5    1    5    5  501    0  0.65471855793E+02 -0.14350285930E+02  0.49488475916E+02  0.83448749875E+02  0.47000000000E+01 0. -1.
        -13    1    6    6    0    0 -0.34296099829E+02  0.31099834055E+01 -0.29044865821E+01  0.34559087120E+02  0.00000000000E+00 0.  1.
         14    1    6    6    0    0 -0.28876576119E+02 -0.63864901339E+02  0.82620109549E+02  0.10834511883E+03  0.00000000000E+00 0. -1.
         -5    1    3    3    0  503  0.71416184765E+02  0.21298928416E+02 -0.43448490617E+02  0.86393154445E+02  0.47000000000E+01 0.  1.
         11    1    4    4    0    0 -0.59479194842E+02 -0.57892258411E+01 -0.45526117610E+02  0.75126008410E+02  0.00000000000E+00 0. -1.
        -12    1    4    4    0    0 -0.14236169768E+02  0.59595501288E+02 -0.60503162727E+02  0.86109958794E+02  0.00000000000E+00 0.  1.
</event>
<event>
12    1  0.8747122E-002  0.2453829E+03  0.7818608E-02  0.1116395E+00
         21   -1    0    0  501  502  0.00000000000E+00  0.00000000000E+00  0.31525816555E+02  0.31525816555E+02  0.00000000000E+00 0.  1.
         21   -1    0    0  502  503 -0.00000000000E+00 -0.00000000000E+00 -0.22038965401E+04  0.22038965401E+04  0.00000000000E+00 0. -1.
         -6    2    1    2    0  503 -0.99389870273E+02 -0.14335360202E+03 -0.67507916097E+03  0.71829285857E+03  0.17258086677E+03 0.  0.
        -24    2    3    3    0    0 -0.11275966541E+03 -0.16421481898E+03 -0.63947844755E+03  0.67466439778E+03  0.80982194558E+02 0.  0.
          6    2    1    2  501    0  0.99389870273E+02  0.14335360202E+03 -0.14972915626E+04  0.15171294981E+04  0.17138053876E+03 0.  0.
         24    2    5    5    0    0  0.73644944329E+02  0.95534252509E+02 -0.13840558829E+04  0.13914557118E+04  0.77381779308E+02 0.  0.
          5    1    5    5  501    0  0.25744925944E+02  0.47819349514E+02 -0.11323567970E+03  0.12567378627E+03  0.47000000000E+01 0. -1.
        -11    1    6    6    0    0  0.45933394366E+02  0.41270546371E+02 -0.33579661150E+03  0.34142715037E+03  0.00000000000E+00 0.  1.
         12    1    6    6    0    0  0.27711549963E+02  0.54263706138E+02 -0.10482592714E+04  0.10500285614E+04  0.00000000000E+00 0. -1.
         -5    1    3    3    0  503  0.13369795141E+02  0.20861216957E+02 -0.35600713420E+02  0.43628460791E+02  0.47000000000E+01 0.  1.
         13    1    4    4    0    0 -0.72153323656E+01 -0.22620087890E+01 -0.12239766313E+03  0.12263101421E+03  0.00000000000E+00 0. -1.
        -14    1    4    4    0    0 -0.10554433305E+03 -0.16195281019E+03 -0.51708078442E+03  0.55203338357E+03  0.00000000000E+00 0.  1.
</event>
<event>
12    1  0.8747122E-002  0.1742901E+03  0.7818608E-02  0.1173830E+00
         21   -1    0    0  501  502  0.00000000000E+00  0.00000000000E+00  0.62120964545E+03  0.62120964545E+03  0.00000000000E+00 0.  1.
         21   -1    0    0  502  503 -0.00000000000E+00 -0.00000000000E+00 -0.49350863456E+02  0.49350863456E+02  0.00000000000E+00 0.  1.
         -6    2    1    2    0  503  0.45217205990E+01  0.91503856959E+01  0.24252568082E+03  0.29865654442E+03  0.17399094848E+03 0.  0.
        -24    2    3    3    0    0 -0.61397839267E+02  0.30748767724E+02  0.15058121164E+03  0.18338402431E+03  0.78992516684E+02 0.  0.
          6    2    1    2  501    0 -0.45217205990E+01 -0.91503856959E+01  0.32933310117E+03  0.37190396448E+03  0.17247635129E+03 0.  0.
         24    2    5    5    0    0 -0.58252015719E+02 -0.16409304702E+02  0.12896621448E+03  0.16427782016E+03  0.81806815767E+02 0.  0.
          5    1    5    5  501    0  0.53730295120E+02  0.72589190061E+01  0.20036688670E+03  0.20762614432E+03  0.47000000000E+01 0. -1.
        -11    1    6    6    0    0 -0.40704662692E+02  0.26629750401E+02  0.36588698804E+02  0.60866625103E+02  0.00000000000E+00 0.  1.
         12    1    6    6    0    0 -0.17547353027E+02 -0.43039055103E+02  0.92377515672E+02  0.10341119506E+03  0.00000000000E+00 0. -1.
         -5    1    3    3    0  503  0.65919559866E+02 -0.21598382028E+02  0.91944469182E+02  0.11527252011E+03  0.47000000000E+01 0.  1.
         11    1    4    4    0    0 -0.69690012814E+02  0.21951861852E+02  0.15430898267E+03  0.17073325469E+03  0.00000000000E+00 0. -1.
        -12    1    4    4    0    0  0.82921735468E+01  0.87969058719E+01 -0.37277710367E+01  0.12650769619E+02  0.00000000000E+00 0.  1.
</event>
<event>
12    1  0.8747122E-002  0.2609300E+03  0.7818608E-02  0.1106643E+00
         21   -1    0    0  503  502  0.00000000000E+00  0.00000000000E+00  0.15814417279E+04  0.15814417279E+04  0.00000000000E+00 0. -1.
         21   -1    0    0  501  503 -0.00000000000E+00 -0.00000000000E+00 -0.44529656095E+02  0.44529656095E+02  0.00000000000E+00 0. -1.
          6    2    1    2  501    0  0.18907771755E+02 -0.19534268679E+03  0.92021715025E+03  0.95649571160E+03  0.17195398677E+03 0.  0.
         24    2    3    3    0    0 -0.36122710669E+02 -0.10346476301E+03  0.33688377496E+03  0.36339384547E+03  0.80960494577E+02 0.  0.
         -6    2    1    2    0  502 -0.18907771755E+02  0.19534268679E+03  0.61669492156E+03  0.66947567241E+03  0.17137322006E+03 0.  0.
        -24    2    5    5    0    0  0.22657047931E+02  0.42688628754E+02  0.14136962438E+03  0.16848952109E+03  0.77895360417E+02 0.  0.
          5    1    3    3  501    0  0.55030482424E+02 -0.91877923783E+02  0.58333337529E+03  0.59310186613E+03  0.47000000000E+01 0. -1.
        -11    1    4    4    0    0 -0.95026110626E+01 -0.13197716191E+02  0.17791423236E+03  0.17865596381E+03  0.00000000000E+00 0.  1.
         12    1    4    4    0    0 -0.26620099606E+02 -0.90267046815E+02  0.15896954260E+03  0.18473788166E+03  0.00000000000E+00 0. -1.
         -5    1    5    5    0  502 -0.41564819686E+02  0.15265405804E+03  0.47532529718E+03  0.50098615132E+03  0.47000000000E+01 0.  1.
         11    1    6    6    0    0 -0.70116715830E+01  0.57041775621E+02  0.10263948924E+03  0.11763414664E+03  0.00000000000E+00 0. -1.
        -12    1    6    6    0    0  0.29668719514E+02 -0.14353146867E+02  0.38730135135E+02  0.50855374447E+02  0.00000000000E+00 0.  1.
</event>
<event>
12    1  0.8747122E-002  0.1775392E+03  0.7818608E-02  0.1170342E+00
         21   -1    0    0  503  502  0.00000000000E+00  0.00000000000E+00  0.10903875979E+04  0.10903875979E+04  0.00000000000E+00 0.  1.
         21   -1    0    0  501  503 -0.00000000000E+00 -0.00000000000E+00 -0.28818106719E+02  0.28818106719E+02  0.00000000000E+00 0.  1.
          6    2    1    2  501    0  0.25089075032E+02  0.37320970728E+02  0.53394080166E+03  0.56268371170E+03  0.17174941978E+03 0.  0.
         24    2    3    3    0    0  0.71168800261E+02  0.49580601977E+02  0.45904618006E+03  0.47377401605E+03  0.78836467686E+02 0.  0.
         -6    2    1    2    0  502 -0.25089075032E+02 -0.37320970728E+02  0.52762868948E+03  0.55652199287E+03  0.17117937391E+03 0.  0.
        -24    2    5    5    0    0 -0.20759543230E+02 -0.24493140390E+02  0.53397884649E+03  0.54084677131E+03  0.79692841445E+02 0.  0.
          5    1    3    3  501    0 -0.46079725229E+02 -0.12259631249E+02  0.74894621606E+02  0.88909695653E+02  0.47000000000E+01 0. -1.
        -11    1    4    4    0    0 -0.13006494361E+02  0.15041922907E+02  0.15892355210E+03  0.16016280389E+03  0.00000000000E+00 0.  1.
         12    1    4    4    0    0  0.84175294622E+02  0.34538679070E+02  0.30012262796E+03  0.31361121216E+03  0.00000000000E+00 0. -1.
         -5    1    5    5    0  502 -0.43295318017E+01 -0.12827830338E+02 -0.63501570172E+01  0.15675221560E+02  0.47000000000E+01 0.  1.
         11    1    6    6    0    0 -0.42178460554E+01  0.28880538503E+02  0.22098620278E+03  0.22290531072E+03  0.00000000000E+00 0. -1.
        -12    1    6    6    0    0 -0.16541697175E+02 -0.53373678893E+02  0.31299264372E+03  0.31794146059E+03  0.00000000000E+00 0.  1.
</event>
<event>
12    1  0.8747122E-002  0.2917824E+03  0.7818608E-02  0.1089879E+00
         21   -1    0    0  501  502  0.00000000000E+00  0.00000000000E+00  0.27277665266E+03  0.27277665266E+03  0.00000000000E+00 0. -1.
         21   -1    0    0  502  503 -0.00000000000E+00 -0.00000000000E+00 -0.31661646058E+03  0.31661646058E+03  0.00000000000E+00 0.  1.
         -6    2    1    2    0  503 -0.19594548802E+03  0.12331569998E+03 -0.69589230128E+02  0.29996605581E+03  0.17758259361E+03 0.  0.
        -24    2    3    3    0    0 -0.12865627987E+03  0.14847940110E+03 -0.21671371758E+02  0.21348333766E+03  0.80665458559E+02 0.  0.
          6    2    1    2  501    0  0.19594548802E+03 -0.12331569998E+03  0.25749422207E+02  0.28942705744E+03  0.17176609880E+03 0.  0.
         24    2    5    5    0    0  0.13096106565E+03 -0.15024227705E+03  0.38221082707E+02  0.21783342630E+03  0.79164435961E+02 0.  0.
          5    1    5    5  501    0  0.64984422368E+02  0.26926577077E+02 -0.12471660500E+02  0.71593631136E+02  0.47000000000E+01 0. -1.
        -11    1    6    6    0    0  0.99249067688E+02 -0.63422377039E+02 -0.77580269266E-01  0.11778277194E+03  0.00000000000E+00 0.  1.
         12    1    6    6    0    0  0.31711997959E+02 -0.86819900015E+02  0.38298662976E+02  0.10005065436E+03  0.00000000000E+00 0. -1.
         -5    1    3    3    0  503 -0.67289208150E+02 -0.25163701126E+02 -0.47917858371E+02  0.86482718150E+02  0.47000000000E+01 0.  1.
         11    1    4    4    0    0 -0.11653175909E+03  0.79528911068E+02 -0.25504585926E+02  0.14337008919E+03  0.00000000000E+00 0. -1.
        -12    1    4    4    0    0 -0.12124520779E+02  0.68950490034E+02  0.38332141686E+01  0.70113248470E+02  0.00000000000E+00 0.  1.
</event>
<event>
12    1  0.8747122E-002  0.1984300E+03  0.7818608E-02  0.1151098E+00
         21   -1    0    0  501  502  0.00000000000E+00  0.00000000000E+00  0.17437904890E+04  0.17437904890E+04  0.00000000000E+00 0.  1.
         21   -1    0    0  502  503 -0.00000000000E+00 -0.00000000000E+00 -0.36040493353E+02  0.36040493353E+02  0.00000000000E+00 0.  1.
         -6    2    1    2    0  503  0.93482753028E+02  0.31820677932E+02  0.30953896179E+03  0.36760983781E+03  0.17196233116E+03 0.  0.
        -24    2    3    3    0    0  0.88410270694E+02  0.34230269853E+01  0.31599882782E+03  0.33767697084E+03  0.79639088224E+02 0.  0.
          6    2    1    2  501    0 -0.93482753028E+02 -0.31820677932E+02  0.13982110339E+04  0.14122211446E+04  0.17211300129E+03 0.  0.
         24    2    5    5    0    0 -0.41207612881E+02  0.51084840864E+02  0.71989421949E+03  0.72684401771E+03  0.75807720569E+02 0.  0.
          5    1    5    5  501    0 -0.52275140146E+02 -0.82905518795E+02  0.67831681442E+03  0.68537712688E+03  0.47000000000E+01 0. -1.
        -13    1    6    6    0    0  0.20890480483E+02  0.11020392423E+02  0.25756987919E+03  0.25865054396E+03  0.00000000000E+00 0.  1.
         14    1    6    6    0    0 -0.62098093364E+02  0.40064448441E+02  0.46232434030E+03  0.46819347375E+03  0.00000000000E+00 0. -1.
         -5    1    3    3    0  503  0.50724823335E+01  0.28397650946E+02 -0.64598660327E+01  0.29932866977E+02  0.47000000000E+01 0.  1.
         11    1    4    4    0    0  0.56594504683E+02  0.40379521476E+02  0.20403274561E+03  0.21555232543E+03  0.00000000000E+00 0. -1.
        -12    1    4    4    0    0  0.31815766012E+02 -0.36956494491E+02  0.11196608221E+03  0.12212464541E+03  0.00000000000E+00 0.  1.
</event>
<event>
12    1  0.8747122E-002  0.1779488E+03  0.7818608E-02  0.1169985E+00
         21   -1    0    0  503  502  0.00000000000E+00  0.00000000000E+00  0.15265556689E+04  0.15265556689E+04  0.00000000000E+00 0.  1.
         21   -1    0    0  501  503 -0.00000000000E+00 -0.00000000000E+00 -0.97811438970E+02  0.97811438970E+02  0.00000000000E+00 0.  1.
          6    2    1    2  501    0  0.40523842862E+02 -0.82781651440E+01 -0.66524826057E+01  0.17807311993E+03  0.17307533232E+03 0.  0.
         24    2    3    3    0    0  0.32633681019E+02 -0.16654642534E+02 -0.70165393829E+02  0.11335527139E+03  0.81141239855E+02 0.  0.
         -6    2    1    2    0  502 -0.40523842862E+02  0.82781651440E+01  0.14353967125E+04  0.14462939879E+04  0.17231328257E+03 0.  0.
        -24    2    5    5    0    0 -0.72005807138E+02 -0.30284697232E+02  0.12570811056E+04  0.12611001594E+04  0.63393272555E+02 0.  0.
          5    1    3    3  501    0  0.78901618434E+01  0.83764773904E+01  0.63512911224E+02  0.64717848539E+02  0.47000000000E+01 0. -1.
        -13    1    4    4    0    0  0.46667692716E+02  0.18003876111E+02 -0.29323396926E+02  0.57981675603E+02  0.00000000000E+00 0.  1.
         14    1    4    4    0    0 -0.14034011697E+02 -0.34658518645E+02 -0.40841996904E+02  0.55373595784E+02  0.00000000000E+00 0. -1.
         -5    1    5    5    0  502  0.31481964277E+02  0.38562862376E+02  0.17831560694E+03  0.18519382848E+03  0.47000000000E+01 0.  1.
         11    1    6    6    0    0 -0.76687484345E+02 -0.72575395713E+01  0.94237431236E+03  0.94551731170E+03  0.00000000000E+00 0. -1.
        -12    1    6    6    0    0  0.46816772064E+01 -0.23027157661E+02  0.31470679322E+03  0.31558284774E+03  0.00000000000E+00 0.  1.
</event>
<event>
12    1  0.8747122E-002  0.2455698E+03  0.7818608E-02  0.1117653E+00
         21   -1    0    0  503  502  0.00000000000E+00  0.00000000000E+00  0.33565591989E+03  0.33565591989E+03  0.00000000000E+00 0.  1.
         21   -1    0    0  501  503 -0.00000000000E+00 -0.00000000000E+00 -0.17342221920E+03  0.17342221920E+03  0.00000000000E+00 0.  1.
          6    2    1    2  501    0  0.15830724859E+03  0.29569207515E+02  0.70168839074E+02  0.25539808833E+03  0.18538876599E+03 0.  0.
         24    2    3    3    0    0  0.17243372497E+03  0.24606826375E+02  0.81142964812E+01  0.19138997308E+03  0.78901169674E+02 0.  0.
         -6    2    1    2    0  502 -0.15830724859E+03 -0.29569207515E+02  0.92064861620E+02  0.25368005077E+03  0.17303787569E+03 0.  0.
        -24    2    5    5    0    0 -0.48881323912E+02 -0.69978286740E+02  0.68226368143E+02  0.13452766746E+03  0.78463440919E+02 0.  0.
          5    1    3    3  501    0 -0.14126476383E+02  0.49623811394E+01  0.62054542593E+02  0.64008115251E+02  0.47000000000E+01 0. -1.
        -13    1    4    4    0    0  0.38525590738E+02  0.20614182392E+02 -0.28919773672E+02  0.52397700013E+02  0.00000000000E+00 0.  1.
         14    1    4    4    0    0  0.13390813423E+03  0.39926439838E+01  0.37034070154E+02  0.13899227307E+03  0.00000000000E+00 0. -1.
         -5    1    5    5    0  502 -0.10942592468E+03  0.40409079225E+02  0.23838493477E+02  0.11915238330E+03  0.47000000000E+01 0.  1.
         11    1    6    6    0    0 -0.52013751738E+02 -0.51160041370E+02  0.10473240002E+02  0.73705284471E+02  0.00000000000E+00 0. -1.
        -12    1    6    6    0    0  0.31324278261E+01 -0.18818245370E+02  0.57753128141E+02  0.60822382993E+02  0.00000000000E+00 0.  1.
</event>
<event>
12    1  0.8747122E-002  0.1764708E+03  0.7818608E-02  0.1171696E+00
         21   -1    0    0  501  502  0.00000000000E+00  0.00000000000E+00  0.23457791794E+03  0.23457791794E+03  0.00000000000E+00 0. -1.
         21   -1    0    0  502  503 -0.00000000000E+00 -0.00000000000E+00 -0.13153358881E+03  0.13153358881E+03  0.00000000000E+00 0. -1.
         -6    2    1    2    0  503 -0.33036405724E+02  0.15655432493E+01  0.55751753360E+02  0.18341360891E+03  0.17157633550E+03 0.  0.
        -24    2    3    3    0    0 -0.25971017963E+02  0.62631617579E+02  0.61816628292E+02  0.12146316222E+03  0.79591399959E+02 0.  0.
          6    2    1    2  501    0  0.33036405724E+02 -0.15655432493E+01  0.47292575773E+02  0.18269789784E+03  0.17334381766E+03 0.  0.
         24    2    5    5    0    0  0.80087692148E+02  0.26464452928E+02  0.11369993721E+02  0.11703187815E+03  0.80329185511E+02 0.  0.
          5    1    5    5  501    0 -0.47051286424E+02 -0.28029996177E+02  0.35922582052E+02  0.65666019683E+02  0.47000000000E+01 0. -1.
        -13    1    6    6    0    0  0.49679435612E+02 -0.20693860513E+02  0.24920279250E+02  0.59306850393E+02  0.00000000000E+00 0.  1.
         14    1    6    6    0    0  0.30408256536E+02  0.47158313441E+02 -0.13550285529E+02  0.57725027761E+02  0.00000000000E+00 0. -1.
         -5    1    3    3    0  503 -0.70653877611E+01 -0.61066074329E+02 -0.60648749321E+01  0.61950446699E+02  0.47000000000E+01 0.  1.
         11    1    4    4    0    0 -0.41575093711E+01  0.13722706165E+02 -0.19434165840E+02  0.24151280516E+02  0.00000000000E+00 0. -1.
        -12    1    4    4    0    0 -0.21813508592E+02  0.48908911414E+02  0.81250794132E+02  0.97311881700E+02  0.00000000000E+00 0.  1.
</event>
<event>
12    1  0.8747122E-002  0.2543322E+03  0.7818608E-02  0.1110613E+00
         21   -1    0    0  503  502  0.00000000000E+00  0.00000000000E+00  0.54005530729E+03  0.54005530729E+03  0.00000000000E+00 0. -1.
         21   -1    0    0  501  503 -0.00000000000E+00 -0.00000000000E+00 -0.11987774280E+03  0.11987774280E+03  0.00000000000E+00 0. -1.
          6    2    1    2  501    0 -0.16034390925E+03  0.96942860038E+02  0.19831786635E+03  0.32243252613E+03  0.17182744381E+03 0.  0.
         24    2    3    3    0    0 -0.79999168357E+02  0.15434076610E+02  0.26678275932E+02  0.11608040435E+03  0.78261434997E+02 0.  0.
         -6    2    1    2    0  502  0.16034390925E+03 -0.96942860038E+02  0.22185969814E+03  0.33750052396E+03  0.17197904137E+03 0.  0.
        -24    2    5    5    0    0  0.32722083215E+02 -0.16434102659E+02  0.13114540193E+03  0.16137510265E+03  0.86614045327E+02 0.  0.
          5    1    3    3  501    0 -0.80344740895E+02  0.81508783428E+02  0.17163959042E+03  0.20635212178E+03  0.47000000000E+01 0. -1.
        -13    1    4    4    0    0 -0.21315223941E+02 -0.21212578407E+02  0.35284474982E+02  0.46360612907E+02  0.00000000000E+00 0.  1.
         14    1    4    4    0    0 -0.58683944416E+02  0.36646655017E+02 -0.86061990505E+01  0.69719791439E+02  0.00000000000E+00 0. -1.
         -5    1    5    5    0  502  0.12762182604E+03 -0.80508757379E+02  0.90714296204E+02  0.17612542131E+03  0.47000000000E+01 0.  1.
         13    1    6    6    0    0  0.52763535379E+02 -0.35184430331E+02  0.10901181059E+03  0.12611704742E+03  0.00000000000E+00 0. -1.
        -14    1    6    6    0    0 -0.20041452164E+02  0.18750327672E+02  0.22133591345E+02  0.35258055228E+02  0.00000000000E+00 0.  1.
</event>
<event>
12    1  0.8747122E-002  0.2342712E+03  0.7818608E-02  0.1124018E+00
         21   -1    0    0  501  502  0.00000000000E+00  0.00000000000E+00  0.11068843182E+03  0.11068843182E+03  0.00000000000E+00 0. -1.
         21   -1    0    0  502  503 -0.00000000000E+00 -0.00000000000E+00 -0.63873128154E+03  0.63873128154E+03  0.00000000000E+00 0. -1.
         -6    2    1    2    0  503 -0.15654441010E+03  0.24227778606E+01 -0.44475955329E+03  0.50268682965E+03  0.17427267795E+03 0.  0.
        -24    2    3    3    0    0 -0.94364369894E+02 -0.67109598177E+02 -0.25154787009E+03  0.28808498147E+03  0.79424763970E+02 0.  0.
          6    2    1    2  501    0  0.15654441010E+03 -0.24227778606E+01 -0.83283296432E+02  0.24673288371E+03  0.17154878680E+03 0.  0.
         24    2    5    5    0    0  0.18542786722E+03 -0.55566740352E+01 -0.80159784346E+02  0.21713690884E+03  0.79425912581E+02 0.  0.
          5    1    5    5  501    0 -0.28883457120E+02  0.31338961746E+01 -0.31235120865E+01  0.29595974864E+02  0.47000000000E+01 0. -1.
        -11    1    6    6    0    0  0.13434946361E+03 -0.37827015263E+02 -0.68996940372E+02  0.15569598337E+03  0.00000000000E+00 0.  1.
         12    1    6    6    0    0  0.51078403607E+02  0.32270341228E+02 -0.11162843974E+02  0.61440925478E+02  0.00000000000E+00 0. -1.
         -5    1    3    3    0  503 -0.62180040202E+02  0.69532376037E+02 -0.19321168320E+03  0.21460184818E+03  0.47000000000E+01 0.  1.
         13    1    4    4    0    0  0.13166710673E+02 -0.77100416575E+01 -0.14265269111E+02  0.20887913134E+02  0.00000000000E+00 0. -1.
        -14    1    4    4    0    0 -0.10753108057E+03 -0.59399556519E+02 -0.23728260098E+03  0.26719706834E+03  0.00000000000E+00 0.  1.
</event>
<event>
12    1  0.8747122E-002  0.2404490E+03  0.7818608E-02  0.1119649E+00
         21   -1    0    0  503  502  0.00000000000E+00  0.00000000000E+00  0.57923277938E+02  0.57923277938E+02  0.00000000000E+00 0. -1.
         21   -1    0    0  501  503 -0.00000000000E+00 -0.00000000000E+00 -0.99432564040E+03  0.99432564040E+03  0.00000000000E+00 0.  1.
          6    2    1    2  501    0 -0.51327921351E+02  0.15867473156E+03 -0.46359478798E+03  0.52181255434E+03  0.17191855188E+03 0.  0.
         24    2    3    3    0    0 -0.77787924894E+02  0.14593458905E+03 -0.26417000364E+03  0.32018225496E+03  0.73369067234E+02 0.  0.
         -6    2    1    2    0  502  0.51327921351E+02 -0.15867473156E+03 -0.47280757448E+03  0.53043636400E+03  0.17321520666E+03 0.  0.
        -24    2    5    5    0    0  0.71637137599E+02 -0.12724442233E+03 -0.46375230332E+03  0.49164955517E+03  0.73007285728E+02 0.  0.
          5    1    3    3  501    0  0.26460003543E+02  0.12740142505E+02 -0.19942478435E+03  0.20163029939E+03  0.47000000000E+01 0. -1.
        -11    1    4    4    0    0 -0.62145133926E+02  0.52380969195E+02 -0.85949899171E+02  0.11829272493E+03  0.00000000000E+00 0.  1.
         12    1    4    4    0    0 -0.15642790968E+02  0.93553619859E+02 -0.17822010446E+03  0.20188953002E+03  0.00000000000E+00 0. -1.
         -5    1    5    5    0  502 -0.20309216248E+02 -0.31430309230E+02 -0.90552711593E+01  0.38786808823E+02  0.47000000000E+01 0.  1.
         13    1    6    6    0    0  0.96981126500E+01 -0.19296159786E+02 -0.18648221771E+03  0.18772856121E+03  0.00000000000E+00 0. -1.
        -14    1    6    6    0    0  0.61939024949E+02 -0.10794826254E+03 -0.27727008561E+03  0.30392099397E+03  0.00000000000E+00 0.  1.
</event>
<event>
12    1  0.8747122E-002  0.1876486E+03  0.7818608E-02  0.1161311E+00
         21   -1    0    0  501  502  0.00000000000E+00  0.00000000000E+00  0.35350759876E+03  0.35350759876E+03  0.00000000000E+00 0. -1.
         21   -1    0    0  502  503 -0.00000000000E+00 -0.00000000000E+00 -0.15075145453E+03  0.15075145453E+03  0.00000000000E+00 0. -1.
         -6    2    1    2    0  503 -0.40732418195E+02  0.49780810108E+02 -0.48335668068E+02  0.19079597290E+03  0.17300146681E+03 0.  0.
        -24    2    3    3    0    0 -0.54374254444E+02 -0.30861249224E+02 -0.17499173171E+02  0.10326186042E+03  0.80298284573E+02 0.  0.
          6    2    1    2  501    0  0.40732418195E+02 -0.49780810108E+02  0.25109181230E+03  0.31346308039E+03  0.17628030411E+03 0.  0.
         24    2    5    5    0    0 -0.21787530390E+02  0.26506395706E+02  0.13454526160E+03  0.16070945450E+03  0.80918575458E+02 0.  0.
          5    1    5    5  501    0  0.62519948585E+02 -0.76287205814E+02  0.11654655070E+03  0.15275362589E+03  0.47000000000E+01 0. -1.
        -13    1    6    6    0    0 -0.49547842414E+02  0.19424677418E+01  0.90025733545E+02  0.10277837598E+03  0.00000000000E+00 0.  1.
         14    1    6    6    0    0  0.27760312023E+02  0.24563927964E+02  0.44519528054E+02  0.57931078522E+02  0.00000000000E+00 0. -1.
         -5    1    3    3    0  503  0.13641836249E+02  0.80642059332E+02 -0.30836494897E+02  0.87534112477E+02  0.47000000000E+01 0.  1.
         13    1    4    4    0    0 -0.31461863231E+02  0.17577346838E+02  0.16672666904E+02  0.39708812391E+02  0.00000000000E+00 0. -1.
        -14    1    4    4    0    0 -0.22912391213E+02 -0.48438596062E+02 -0.34171840074E+02  0.63553048028E+02  0.00000000000E+00 0.  1.
</event>
<event>
12    1  0.8747122E-002  0.1865938E+03  0.7818608E-02  0.1161865E+00
         21   -1    0    0  501  502  0.00000000000E+00  0.00000000000E+00  0.82756783523E+03  0.82756783523E+03  0.00000000000E+00 0. -1.
         21   -1    0    0  502  503 -0.00000000000E+00 -0.00000000000E+00 -0.45260001577E+02  0.45260001577E+02  0.00000000000E+00 0. -1.
         -6    2    1    2    0  503  0.65019418349E+02  0.27181845604E+02  0.26899127151E+03  0.32664916799E+03  0.17139719166E+03 0.  0.
        -24    2    3    3    0    0 -0.29676562454E+00  0.51846654321E+02  0.22067661237E+03  0.24161415776E+03  0.83612620749E+02 0.  0.
          6    2    1    2  501    0 -0.65019418349E+02 -0.27181845604E+02  0.51331656215E+03  0.54617866882E+03  0.17277403683E+03 0.  0.
         24    2    5    5    0    0 -0.86894487651E+02 -0.67329930294E+02  0.32486439688E+03  0.35220264979E+03  0.80161453738E+02 0.  0.
          5    1    5    5  501    0  0.21875069303E+02  0.40148084690E+02  0.18845216527E+03  0.19397601902E+03  0.47000000000E+01 0. -1.
        -11    1    6    6    0    0 -0.14716765372E+02 -0.61920191168E+02  0.15541498106E+03  0.16794198282E+03  0.00000000000E+00 0.  1.
         12    1    6    6    0    0 -0.72177722279E+02 -0.54097391257E+01  0.16944941582E+03  0.18426066697E+03  0.00000000000E+00 0. -1.
         -5    1    3    3    0  503  0.65316183973E+02 -0.24664808718E+02  0.48314659143E+02  0.85035010237E+02  0.47000000000E+01 0.  1.
         11    1    4    4    0    0  0.14674685044E+02 -0.86933860214E+01  0.60292214257E+01  0.18090684140E+02  0.00000000000E+00 0. -1.
        -12    1    4    4    0    0 -0.14971450668E+02  0.60540040343E+02  0.21464739094E+03  0.22352347362E+03  0.00000000000E+00 0.  1.
</event>
<event>
12    1  0.8747122E-002  0.1957889E+03  0.7818608E-02  0.1153993E+00
         21   -1    0    0  503  502  0.00000000000E+00  0.00000000000E+00  0.68758409115E+02  0.68758409115E+02  0.00000000000E+00 0.  1.
         21   -1    0    0  501  503 -0.00000000000E+00 -0.00000000000E+00 -0.55100028500E+03  0.55100028500E+03  0.00000000000E+00 0.  1.
          6    2    1    2  501    0 -0.86878133040E+02  0.13299542750E+02 -0.22083031103E+03  0.29315601195E+03  0.17160924577E+03 0.  0.
         24    2    3    3    0    0 -0.13680755979E+02  0.86511261358E+01 -0.20049310237E+03  0.21689884283E+03  0.81151825958E+02 0.  0.
         -6    2    1    2    0  502  0.86878133040E+02 -0.13299542750E+02 -0.26141156486E+03  0.32660268217E+03  0.17495318780E+03 0.  0.
        -24    2    5    5    0    0 -0.84568119031E+01 -0.27380589746E+02 -0.62038543149E+02  0.10511065207E+03  0.79863971728E+02 0.  0.
          5    1    3    3  501    0 -0.73197377061E+02  0.46484166142E+01 -0.20337208661E+02  0.76257169118E+02  0.47000000000E+01 0. -1.
        -13    1    4    4    0    0 -0.40296769388E+02 -0.48061119769E+01 -0.16783399289E+03  0.17267071989E+03  0.00000000000E+00 0.  1.
         14    1    4    4    0    0  0.26616013409E+02  0.13457238113E+02 -0.32659109473E+02  0.44228122942E+02  0.00000000000E+00 0. -1.
         -5    1    5    5    0  502  0.95334944943E+02  0.14081046996E+02 -0.19937302171E+03  0.22149203010E+03  0.47000000000E+01 0.  1.
         11    1    6    6    0    0  0.87095946081E+00  0.52371191424E+01 -0.70051132199E+02  0.70252025662E+02  0.00000000000E+00 0. -1.
        -12    1    6    6    0    0 -0.93277713639E+01 -0.32617708889E+02  0.80125890501E+01  0.34858626408E+02  0.00000000000E+00 0.  1.
</event>
<event>
12    1  0.8747122E-002  0.1968578E+03  0.7818608E-02  0.1152731E+00
         21   -1    0    0  501  502  0.00000000000E+00  0.00000000000E+00  0.13026382550E+03  0.13026382550E+03  0.00000000000E+00 0.  1.
         21   -1    0    0  502  503 -0.00000000000E+00 -0.00000000000E+00 -0.46241087829E+03  0.46241087829E+03  0.00000000000E+00 0.  1.
         -6    2    1    2    0  503  0.22484939881E+02 -0.92942852957E+02 -0.34382059141E+03  0.39547108051E+03  0.17041370251E+03 0.  0.
        -24    2    3    3    0    0  0.48854370138E+02  0.34898200260E+01 -0.17849293836E+03  0.20220978037E+03  0.81425658762E+02 0.  0.
          6    2    1    2  501    0 -0.22484939881E+02  0.92942852957E+02  0.11673538629E+02  0.19720362328E+03  0.17207280754E+03 0.  0.
         24    2    5    5    0    0  0.21858955095E+01  0.67924955047E+02  0.71663912626E+02  0.12752234669E+03  0.80670037038E+02 0.  0.
          5    1    5    5  501    0 -0.24670835390E+02  0.25017897910E+02 -0.59990373997E+02  0.69681276588E+02  0.47000000000E+01 0. -1.
        -11    1    6    6    0    0 -0.34049641017E+02  0.81083469151E+01  0.30123844048E+02  0.46179750143E+02  0.00000000000E+00 0.  1.
         12    1    6    6    0    0  0.36235536527E+02  0.59816608132E+02  0.41540068579E+02  0.81342596549E+02  0.00000000000E+00 0. -1.
         -5    1    3    3    0  503 -0.26369430257E+02 -0.96432672983E+02 -0.16532765305E+03  0.19326130014E+03  0.47000000000E+01 0.  1.
         13    1    4    4    0    0  0.48617294523E+02 -0.19495157325E+02 -0.16969849322E+03  0.17759865170E+03  0.00000000000E+00 0. -1.
        -14    1    4    4    0    0  0.23707561504E+00  0.22984977351E+02 -0.87944451447E+01  0.24611128664E+02  0.00000000000E+00 0.  1.
</event>
<event>
12    1  0.8747122E-002  0.1839665E+03  0.7818608E-02  0.1164396E+00
         21   -1    0    0  501  502  0.00000000000E+00  0.00000000000E+00  0.16189067973E+03  0.16189067973E+03  0.00000000000E+00 0. -1.
         21   -1    0    0  502  503 -0.00000000000E+00 -0.00000000000E+00 -0.21656382236E+03  0.21656382236E+03  0.00000000000E+00 0. -1.
         -6    2    1    2    0  503  0.47292707322E+02  0.40892976198E+02 -0.66485362364E+02  0.19410918968E+03  0.17131619434E+03 0.  0.
        -24    2    3    3    0    0  0.74622800076E+00 -0.38598263345E+02 -0.21111247016E+02  0.91316523381E+02  0.80016497688E+02 0.  0.
          6    2    1    2  501    0 -0.47292707322E+02 -0.40892976198E+02  0.11812219736E+02  0.18434531240E+03  0.17301684889E+03 0.  0.
         24    2    5    5    0    0  0.28451806971E+02  0.42373311780E+01 -0.25555570453E+02  0.88468214861E+02  0.79662271899E+02 0.  0.
          5    1    5    5  501    0 -0.75744514293E+02 -0.45130307376E+02  0.37367790190E+02  0.95877097541E+02  0.47000000000E+01 0. -1.
        -11    1    6    6    0    0  0.53749939803E+02 -0.11121664631E+02 -0.13593860765E+02  0.56546799233E+02  0.00000000000E+00 0.  1.
         12    1    6    6    0    0 -0.25298132832E+02  0.15358995809E+02 -0.11961709689E+02  0.31921415629E+02  0.00000000000E+00 0. -1.
         -5    1    3    3    0  503  0.46546479321E+02  0.79491239544E+02 -0.45374115348E+02  0.10279266630E+03  0.47000000000E+01 0.  1.
         11    1    4    4    0    0  0.16026310490E+02 -0.27110829174E+02 -0.48553059864E+02  0.57872612768E+02  0.00000000000E+00 0. -1.
        -12    1    4    4    0    0 -0.15280082489E+02 -0.11487434171E+02  0.27441812848E+02  0.33443910613E+02  0.00000000000E+00 0.  1.
</event>
<event>
12    1  0.8747122E-002  0.1774248E+03  0.7818608E-02  0.1171121E+00
         21   -1    0    0  501  502  0.00000000000E+00  0.00000000000E+00  0.56868445729E+02  0.56868445729E+02  0.00000000000E+00 0. -1.
         21   -1    0    0  502  503 -0.00000000000E+00 -0.00000000000E+00 -0.59895064892E+03  0.59895064892E+03  0.00000000000E+00 0. -1.
         -6    2    1    2    0  503  0.16172316189E+02 -0.40357793140E+02 -0.17356515969E+03  0.24820237792E+03  0.17201529138E+03 0.  0.
        -24    2    3    3    0    0  0.70865319993E+01  0.41101984526E+02 -0.73462798759E+02  0.11873879418E+03  0.83441754379E+02 0.  0.
          6    2    1    2  501    0 -0.16172316189E+02  0.40357793140E+02 -0.36851704350E+03  0.40761671673E+03  0.16868989634E+03 0.  0.
         24    2    5    5    0    0 -0.47633298556E+02  0.23660227941E+02 -0.10600262968E+03  0.14265538076E+03  0.79279648348E+02 0.  0.
          5    1    5    5  501    0  0.31460982367E+02  0.16697565199E+02 -0.26251441382E+03  0.26496133597E+03  0.47000000000E+01 0. -1.
        -13    1    6    6    0    0 -0.11058115802E+02  0.30682521843E+02 -0.99679185199E+02  0.10487916396E+03  0.00000000000E+00 0.  1.
         14    1    6    6    0    0 -0.36575182754E+02 -0.70222939020E+01 -0.63234444826E+01  0.37776216794E+02  0.00000000000E+00 0. -1.
         -5    1    3    3    0  503  0.90857841892E+01 -0.81459777666E+02 -0.10010236093E+03  0.12946358374E+03  0.47000000000E+01 0.  1.
         13    1    4    4    0    0  0.31883694809E+02 -0.81557607176E+00 -0.16089704811E+01  0.31934682479E+02  0.00000000000E+00 0. -1.
        -14    1    4    4    0    0 -0.24797162810E+02  0.41917560598E+02 -0.71853828278E+02  0.86804111700E+02  0.00000000000E+00 0.  1.
</event>
<event>
12    1  0.8747122E-002  0.2247056E+03  0.7818608E-02  0.1130457E+00
         21   -1    0    0  501  502  0.00000000000E+00  0.00000000000E+00  0.12346411138E+04  0.12346411138E+04  0.00000000000E+00 0.  1.
         21   -1    0    0  502  503 -0.00000000000E+00 -0.00000000000E+00 -0.14776543830E+03  0.14776543830E+03  0.00000000000E+00 0.  1.
         -6    2    1    2    0  503  0.95488386768E+02  0.10844960584E+03 -0.44540313396E+02  0.22889245640E+03  0.17183878511E+03 0.  0.
        -24    2    3    3    0    0  0.29953597523E+02  0.27890742170E+02  0.35884877679E+02  0.97458668982E+02  0.80841550024E+02 0.  0.
          6    2    1    2  501    0 -0.95488386768E+02 -0.10844960584E+03  0.11314159889E+04  0.11535140957E+04  0.17208509534E+03 0.  0.
         24    2    5    5    0    0 -0.11402291010E+03 -0.12835216948E+03  0.84810028628E+03  0.86885725327E+03  0.78506862967E+02 0.  0.
          5    1    5    5  501    0  0.18534523336E+02  0.19902563637E+02  0.28331570264E+03  0.28465684246E+03  0.47000000000E+01 0. -1.
        -11    1    6    6    0    0 -0.13893940807E+02 -0.66175438117E+02  0.39112821120E+03  0.39693010442E+03  0.00000000000E+00 0.  1.
         12    1    6    6    0    0 -0.10012896930E+03 -0.62176731358E+02  0.45697207508E+03  0.47192714885E+03  0.00000000000E+00 0. -1.
         -5    1    3    3    0  503  0.65534789245E+02  0.80558863668E+02 -0.80425191074E+02  0.13143378742E+03  0.47000000000E+01 0.  1.
         13    1    4    4    0    0 -0.88722837237E+01 -0.19739739237E+02  0.28173937498E+02  0.35526686839E+02  0.00000000000E+00 0. -1.
        -14    1    4    4    0    0  0.38825881246E+02  0.47630481407E+02  0.77109401803E+01  0.61931982142E+02  0.00000000000E+00 0.  1.
</event>
<event>
12    1  0.8747122E-002  0.2261814E+03  0.7818608E-02  0.1129399E+00
         21   -1    0    0  503  502  0.00000000000E+00  0.00000000000E+00  0.28737205454E+03  0.28737205454E+03  0.00000000000E+00 0.  1.
         21   -1    0    0  501  503 -0.00000000000E+00 -0.00000000000E+00 -0.40170973349E+03  0.40170973349E+03  0.00000000000E+00 0. -1.
          6    2    1    2  501    0  0.42523816682E+02  0.14005569459E+03 -0.31439130079E+03  0.38729825407E+03  0.17243600268E+03 0.  0.
         24    2    3    3    0    0 -0.20553106972E+02  0.13073035761E+03 -0.17964061212E+03  0.23814900565E+03  0.83254686131E+02 0.  0.
         -6    2    1    2    0  502 -0.42523816682E+02 -0.14005569459E+03  0.20005362185E+03  0.30178353396E+03  0.17212779317E+03 0.  0.
        -24    2    5    5    0    0 -0.32870132386E+02 -0.21459193671E+02  0.14620787373E+03  0.17109390835E+03  0.79721016919E+02 0.  0.
          5    1    3    3  501    0  0.63076923654E+02  0.93253369825E+01 -0.13475068867E+03  0.14914924842E+03  0.47000000000E+01 0. -1.
        -11    1    4    4    0    0 -0.33880944726E+02  0.49838599316E+02 -0.29530993925E+02  0.67110982704E+02  0.00000000000E+00 0.  1.
         12    1    4    4    0    0  0.13327837754E+02  0.80891758293E+02 -0.15010961819E+03  0.17103802294E+03  0.00000000000E+00 0. -1.
         -5    1    5    5    0  502 -0.96536842960E+01 -0.11859650092E+03  0.53845748113E+02  0.13068962561E+03  0.47000000000E+01 0.  1.
         13    1    6    6    0    0 -0.22953911339E+02 -0.35019870767E+02  0.25084198728E+02  0.48810761315E+02  0.00000000000E+00 0. -1.
        -14    1    6    6    0    0 -0.99162210462E+01  0.13560677096E+02  0.12112367501E+03  0.12228314704E+03  0.00000000000E+00 0.  1.
</event>
<event>
12    1  0.8747122E-002  0.2200533E+03  0.7818608E-02  0.1133971E+00
         21   -1    0    0  501  502  0.00000000000E+00  0.00000000000E+00  0.59299915038E+03  0.59299915038E+03  0.00000000000E+00 0. -1.
         21   -1    0    0  502  503 -0.00000000000E+00 -0.00000000000E+00 -0.12556859899E+03  0.12556859899E+03  0.00000000000E+00 0. -1.
         -6    2    1    2    0  503  0.23084710963E+02  0.13401139755E+03  0.20408973194E+02  0.22031905979E+03  0.17213948811E+03 0.  0.
        -24    2    3    3    0    0  0.59105400890E+02  0.96568905512E+02 -0.38945663740E+02  0.14129695378E+03  0.75027078420E+02 0.  0.
          6    2    1    2  501    0 -0.23084710963E+02 -0.13401139755E+03  0.44702157820E+03  0.49824868958E+03  0.17300724476E+03 0.  0.
         24    2    5    5    0    0  0.38716342466E+02 -0.12162594588E+03  0.36557657903E+03  0.39515578242E+03  0.78803752177E+02 0.  0.
          5    1    5    5  501    0 -0.61801053429E+02 -0.12385451670E+02  0.81444999167E+02  0.10309290716E+03  0.47000000000E+01 0. -1.
        -11    1    6    6    0    0 -0.59654520000E+01  0.96123148444E+01  0.30584423681E+02  0.32609663999E+02  0.00000000000E+00 0.  1.
         12    1    6    6    0    0  0.44681794466E+02 -0.13123826072E+03  0.33499215535E+03  0.36254611842E+03  0.00000000000E+00 0. -1.
         -5    1    3    3    0  503 -0.36020689927E+02  0.37442492035E+02  0.59354636933E+02  0.79022106009E+02  0.47000000000E+01 0.  1.
         11    1    4    4    0    0 -0.16540693066E+02  0.68856957321E+01 -0.83404404482E+00  0.17936079903E+02  0.00000000000E+00 0. -1.
        -12    1    4    4    0    0  0.75646093955E+02  0.89683209780E+02 -0.38111619695E+02  0.12336087387E+03  0.00000000000E+00 0.  1.
</event>
<event>
12    1  0.8747122E-002  0.1737239E+03  0.7818608E-02  0.1174320E+00
         21   -1    0    0  501  502  0.00000000000E+00  0.00000000000E+00  0.66900827676E+03  0.66900827676E+03  0.00000000000E+00 0. -1.
         21   -1    0    0  502  503 -0.00000000000E+00 -0.00000000000E+00 -0.10587308603E+03  0.10587308603E+03  0.00000000000E+00 0. -1.
         -6    2    1    2    0  503 -0.61017644520E+01  0.64474106709E+01 -0.12277447231E+02  0.17415716616E+03  0.17349692269E+03 0.  0.
        -24    2    3    3    0    0  0.41242064249E+02 -0.47367523401E+02  0.82540144449E+01  0.99450297914E+02  0.76665786789E+02 0.  0.
          6    2    1    2  501    0  0.61017644520E+01 -0.64474106709E+01  0.57541263797E+03  0.60072419662E+03  0.17231092782E+03 0.  0.
         24    2    5    5    0    0 -0.55391569400E+02 -0.16229270116E+02  0.44652985193E+03  0.45751114757E+03  0.81215308407E+02 0.  0.
          5    1    5    5  501    0  0.61493333852E+02  0.97818594449E+01  0.12888278604E+03  0.14321304905E+03  0.47000000000E+01 0. -1.
        -13    1    6    6    0    0 -0.29843253274E+02  0.17985526414E+02  0.66368553387E+02  0.74959214277E+02  0.00000000000E+00 0.  1.
         14    1    6    6    0    0 -0.25548316126E+02 -0.34214796529E+02  0.38016129854E+03  0.38255193330E+03  0.00000000000E+00 0. -1.
         -5    1    3    3    0  503 -0.47343828701E+02  0.53814934072E+02 -0.20531461676E+02  0.74706868251E+02  0.47000000000E+01 0.  1.
         11    1    4    4    0    0 -0.11486493591E+02 -0.44871340834E+02  0.41173314588E+01  0.46500851407E+02  0.00000000000E+00 0. -1.
        -12    1    4    4    0    0  0.52728557840E+02 -0.24961825678E+01  0.41366829861E+01  0.52949446507E+02  0.00000000000E+00 0.  1.
</event>
<event>
12    1  0.8747122E-002  0.1743583E+03  0.7818608E-02  0.1173378E+00
         21   -1    0    0  503  502  0.00000000000E+00  0.00000000000E+00  0.10472762281E+04  0.10472762281E+04  0.00000000000E+00 0.  1.
         21   -1    0    0  501  503 -0.00000000000E+00 -0.00000000000E+00 -0.45318370413E+02  0.45318370413E+02  0.00000000000E+00 0.  1.
          6    2    1    2  501    0  0.27799427194E+02 -0.49466327123E+01  0.17344743878E+03  0.24593627621E+03  0.17205627164E+03 0.  0.
         24    2    3    3    0    0 -0.21153282384E+02  0.11005819985E+02  0.17496297000E+02  0.81638689056E+02  0.76093138409E+02 0.  0.
         -6    2    1    2    0  502 -0.27799427194E+02  0.49466327123E+01  0.82851041894E+03  0.84665832234E+03  0.17205674401E+03 0.  0.
        -24    2    5    5    0    0 -0.43527265841E+02 -0.42769021008E+01  0.82173119376E+03  0.82664616611E+03  0.78669017862E+02 0.  0.
          5    1    3    3  501    0  0.48952709578E+02 -0.15952452697E+02  0.15595114178E+03  0.16429758715E+03  0.47000000000E+01 0. -1.
        -11    1    4    4    0    0  0.11472465865E+02  0.35706633609E+02  0.10012962355E+01  0.37517779130E+02  0.00000000000E+00 0.  1.
         12    1    4    4    0    0 -0.32625748249E+02 -0.24700813624E+02  0.16495000764E+02  0.44120909926E+02  0.00000000000E+00 0. -1.
         -5    1    5    5    0  502  0.15727838647E+02  0.92235348131E+01  0.67792251776E+01  0.20012156230E+02  0.47000000000E+01 0.  1.
         13    1    6    6    0    0 -0.21042477986E+02  0.28917799638E+02  0.17198015459E+03  0.17565932537E+03  0.00000000000E+00 0. -1.
        -14    1    6    6    0    0 -0.22484787855E+02 -0.33194701739E+02  0.64975103918E+03  0.65098684074E+03  0.00000000000E+00 0.  1.
</event>
<event>
12    1  0.8747122E-002  0.2220092E+03  0.7818608E-02  0.1132452E+00
         21   -1    0    0  501  502  0.00000000000E+00  0.00000000000E+00  0.90346223091E+03  0.90346223091E+03  0.00000000000E+00 0. -1.
         21   -1    0    0  502  503 -0.00000000000E+00 -0.00000000000E+00 -0.10878884409E+03  0.10878884409E+03  0.00000000000E+00 0.  1.
         -6    2    1    2    0  503  0.12503095448E+03 -0.60921580369E+02  0.39866044198E+02  0.22556012660E+03  0.17304303136E+03 0.  0.
        -24    2    3    3    0    0  0.12152523514E+03  0.32954518900E+01  0.61642794094E+02  0.15749813915E+03  0.78908725708E+02 0.  0.
          6    2    1    2  501    0 -0.12503095448E+03  0.60921580369E+02  0.75480734263E+03  0.78669094840E+03  0.17263935033E+03 0.  0.
         24    2    5    5    0    0 -0.78193000330E+02  0.97097318415E+02  0.38797733911E+03  0.41508790825E+03  0.78927316986E+02 0.  0.
          5    1    5    5  501    0 -0.46837954149E+02 -0.36175738046E+02  0.36683000351E+03  0.37160304015E+03  0.47000000000E+01 0. -1.
        -13    1    6    6    0    0  0.14107295707E+02  0.28355601450E+02  0.67166410115E+02  0.74258888851E+02  0.00000000000E+00 0.  1.
         14    1    6    6    0    0 -0.92300296037E+02  0.68741716965E+02  0.32081092900E+03  0.34082901940E+03  0.00000000000E+00 0. -1.
         -5    1    3    3    0  503  0.35057193387E+01 -0.64217032259E+02 -0.21776749896E+02  0.68061987454E+02  0.47000000000E+01 0.  1.
         11    1    4    4    0    0  0.68557645104E+02 -0.32685880007E+02  0.53605509351E+02  0.92962724179E+02  0.00000000000E+00 0. -1.
        -12    1    4    4    0    0  0.52967590036E+02  0.35981331897E+02  0.80372847438E+01  0.64535414970E+02  0.00000000000E+00 0.  1.
</event>
<event>
12    1  0.8747122E-002  0.1780920E+03  0.7818608E-02  0.1170565E+00
         21   -1    0    0  501  502  0.00000000000E+00  0.00000000000E+00  0.24027235205E+03  0.24027235205E+03  0.00000000000E+00 0. -1.
         21   -1    0    0  502  503 -0.00000000000E+00 -0.00000000000E+00 -0.22177139429E+03  0.22177139429E+03  0.00000000000E+00 0. -1.
         -6    2    1    2    0  503  0.36335213148E+02 -0.24069238384E+02 -0.13996063787E+03  0.22365991605E+03  0.16892365714E+03 0.  0.
        -24    2    3    3    0    0  0.30179033506E+02 -0.25125421990E+02 -0.17595655214E+03  0.18682501527E+03  0.48998134616E+02 0.  0.
          6    2    1    2  501    0 -0.36335213148E+02  0.24069238384E+02  0.15846159563E+03  0.23838383030E+03  0.17267656850E+03 0.  0.
         24    2    5    5    0    0 -0.80473349240E+02  0.52244699836E+02  0.12544535827E+03  0.17630167815E+03  0.78359908177E+02 0.  0.
          5    1    5    5  501    0  0.44138136093E+02 -0.28175461452E+02  0.33016237363E+02  0.62082152148E+02  0.47000000000E+01 0. -1.
        -11    1    6    6    0    0 -0.95196575219E+02  0.39667747125E+02  0.94983136971E+02  0.14020597136E+03  0.00000000000E+00 0.  1.
         12    1    6    6    0    0  0.14723225978E+02  0.12576952711E+02  0.30462221297E+02  0.36095706795E+02  0.00000000000E+00 0. -1.
         -5    1    3    3    0  503  0.61561796414E+01  0.10561836063E+01  0.35995914266E+02  0.36834900780E+02  0.47000000000E+01 0.  1.
         11    1    4    4    0    0 -0.18242371997E+01  0.58281374742E+01 -0.87301338731E+00  0.61690501824E+01  0.00000000000E+00 0. -1.
        -12    1    4    4    0    0  0.32003270706E+02 -0.30953559464E+02 -0.17508353875E+03  0.18065596508E+03  0.00000000000E+00 0.  1.
</event>
<event>
12    1  0.8747122E-002  0.1815161E+03  0.7818608E-02  0.1166967E+00
         21   -1    0    0  503  502  0.00000000000E+00  0.00000000000E+00  0.92072148888E+03  0.92072148888E+03  0.00000000000E+00 0.  1.
         21   -1    0    0  501  503 -0.00000000000E+00 -0.00000000000E+00 -0.22186204801E+03  0.22186204801E+03  0.00000000000E+00 0.  1.
          6    2    1    2  501    0 -0.10786438580E+02 -0.47037710752E+02 -0.17487352856E+03  0.25019494954E+03  0.17230167815E+03 0.  0.
         24    2    3    3    0    0 -0.34900361642E+02 -0.14389840601E+02 -0.18760702146E+03  0.20739779365E+03  0.79952157911E+02 0.  0.
         -6    2    1    2    0  502  0.10786438580E+02  0.47037710752E+02  0.87373296943E+03  0.89238858735E+03  0.17498341486E+03 0.  0.
        -24    2    5    5    0    0  0.12850563366E+02  0.16784785906E+02  0.19090810693E+03  0.20887459121E+03  0.82072063121E+02 0.  0.
          5    1    3    3  501    0  0.24113923062E+02 -0.32647870151E+02  0.12733492898E+02  0.42797155889E+02  0.47000000000E+01 0. -1.
        -11    1    4    4    0    0 -0.27762474220E+02  0.17119179475E+02 -0.23650576705E+02  0.40288597136E+02  0.00000000000E+00 0.  1.
         12    1    4    4    0    0 -0.71378874222E+01 -0.31509020076E+02 -0.16395644475E+03  0.16710919651E+03  0.00000000000E+00 0. -1.
         -5    1    5    5    0  502 -0.20641247860E+01  0.30252924846E+02  0.68282486250E+03  0.68351399614E+03  0.47000000000E+01 0.  1.
         11    1    6    6    0    0  0.43351506909E+02 -0.86161221470E+01  0.11528552866E+03  0.12346798707E+03  0.00000000000E+00 0. -1.
        -12    1    6    6    0    0 -0.30500943543E+02  0.25400908053E+02  0.75622578266E+02  0.85406604139E+02  0.00000000000E+00 0.  1.
</event>
<event>
12    1  0.8747122E-002  0.2071702E+03  0.7818608E-02  0.1144428E+00
         21   -1    0    0  501  502  0.00000000000E+00  0.00000000000E+00  0.55026165611E+02  0.55026165611E+02  0.00000000000E+00 0. -1.
         21   -1    0    0  502  503 -0.00000000000E+00 -0.00000000000E+00 -0.81958375411E+03  0.81958375411E+03  0.00000000000E+00 0.  1.
         -6    2    1    2    0  503 -0.69894578996E+02  0.93283290526E+02 -0.48847726763E+03  0.52944353376E+03  0.16767048037E+03 0.  0.
        -24    2    3    3    0    0 -0.22449891029E+02  0.79737542329E+02 -0.16364235053E+03  0.20084910430E+03  0.81850293491E+02 0.  0.
          6    2    1    2  501    0  0.69894578996E+02 -0.93283290526E+02 -0.27608032087E+03  0.34516638596E+03  0.17126723552E+03 0.  0.
         24    2    5    5    0    0  0.49758432179E+01 -0.73218154697E+02 -0.24998272866E+03  0.27222650489E+03  0.78931920958E+02 0.  0.
          5    1    5    5  501    0  0.64918735778E+02 -0.20065135829E+02 -0.26097592212E+02  0.72939881068E+02  0.47000000000E+01 0. -1.
        -11    1    6    6    0    0 -0.10454482228E+02 -0.26207039266E+02 -0.14733916766E+02  0.31830699160E+02  0.00000000000E+00 0.  1.
         12    1    6    6    0    0  0.15430325446E+02 -0.47011115431E+02 -0.23524881189E+03  0.24039580573E+03  0.00000000000E+00 0. -1.
         -5    1    3    3    0  503 -0.47444687967E+02  0.13545748197E+02 -0.32483491710E+03  0.32859442947E+03  0.47000000000E+01 0.  1.
         11    1    4    4    0    0 -0.48847392412E+02  0.27522861516E+02 -0.98094181052E+02  0.11298691963E+03  0.00000000000E+00 0. -1.
        -12    1    4    4    0    0  0.26397501383E+02  0.52214680813E+02 -0.65548169480E+02  0.87862184664E+02  0.00000000000E+00 0.  1.
</event>
<event>
12    1  0.8747122E-002  0.1767894E+03  0.7818608E-02  0.1172044E+00
         21   -1    0    0  503  502  0.00000000000E+00  0.00000000000E+00  0.38485076438E+03  0.38485076438E+03  0.00000000000E+00 0. -1.
         21   -1    0    0  501  503 -0.00000000000E+00 -0.00000000000E+00 -0.13054574590E+03  0.13054574590E+03  0.00000000000E+00 0. -1.
          6    2    1    2  501    0 -0.40601750406E+01 -0.22243127565E+01 -0.35395461072E+02  0.17601342925E+03  0.17235560920E+03 0.  0.
         24    2    3    3    0    0  0.31159637031E+02 -0.49311030785E+02 -0.53984239932E+02  0.11416501070E+03  0.81956395546E+02 0.  0.
         -6    2    1    2    0  502  0.40601750406E+01  0.22243127565E+01  0.28970047956E+03  0.33938308103E+03  0.17672881837E+03 0.  0.
        -24    2    5    5    0    0  0.62118539735E+02 -0.18909319040E+02  0.14213045117E+03  0.17933181617E+03  0.87991816755E+02 0.  0.
          5    1    3    3  501    0 -0.35219812072E+02  0.47086718029E+02  0.18588778860E+02  0.61848418546E+02  0.47000000000E+01 0. -1.
        -13    1    4    4    0    0  0.97228714240E+01  0.22883182854E+02 -0.89926615814E+01  0.26439407114E+02  0.00000000000E+00 0.  1.
         14    1    4    4    0    0  0.21436765607E+02 -0.72194213639E+02 -0.44991578351E+02  0.87725603589E+02  0.00000000000E+00 0. -1.
         -5    1    5    5    0  502 -0.58058364695E+02  0.21133631796E+02  0.14757002839E+03  0.16005126486E+03  0.47000000000E+01 0.  1.
         13    1    6    6    0    0  0.46687253542E+02 -0.38169414949E+02  0.14240878157E+03  0.15465078386E+03  0.00000000000E+00 0. -1.
        -14    1    6    6    0    0  0.15431286194E+02  0.19260095909E+02 -0.27833039991E+00  0.24681032309E+02  0.00000000000E+00 0.  1.
</event>
<event>
12    1  0.8747122E-002  0.2279213E+03  0.7818608E-02  0.1128117E+00
         21   -1    0    0  501  502  0.00000000000E+00  0.00000000000E+00  0.83808332742E+03  0.83808332742E+03  0.00000000000E+00 0.  1.
         21   -1    0    0  502  503 -0.00000000000E+00 -0.00000000000E+00 -0.42387684701E+03  0.42387684701E+03  0.00000000000E+00 0. -1.
         -6    2    1    2    0  503  0.12337922436E+02 -0.14934150799E+03 -0.37592784208E+03  0.43960966409E+03  0.17169683739E+03 0.  0.
        -24    2    3    3    0    0  0.12583890314E+02 -0.15144070967E+03 -0.20620293986E+03  0.26980654403E+03  0.84754209058E+02 0.  0.
          6    2    1    2  501    0 -0.12337922436E+02  0.14934150799E+03  0.79013432249E+03  0.82235051034E+03  0.17173527284E+03 0.  0.
         24    2    5    5    0    0 -0.37577731004E+02  0.75006584605E+02  0.66180124730E+03  0.67183739809E+03  0.79665079806E+02 0.  0.
          5    1    5    5  501    0  0.25239808568E+02  0.74334923385E+02  0.12833307519E+03  0.15051311225E+03  0.47000000000E+01 0. -1.
        -13    1    6    6    0    0 -0.16359672627E+02 -0.10343701018E+02  0.25006327807E+03  0.25081123196E+03  0.00000000000E+00 0.  1.
         14    1    6    6    0    0 -0.21218058377E+02  0.85350285623E+02  0.41173796924E+03  0.42102616613E+03  0.00000000000E+00 0. -1.
         -5    1    3    3    0  503 -0.24596787753E+00  0.20992016819E+01 -0.16972490223E+03  0.16980312007E+03  0.47000000000E+01 0.  1.
         13    1    4    4    0    0  0.39907399139E+02 -0.13549438451E+03 -0.15579760156E+03  0.21029555723E+03  0.00000000000E+00 0. -1.
        -14    1    4    4    0    0 -0.27323508826E+02 -0.15946325166E+02 -0.50405338293E+02  0.59510986795E+02  0.00000000000E+00 0.  1.
</event>
<event>
12    1  0.8747122E-002  0.1890370E+03  0.7818608E-02  0.1160429E+00
         21   -1    0    0  501  502  0.00000000000E+00  0.00000000000E+00  0.98437240032E+02  0.98437240032E+02  0.00000000000E+00 0.  1.
         21   -1    0    0  502  503 -0.00000000000E+00 -0.00000000000E+00 -0.35558516046E+03  0.35558516046E+03  0.00000000000E+00 0.  1.
         -6    2    1    2    0  503  0.22871182161E+02  0.82877699277E+02 -0.14568921589E+03  0.23866365617E+03  0.16835435587E+03 0.  0.
        -24    2    3    3    0    0 -0.31343454598E+02  0.15009642208E+02 -0.11647187316E+03  0.14689741442E+03  0.82495161190E+02 0.  0.
          6    2    1    2  501    0 -0.22871182161E+02 -0.82877699277E+02 -0.11145870454E+03  0.21535874432E+03  0.16298632436E+03 0.  0.
         24    2    5    5    0    0  0.30494247927E+02 -0.13208866601E+02 -0.46584414301E+02  0.10612331550E+03  0.89373805583E+02 0.  0.
          5    1    5    5  501    0 -0.53365430088E+02 -0.69668832676E+02 -0.64874290241E+02  0.10923542882E+03  0.47000000000E+01 0. -1.
        -11    1    6    6    0    0  0.21022101091E+02 -0.49462378484E+02 -0.42328924388E+02  0.68411939451E+02  0.00000000000E+00 0.  1.
         12    1    6    6    0    0  0.94721468362E+01  0.36253511883E+02 -0.42554899131E+01  0.37711376054E+02  0.00000000000E+00 0. -1.
         -5    1    3    3    0  503  0.54214636759E+02  0.67868057069E+02 -0.29217342724E+02  0.91766241751E+02  0.47000000000E+01 0.  1.
         13    1    4    4    0    0 -0.54424165228E+02 -0.97070675368E+01 -0.78997871597E+02  0.96420333113E+02  0.00000000000E+00 0. -1.
        -14    1    4    4    0    0  0.23080710630E+02  0.24716709745E+02 -0.37474001568E+02  0.50477081308E+02  0.00000000000E+00 0.  1.
</event>
<event>
12    1  0.8747122E-002  0.1771125E+03  0.7818608E-02  0.1171448E+00
         21   -1    0    0  503  502  0.00000000000E+00  0.00000000000E+00  0.16548919575E+03  0.16548919575E+03  0.00000000000E+00 0.  1.
         21   -1    0    0  501  503 -0.00000000000E+00 -0.00000000000E+00 -0.42583292934E+03  0.42583292934E+03  0.00000000000E+00 0.  1.
          6    2    1    2  501    0  0.22941043387E+02  0.41979780213E+02 -0.35149739000E+03  0.39212919017E+03  0.16711161894E+03 0.  0.
         24    2    3    3    0    0  0.35810805065E+02 -0.35280899019E+02 -0.16444005031E+03  0.18928101627E+03  0.79117743771E+02 0.  0.
         -6    2    1    2    0  502 -0.22941043387E+02 -0.41979780213E+02  0.91153656419E+02  0.19919293492E+03  0.17052930196E+03 0.  0.
        -24    2    5    5    0    0 -0.79323173424E+02 -0.21678195312E+02  0.73921203142E+02  0.13666177163E+03  0.80311802104E+02 0.  0.
          5    1    3    3  501    0 -0.12869761678E+02  0.77260679231E+02 -0.18705733969E+03  0.20284817390E+03  0.47000000000E+01 0. -1.
        -11    1    4    4    0    0  0.50959846208E+00  0.23266381784E+02 -0.61014038004E+02  0.65301585321E+02  0.00000000000E+00 0.  1.
         12    1    4    4    0    0  0.35301206603E+02 -0.58547280802E+02 -0.10342601231E+03  0.12397943095E+03  0.00000000000E+00 0. -1.
         -5    1    5    5    0  502  0.56382130037E+02 -0.20301584901E+02  0.17232453277E+02  0.62531163295E+02  0.47000000000E+01 0.  1.
         11    1    6    6    0    0  0.25559420082E+01  0.36687296257E+01  0.46435094731E+02  0.46649870732E+02  0.00000000000E+00 0. -1.
        -12    1    6    6    0    0 -0.81879115432E+02 -0.25346924938E+02  0.27486108410E+02  0.90011900898E+02  0.00000000000E+00 0.  1.
</event>
<event>
12    1  0.8747122E-002  0.2284066E+03  0.7818608E-02  0.1127798E+00
         21   -1    0    0  501  502  0.00000000000E+00  0.00000000000E+00  0.11699761350E+03  0.11699761350E+03  0.00000000000E+00 0. -1.
         21   -1    0    0  502  503 -0.00000000000E+00 -0.00000000000E+00 -0.93603929745E+03  0.93603929745E+03  0.00000000000E+00 0.  1.
         -6    2    1    2    0  503 -0.11437524077E+03  0.97572727797E+02 -0.79057989370E+03  0.82286385508E+03  0.17171552861E+03 0.  0.
        -24    2    3    3    0    0 -0.83893392199E+02  0.12129783157E+03 -0.74167753698E+03  0.76036942226E+03  0.79528763648E+02 0.  0.
          6    2    1    2  501    0  0.11437524077E+03 -0.97572727797E+02 -0.28461790249E+02  0.23017305587E+03  0.17195182242E+03 0.  0.
         24    2    5    5    0    0  0.54150919224E+02 -0.12591195064E+03 -0.44942547441E+00  0.15780688258E+03  0.78209135261E+02 0.  0.
          5    1    5    5  501    0  0.60224321544E+02  0.28339222843E+02 -0.28012364775E+02  0.72366173293E+02  0.47000000000E+01 0. -1.
        -13    1    6    6    0    0 -0.18962254370E+02 -0.35447647523E+02  0.87018896156E+01  0.41131808720E+02  0.00000000000E+00 0.  1.
         14    1    6    6    0    0  0.73113173594E+02 -0.90464303117E+02 -0.91513150900E+01  0.11667507386E+03  0.00000000000E+00 0. -1.
         -5    1    3    3    0  503 -0.30481848569E+02 -0.23725103771E+02 -0.48902356720E+02  0.62494432823E+02  0.47000000000E+01 0.  1.
         11    1    4    4    0    0 -0.92323989807E+00  0.39877558580E+02 -0.90548454157E+02  0.98944906895E+02  0.00000000000E+00 0. -1.
        -12    1    4    4    0    0 -0.82970152301E+02  0.81420272987E+02 -0.65112908282E+03  0.66142451536E+03  0.00000000000E+00 0.  1.
</event>
<event>
12    1  0.8747122E-002  0.1947834E+03  0.7818608E-02  0.1154792E+00
         21   -1    0    0  503  502  0.00000000000E+00  0.00000000000E+00  0.32940001872E+03  0.32940001872E+03  0.00000000000E+00 0. -1.
         21   -1    0    0  501  503 -0.00000000000E+00 -0.00000000000E+00 -0.14563040673E+03  0.14563040673E+03  0.00000000000E+00 0. -1.
          6    2    1    2  501    0 -0.27595065199E+02  0.86482349472E+02  0.20272111857E+03  0.27932727591E+03  0.16937293396E+03 0.  0.
         24    2    3    3    0    0 -0.83475930121E+02  0.85226524270E+02  0.15600715116E+03  0.20633047521E+03  0.63263278743E+02 0.  0.
         -6    2    1    2    0  502  0.27595065199E+02 -0.86482349472E+02 -0.18951506586E+02  0.19570314954E+03  0.17233652760E+03 0.  0.
        -24    2    5    5    0    0  0.51347790795E+02 -0.55026965437E+02 -0.61907473071E+02  0.13721436245E+03  0.96595463126E+02 0.  0.
          5    1    3    3  501    0  0.55880864922E+02  0.12558252021E+01  0.46713967416E+02  0.72996800704E+02  0.47000000000E+01 0. -1.
        -13    1    4    4    0    0 -0.46487730627E+01 -0.60557767460E+00 -0.54629340968E+01  0.71987126803E+01  0.00000000000E+00 0.  1.
         14    1    4    4    0    0 -0.78827157058E+02  0.85832101945E+02  0.16147008526E+03  0.19913176253E+03  0.00000000000E+00 0. -1.
         -5    1    5    5    0  502 -0.23752725596E+02 -0.31455384035E+02  0.42955966485E+02  0.58488787085E+02  0.47000000000E+01 0.  1.
         13    1    6    6    0    0 -0.23230290141E+02 -0.19553672437E+02 -0.42750835849E+02  0.52436880643E+02  0.00000000000E+00 0. -1.
        -14    1    6    6    0    0  0.74578080936E+02 -0.35473293000E+02 -0.19156637222E+02  0.84777481810E+02  0.00000000000E+00 0.  1.
</event>
<event>
12    1  0.8747122E-002  0.1883133E+03  0.7818608E-02  0.1160052E+00
         21   -1    0    0  503  502  0.00000000000E+00  0.00000000000E+00  0.22263046240E+02  0.22263046240E+02  0.00000000000E+00 0.  1.
         21   -1    0    0  501  503 -0.00000000000E+00 -0.00000000000E+00 -0.20063063084E+04  0.20063063084E+04  0.00000000000E+00 0.  1.
          6    2    1    2  501    0 -0.70982763798E+02  0.29875700476E+02 -0.14531489619E+04  0.14652660025E+04  0.17155594475E+03 0.  0.
         24    2    3    3    0    0  0.21974530241E+01 -0.43719808788E+02 -0.73666218432E+03  0.74128600577E+03  0.70125017407E+02 0.  0.
         -6    2    1    2    0  502  0.70982763798E+02 -0.29875700476E+02 -0.53089430024E+03  0.56330335219E+03  0.17184527437E+03 0.  0.
        -24    2    5    5    0    0  0.78432181936E+02 -0.20673097978E+02 -0.18421034759E+03  0.21638544439E+03  0.79436919896E+02 0.  0.
          5    1    3    3  501    0 -0.73180216822E+02  0.73595509265E+02 -0.71648677760E+03  0.72397999668E+03  0.47000000000E+01 0. -1.
        -13    1    4    4    0    0 -0.21428900644E+02 -0.15539833909E+01 -0.79603723113E+02  0.82452200581E+02  0.00000000000E+00 0.  1.
         14    1    4    4    0    0  0.23626353668E+02 -0.42165825397E+02 -0.65705846121E+03  0.65883380519E+03  0.00000000000E+00 0. -1.
         -5    1    5    5    0  502 -0.74494181385E+01 -0.92026024984E+01 -0.34668395265E+03  0.34691790780E+03  0.47000000000E+01 0.  1.
         13    1    6    6    0    0 -0.69815259419E+01 -0.11741582071E+02 -0.80882802361E+02  0.82028252278E+02  0.00000000000E+00 0. -1.
        -14    1    6    6    0    0  0.85413707878E+02 -0.89315159070E+01 -0.10332754522E+03  0.13435719211E+03  0.00000000000E+00 0.  1.
</event>
<event>
12    1  0.8747122E-002  0.2688524E+03  0.7818608E-02  0.1103157E+00
         21   -1    0    0  501  502  0.00000000000E+00  0.00000000000E+00  0.13439334377E+03  0.13439334377E+03  0.00000000000E+00 0.  1.
         21   -1    0    0  502  503 -0.00000000000E+00 -0.00000000000E+00 -0.87982605679E+03  0.87982605679E+03  0.00000000000E+00 0. -1.
         -6    2    1    2    0  503  0.19036878634E+03  0.44813956413E+02 -0.45547217228E+02  0.26447188602E+03  0.17211119661E+03 0.  0.
        -24    2    3    3    0    0  0.10915557695E+03 -0.22614060147E+02 -0.70598074954E+02  0.15588202338E+03  0.82998682698E+02 0.  0.
          6    2    1    2  501    0 -0.19036878634E+03 -0.44813956413E+02 -0.69988549579E+03  0.74974751453E+03  0.18448052152E+03 0.  0.
         24    2    5    5    0    0 -0.36374637268E+02  0.91445253276E+01 -0.38494138727E+03  0.39501156035E+03  0.80296479319E+02 0.  0.
          5    1    5    5  501    0 -0.15399414907E+03 -0.53958481740E+02 -0.31494410852E+03  0.35473595418E+03  0.47000000000E+01 0. -1.
        -11    1    6    6    0    0 -0.20723821181E+02  0.36691385182E+02 -0.31990597724E+03  0.32266944198E+03  0.00000000000E+00 0.  1.
         12    1    6    6    0    0 -0.15650816087E+02 -0.27546859855E+02 -0.65035410030E+02  0.72342118367E+02  0.00000000000E+00 0. -1.
         -5    1    3    3    0  503  0.81213209391E+02  0.67428016560E+02  0.25050857726E+02  0.10858986265E+03  0.47000000000E+01 0.  1.
         11    1    4    4    0    0 -0.60909606615E+01  0.14340455626E+02 -0.18314370474E+02  0.24045054277E+02  0.00000000000E+00 0. -1.
        -12    1    4    4    0    0  0.11524653761E+03 -0.36954515774E+02 -0.52283704480E+02  0.13183696910E+03  0.00000000000E+00 0.  1.
</event>
<event>
12    1  0.8747122E-002  0.1963054E+03  0.7818608E-02  0.1160667E+00
         21   -1    0    0  503  502  0.00000000000E+00  0.00000000000E+00  0.13833594136E+03  0.13833594136E+03  0.00000000000E+00 0. -1.
         21   -1    0    0  501  503 -0.00000000000E+00 -0.00000000000E+00 -0.63096161441E+03  0.63096161441E+03  0.00000000000E+00 0. -1.
          6    2    1    2  501    0 -0.14968864310E+02 -0.63106831858E+02 -0.54259260056E+03  0.56673276031E+03  0.15024231195E+03 0.  0.
         24    2    3    3    0    0  0.29204351957E+01 -0.59077947013E+02 -0.53817678658E+03  0.54729443829E+03  0.79988848025E+02 0.  0.
         -6    2    1    2    0  502  0.14968864310E+02  0.63106831858E+02  0.49966927510E+02  0.20256479546E+03  0.18528157866E+03 0.  0.
        -24    2    5    5    0    0 -0.19580246712E+02  0.10339787515E+03  0.65914193472E+02  0.14694632250E+03  0.78575022419E+02 0.  0.
          5    1    3    3  501    0 -0.17889299506E+02 -0.40288848442E+01 -0.44158139857E+01  0.19438322022E+02  0.47000000000E+01 0. -1.
        -13    1    4    4    0    0  0.82028630351E+01 -0.73664500912E+02 -0.31598195841E+03  0.32455869068E+03  0.00000000000E+00 0.  1.
         14    1    4    4    0    0 -0.52824278394E+01  0.14586553899E+02 -0.22219482817E+03  0.22273574761E+03  0.00000000000E+00 0. -1.
         -5    1    5    5    0  502  0.34549111022E+02 -0.40291043297E+02 -0.15947265963E+02  0.55618472957E+02  0.47000000000E+01 0.  1.
         11    1    6    6    0    0 -0.45048100784E+02  0.60057667909E+02  0.60438579009E+02  0.96379856254E+02  0.00000000000E+00 0. -1.
        -12    1    6    6    0    0  0.25467854072E+02  0.43340207246E+02  0.54756144635E+01  0.50566466249E+02  0.00000000000E+00 0.  1.
</event>
<event>
12    1  0.8747122E-002  0.2692504E+03  0.7818608E-02  0.1101718E+00
         21   -1    0    0  503  502  0.00000000000E+00  0.00000000000E+00  0.39303817933E+03  0.39303817933E+03  0.00000000000E+00 0.  1.
         21   -1    0    0  501  503 -0.00000000000E+00 -0.00000000000E+00 -0.40139606120E+03  0.40139606120E+03  0.00000000000E+00 0.  1.
          6    2    1    2  501    0  0.44169502294E+02 -0.20089015323E+03 -0.29623116633E+03  0.40031074912E+03  0.17374692331E+03 0.  0.
         24    2    3    3    0    0  0.55002625279E+02 -0.22411939851E+03 -0.28177357272E+03  0.37051030612E+03  0.68020196143E+02 0.  0.
         -6    2    1    2    0  502 -0.44169502294E+02  0.20089015323E+03  0.28787328446E+03  0.39412349141E+03  0.17365051103E+03 0.  0.
        -24    2    5    5    0    0  0.47346970901E+01  0.19104803618E+03  0.27238847958E+03  0.34167964366E+03  0.77638428618E+02 0.  0.
          5    1    3    3  501    0 -0.10833122986E+02  0.23229245281E+02 -0.14457593613E+02  0.29800443001E+02  0.47000000000E+01 0. -1.
        -13    1    4    4    0    0  0.50244238931E+02 -0.84703787497E+02 -0.90342993246E+02  0.13364532012E+03  0.00000000000E+00 0.  1.
         14    1    4    4    0    0  0.47583863484E+01 -0.13941561101E+03 -0.19143057947E+03  0.23686498600E+03  0.00000000000E+00 0. -1.
         -5    1    5    5    0  502 -0.48904199384E+02  0.98421170445E+01  0.15484804884E+02  0.52443847757E+02  0.47000000000E+01 0.  1.
         13    1    6    6    0    0  0.13321953463E+02  0.21500023711E+02  0.85656173276E+02  0.89312403864E+02  0.00000000000E+00 0. -1.
        -14    1    6    6    0    0 -0.85872563732E+01  0.16954801247E+03  0.18673230630E+03  0.25236723979E+03  0.00000000000E+00 0.  1.
</event>
<event>
12    1  0.8747122E-002  0.1865966E+03  0.7818608E-02  0.1162651E+00
         21   -1    0    0  501  502  0.00000000000E+00  0.00000000000E+00  0.73377501733E+02  0.73377501733E+02  0.00000000000E+00 0. -1.
         21   -1    0    0  502  503 -0.00000000000E+00 -0.00000000000E+00 -0.47629873560E+03  0.47629873560E+03  0.00000000000E+00 0. -1.
         -6    2    1    2    0  503  0.51565426240E+02  0.32545540285E+02 -0.25017641087E+03  0.31210019069E+03  0.17635216781E+03 0.  0.
        -24    2    3    3    0    0  0.61582705274E+02 -0.35345949111E+02 -0.19339317268E+03  0.22290363049E+03  0.85107834754E+02 0.  0.
          6    2    1    2  501    0 -0.51565426240E+02 -0.32545540285E+02 -0.15274482300E+03  0.23757604665E+03  0.17144442719E+03 0.  0.
         24    2    5    5    0    0  0.29267104924E+02 -0.44224299072E+02 -0.10351743548E+03  0.14209978163E+03  0.81634162159E+02 0.  0.
          5    1    5    5  501    0 -0.80832531164E+02  0.11678758787E+02 -0.49227387521E+02  0.95476265026E+02  0.47000000000E+01 0. -1.
        -13    1    6    6    0    0  0.16484776513E+01  0.22341294909E+02 -0.11385006656E+02  0.25129053172E+02  0.00000000000E+00 0.  1.
         14    1    6    6    0    0  0.27618627273E+02 -0.66565593982E+02 -0.92132428820E+02  0.11697072845E+03  0.00000000000E+00 0. -1.
         -5    1    3    3    0  503 -0.10017279035E+02  0.67891489397E+02 -0.56783238191E+02  0.89196560198E+02  0.47000000000E+01 0.  1.
         13    1    4    4    0    0  0.43547468875E+02  0.20851219823E+02 -0.11542240485E+03  0.12511389593E+03  0.00000000000E+00 0. -1.
        -14    1    4    4    0    0  0.18035236399E+02 -0.56197168934E+02 -0.77970767834E+02  0.97789734558E+02  0.00000000000E+00 0.  1.
</event>
<event>
12    1  0.8747122E-002  0.2055186E+03  0.7818608E-02  0.1146724E+00
         21   -1    0    0  501  502  0.00000000000E+00  0.00000000000E+00  0.42942278866E+02  0.42942278866E+02  0.00000000000E+00 0. -1.
         21   -1    0    0  502  503 -0.00000000000E+00 -0.00000000000E+00 -0.15974448196E+04  0.15974448196E+04  0.00000000000E+00 0.  1.
         -6    2    1    2    0  503  0.55287623208E+02 -0.96070109318E+02 -0.13087436703E+04  0.13247822072E+04  0.17306563715E+03 0.  0.
        -24    2    3    3    0    0 -0.74523980896E+00 -0.18498129926E+02 -0.28728250257E+03  0.29883771507E+03  0.80187327402E+02 0.  0.
          6    2    1    2  501    0 -0.55287623208E+02  0.96070109318E+02 -0.24575887039E+03  0.31560489123E+03  0.16408180218E+03 0.  0.
         24    2    5    5    0    0 -0.73892978947E+02  0.16881957193E+02 -0.17570380113E+03  0.20814920069E+03  0.81909042246E+02 0.  0.
          5    1    5    5  501    0  0.18605355738E+02  0.79188152125E+02 -0.70055069259E+02  0.10745569053E+03  0.47000000000E+01 0. -1.
        -13    1    6    6    0    0 -0.59675742483E+02  0.43023073376E+02 -0.15595247514E+03  0.17243362081E+03  0.00000000000E+00 0.  1.
         14    1    6    6    0    0 -0.14217236463E+02 -0.26141116183E+02 -0.19751325987E+02  0.35715579880E+02  0.00000000000E+00 0. -1.
         -5    1    3    3    0  503  0.56032863017E+02 -0.77571979392E+02 -0.10214611677E+04  0.10259444921E+04  0.47000000000E+01 0.  1.
         13    1    4    4    0    0 -0.17440613013E+02 -0.35859853220E+02 -0.25733256983E+03  0.26040383168E+03  0.00000000000E+00 0. -1.
        -14    1    4    4    0    0  0.16695373204E+02  0.17361723294E+02 -0.29949932734E+02  0.38433883397E+02  0.00000000000E+00 0.  1.
</event>
<event>
12    1  0.8747122E-002  0.1786387E+03  0.7818608E-02  0.1169136E+00
         21   -1    0    0  501  502  0.00000000000E+00  0.00000000000E+00  0.13153739249E+03  0.13153739249E+03  0.00000000000E+00 0. -1.
         21   -1    0    0  502  503 -0.00000000000E+00 -0.00000000000E+00 -0.26930326347E+03  0.26930326347E+03  0.00000000000E+00 0. -1.
         -6    2    1    2    0  503 -0.11089655783E+02  0.47786009123E+02 -0.13204802275E+03  0.22214511800E+03  0.17177103949E+03 0.  0.
        -24    2    3    3    0    0 -0.72344994841E+02  0.40352923664E+02 -0.99538942606E+02  0.15224234542E+03  0.80047322992E+02 0.  0.
          6    2    1    2  501    0  0.11089655783E+02 -0.47786009123E+02 -0.57178482303E+01  0.17869553796E+03  0.17173502370E+03 0.  0.
         24    2    5    5    0    0 -0.81257255294E+00 -0.45724992715E+02  0.61891393077E+02  0.10985506776E+03  0.78397424333E+02 0.  0.
          5    1    5    5  501    0  0.11902228336E+02 -0.20610164080E+01 -0.67609241307E+02  0.68840470206E+02  0.47000000000E+01 0. -1.
        -11    1    6    6    0    0 -0.32743888513E+02 -0.37627334034E+02  0.14143513450E+02  0.51846094107E+02  0.00000000000E+00 0.  1.
         12    1    6    6    0    0  0.31931315960E+02 -0.80976586804E+01  0.47747879627E+02  0.58008973650E+02  0.00000000000E+00 0. -1.
         -5    1    3    3    0  503  0.61255339058E+02  0.74330854587E+01 -0.32509080142E+02  0.69902772579E+02  0.47000000000E+01 0.  1.
         13    1    4    4    0    0 -0.85236206359E+02  0.26273191831E+02 -0.57633938828E+02  0.10619398471E+03  0.00000000000E+00 0. -1.
        -14    1    4    4    0    0  0.12891211518E+02  0.14079731833E+02 -0.41905003778E+02  0.46048360715E+02  0.00000000000E+00 0.  1.
</event>
<event>
12    1  0.8747122E-002  0.1910631E+03  0.7818608E-02  0.1161953E+00
         21   -1    0    0  501  502  0.00000000000E+00  0.00000000000E+00  0.15779166774E+03  0.15779166774E+03  0.00000000000E+00 0. -1.
         21   -1    0    0  502  503 -0.00000000000E+00 -0.00000000000E+00 -0.23369157386E+03  0.23369157386E+03  0.00000000000E+00 0. -1.
         -6    2    1    2    0  503 -0.13049299467E+02 -0.52972274064E+01 -0.99550281184E+02  0.19896189887E+03  0.17168935286E+03 0.  0.
        -24    2    3    3    0    0 -0.56079732335E+02  0.52961445276E+01 -0.32727044976E+01  0.92870902770E+02  0.73765225283E+02 0.  0.
          6    2    1    2  501    0  0.13049299467E+02  0.52972274064E+01  0.23650375055E+02  0.19252134273E+03  0.19054338700E+03 0.  0.
         24    2    5    5    0    0 -0.48417909496E+02  0.58219484959E+02  0.15924105959E+02  0.11090781225E+03  0.79455416929E+02 0.  0.
          5    1    5    5  501    0  0.61467208963E+02 -0.52922257552E+02  0.77262690953E+01  0.81613530473E+02  0.47000000000E+01 0. -1.
        -11    1    6    6    0    0 -0.51942409568E+02  0.37989820238E+02 -0.21810293949E+02  0.67947989489E+02  0.00000000000E+00 0.  1.
         12    1    6    6    0    0  0.35245000722E+01  0.20229664721E+02  0.37734399909E+02  0.42959822764E+02  0.00000000000E+00 0. -1.
         -5    1    3    3    0  503  0.43030432868E+02 -0.10593371934E+02 -0.96277576686E+02  0.10609099610E+03  0.47000000000E+01 0.  1.
         13    1    4    4    0    0 -0.36147246257E+02 -0.27054034774E+02 -0.22320467101E+02  0.50366134070E+02  0.00000000000E+00 0. -1.
        -14    1    4    4    0    0 -0.19932486078E+02  0.32350179302E+02  0.19047762604E+02  0.42504768701E+02  0.00000000000E+00 0.  1.
</event>
<event>
12    1  0.8747122E-002  0.1795718E+03  0.7818608E-02  0.1168227E+00
         21   -1    0    0  503  502  0.00000000000E+00  0.00000000000E+00  0.11705521630E+03  0.11705521630E+03  0.00000000000E+00 0. -1.
         21   -1    0    0  501  503 -0.00000000000E+00 -0.00000000000E+00 -0.33749958054E+03  0.33749958054E+03  0.00000000000E+00 0. -1.
          6    2    1    2  501    0  0.19743689725E+02 -0.49298748394E+02 -0.20768773436E+03  0.27453049909E+03  0.17150107887E+03 0.  0.
         24    2    3    3    0    0  0.25935904188E+02  0.77478170325E+01 -0.19916846888E+03  0.21632979436E+03  0.79986255943E+02 0.  0.
         -6    2    1    2    0  502 -0.19743689725E+02  0.49298748394E+02 -0.12756629876E+02  0.18002429775E+03  0.17153960562E+03 0.  0.
        -24    2    5    5    0    0  0.25257822395E+02 -0.35033591666E+02 -0.17490213347E+02  0.84203754617E+02  0.70135972165E+02 0.  0.
          5    1    3    3  501    0 -0.61922144626E+01 -0.57046565426E+02 -0.85192654841E+01  0.58200704732E+02  0.47000000000E+01 0. -1.
        -11    1    4    4    0    0  0.15614556877E+02  0.21655473455E+02 -0.13613536071E+02  0.29968354666E+02  0.00000000000E+00 0.  1.
         12    1    4    4    0    0  0.10321347310E+02 -0.13907656422E+02 -0.18555493281E+03  0.18636143970E+03  0.00000000000E+00 0. -1.
         -5    1    5    5    0  502 -0.45001512120E+02  0.84332340060E+02  0.47335834713E+01  0.95820543129E+02  0.47000000000E+01 0.  1.
         11    1    6    6    0    0  0.26084357869E+02 -0.35123439333E+02  0.19004713290E+02  0.47699358940E+02  0.00000000000E+00 0. -1.
        -12    1    6    6    0    0 -0.82653547474E+00  0.89847667174E-01 -0.36494926637E+02  0.36504395677E+02  0.00000000000E+00 0.  1.
</event>
<event>
12    1  0.8747122E-002  0.2342227E+03  0.7818608E-02  0.1124926E+00
         21   -1    0    0  503  502  0.00000000000E+00  0.00000000000E+00  0.11691308707E+03  0.11691308707E+03  0.00000000000E+00 0. -1.
         21   -1    0    0  501  503 -0.00000000000E+00 -0.00000000000E+00 -0.52376024690E+03  0.52376024690E+03  0.00000000000E+00 0.  1.
          6    2    1    2  501    0  0.13447301993E+03 -0.83902380165E+02 -0.32189647215E+03  0.39809244500E+03  0.17244608866E+03 0.  0.
         24    2    3    3    0    0  0.91727484275E+02 -0.15423065511E+02 -0.88018527701E+02  0.15063016453E+03  0.79311934329E+02 0.  0.
         -6    2    1    2    0  502 -0.13447301993E+03  0.83902380165E+02 -0.84950687676E+02  0.24258088896E+03  0.16280745027E+03 0.  0.
        -24    2    5    5    0    0 -0.31720942176E+02  0.84738144610E+02 -0.68306731454E+02  0.13838012474E+03  0.79350349948E+02 0.  0.
          5    1    3    3  501    0  0.42745535656E+02 -0.68479314653E+02 -0.23387794445E+03  0.24746228047E+03  0.47000000000E+01 0. -1.
        -13    1    4    4    0    0  0.88205471812E+02 -0.24881227098E+02 -0.99545469323E+02  0.13530920583E+03  0.00000000000E+00 0.  1.
         14    1    4    4    0    0  0.35220124625E+01  0.94581615869E+01  0.11526941622E+02  0.15320958702E+02  0.00000000000E+00 0. -1.
         -5    1    5    5    0  502 -0.10275207775E+03 -0.83576444501E+00 -0.16643956222E+02  0.10420076422E+03  0.47000000000E+01 0.  1.
         11    1    6    6    0    0 -0.25577572527E+02  0.10030909362E+03 -0.60601866130E+02  0.11995296019E+03  0.00000000000E+00 0. -1.
        -12    1    6    6    0    0 -0.61433696498E+01 -0.15570949012E+02 -0.77048653245E+01  0.18427164553E+02  0.00000000000E+00 0.  1.
</event>
<event>
12    1  0.8747122E-002  0.2126564E+03  0.7818608E-02  0.1139483E+00
         21   -1    0    0  501  502  0.00000000000E+00  0.00000000000E+00  0.75047188209E+03  0.75047188209E+03  0.00000000000E+00 0.  1.
         21   -1    0    0  502  503 -0.00000000000E+00 -0.00000000000E+00 -0.66490066084E+03  0.66490066084E+03  0.00000000000E+00 0.  1.
         -6    2    1    2    0  503  0.33292939460E+02  0.12043499205E+03 -0.63207385782E+03  0.66688837935E+03  0.17207481412E+03 0.  0.
        -24    2    3    3    0    0  0.82060358793E+02  0.66031922288E+02 -0.48265653242E+03  0.50049852896E+03  0.80295279742E+02 0.  0.
          6    2    1    2  501    0 -0.33292939460E+02 -0.12043499205E+03  0.71764507907E+03  0.74848416358E+03  0.17204963381E+03 0.  0.
         24    2    5    5    0    0  0.33756400097E+02 -0.42645557739E+02  0.20229531254E+03  0.22298032735E+03  0.76411352364E+02 0.  0.
          5    1    5    5  501    0 -0.67049339557E+02 -0.77789434310E+02  0.51534976653E+03  0.52550383622E+03  0.47000000000E+01 0. -1.
        -11    1    6    6    0    0  0.44602593573E+01 -0.57684006768E+02  0.15415455691E+03  0.16465407971E+03  0.00000000000E+00 0.  1.
         12    1    6    6    0    0  0.29296140740E+02  0.15038449029E+02  0.48140755629E+02  0.58326247642E+02  0.00000000000E+00 0. -1.
         -5    1    3    3    0  503 -0.48767419333E+02  0.54403069762E+02 -0.14941732539E+03  0.16638985040E+03  0.47000000000E+01 0.  1.
         11    1    4    4    0    0 -0.36474912930E+01 -0.65087991065E+01 -0.32854306719E+01  0.81524666968E+01  0.00000000000E+00 0. -1.
        -12    1    4    4    0    0  0.85707850086E+02  0.72540721394E+02 -0.47937110175E+03  0.49234606226E+03  0.00000000000E+00 0.  1.
</event>
<event>
12    1  0.8747122E-002  0.1877573E+03  0.7818608E-02  0.1160962E+00
         21   -1    0    0  503  502  0.00000000000E+00  0.00000000000E+00  0.80094597684E+03  0.80094597684E+03  0.00000000000E+00 0. -1.
         21   -1    0    0  501  503 -0.00000000000E+00 -0.00000000000E+00 -0.43744312413E+02  0.43744312413E+02  0.00000000000E+00 0. -1.
          6    2    1    2  501    0  0.37242801200E+02 -0.59265280051E+02  0.35209683288E+03  0.39903007059E+03  0.17422232306E+03 0.  0.
         24    2    3    3    0    0  0.28976871105E+02  0.18148313237E+02  0.85526981366E+02  0.12128420516E+03  0.78904838559E+02 0.  0.
         -6    2    1    2    0  502 -0.37242801200E+02  0.59265280051E+02  0.40510483155E+03  0.44566021866E+03  0.17205727620E+03 0.  0.
        -24    2    5    5    0    0 -0.71278976917E+02  0.60071741535E+02  0.17950310752E+03  0.21745561853E+03  0.79851573181E+02 0.  0.
          5    1    3    3  501    0  0.82659300943E+01 -0.77413593288E+02  0.26656985152E+03  0.27774586543E+03  0.47000000000E+01 0. -1.
        -13    1    4    4    0    0 -0.46724922653E+01 -0.12417961941E+02  0.72908318233E+02  0.74105740873E+02  0.00000000000E+00 0.  1.
         14    1    4    4    0    0  0.33649363371E+02  0.30566275178E+02  0.12618663133E+02  0.47178464290E+02  0.00000000000E+00 0. -1.
         -5    1    5    5    0  502  0.34036175718E+02 -0.80646148464E+00  0.22560172403E+03  0.22820460013E+03  0.47000000000E+01 0.  1.
         11    1    6    6    0    0 -0.25484908049E+02  0.67833609776E+02  0.81838199514E+02  0.10930860009E+03  0.00000000000E+00 0. -1.
        -12    1    6    6    0    0 -0.45794068868E+02 -0.77618682406E+01  0.97664908005E+02  0.10814701844E+03  0.00000000000E+00 0.  1.
</event>
<event>
12    1  0.8747122E-002  0.2752233E+03  0.7818608E-02  0.1098374E+00
         21   -1    0    0  501  502  0.00000000000E+00  0.00000000000E+00  0.19575572187E+03  0.19575572187E+03  0.00000000000E+00 0. -1.
         21   -1    0    0  502  503 -0.00000000000E+00 -0.00000000000E+00 -0.54174423296E+03  0.54174423296E+03  0.00000000000E+00 0.  1.
         -6    2    1    2    0  503 -0.13425134117E+03 -0.16927920044E+03 -0.37048670729E+03  0.46152817627E+03  0.17049629586E+03 0.  0.
        -24    2    3    3    0    0 -0.44972003977E+01 -0.38671993149E+02 -0.15135097019E+03  0.17528188211E+03  0.79378045786E+02 0.  0.
          6    2    1    2  501    0  0.13425134117E+03  0.16927920044E+03  0.24498196205E+02  0.27597177857E+03  0.16994525777E+03 0.  0.
         24    2    5    5    0    0  0.14083460682E+03  0.90908531777E+02  0.56215047747E+02  0.19104033701E+03  0.72370789300E+02 0.  0.
          5    1    5    5  501    0 -0.65832656424E+01  0.78370668662E+02 -0.31716851542E+02  0.84931441557E+02  0.47000000000E+01 0. -1.
        -13    1    6    6    0    0  0.41241336360E+02  0.68667317525E+00 -0.81397568405E+01  0.42042537819E+02  0.00000000000E+00 0.  1.
         14    1    6    6    0    0  0.99593270457E+02  0.90221858601E+02  0.64354804588E+02  0.14899779919E+03  0.00000000000E+00 0. -1.
         -5    1    3    3    0  503 -0.12975414078E+03 -0.13060720729E+03 -0.21913573710E+03  0.28624629416E+03  0.47000000000E+01 0.  1.
         11    1    4    4    0    0 -0.27491018222E+02  0.13422964514E+02 -0.65083300949E+02  0.71915006233E+02  0.00000000000E+00 0. -1.
        -12    1    4    4    0    0  0.22993817824E+02 -0.52094957663E+02 -0.86267669242E+02  0.10336687588E+03  0.00000000000E+00 0.  1.
</event>
<event>
12    1  0.8747122E-002  0.3324167E+03  0.7818608E-02  0.1070229E+00
         21   -1    0    0  503  502  0.00000000000E+00  0.00000000000E+00  0.36279131437E+03  0.36279131437E+03  0.00000000000E+00 0. -1.
         21   -1    0    0  501  503 -0.00000000000E+00 -0.00000000000E+00 -0.30921556062E+03  0.30921556062E+03  0.00000000000E+00 0. -1.
          6    2    1    2  501    0  0.13964335498E+02  0.28239394304E+03 -0.19716036530E+02  0.33300086378E+03  0.17481278971E+03 0.  0.
         24    2    3    3    0    0  0.59018716385E+02  0.22454814306E+03  0.26557597903E+02  0.24617130051E+03  0.77394610625E+02 0.  0.
         -6    2    1    2    0  502 -0.13964335498E+02 -0.28239394304E+03  0.73291790274E+02  0.33900601121E+03  0.17208151377E+03 0.  0.
        -24    2    5    5    0    0 -0.27934887546E+02 -0.29810392092E+03  0.66522864711E+02  0.31642530966E+03  0.77803466872E+02 0.  0.
          5    1    3    3  501    0 -0.45054380887E+02  0.57845799982E+02 -0.46273634433E+02  0.86829563262E+02  0.47000000000E+01 0. -1.
        -13    1    4    4    0    0  0.67255176809E+01  0.25492769645E+02  0.30510405736E+02  0.40323674813E+02  0.00000000000E+00 0.  1.
         14    1    4    4    0    0  0.52293198704E+02  0.19905537342E+03 -0.39528078330E+01  0.20584762570E+03  0.00000000000E+00 0. -1.
         -5    1    5    5    0  502  0.13970552048E+02  0.15709977871E+02  0.67689255632E+01  0.22580701550E+02  0.47000000000E+01 0.  1.
         11    1    6    6    0    0 -0.29724379143E+02 -0.25021977755E+03  0.25354479081E+02  0.25325150622E+03  0.00000000000E+00 0. -1.
        -12    1    6    6    0    0  0.17894915966E+01 -0.47884143367E+02  0.41168385630E+02  0.63173803443E+02  0.00000000000E+00 0.  1.
</event>
<event>
12    1  0.8747122E-002  0.1975081E+03  0.7818608E-02  0.1153278E+00
         21   -1    0    0  503  502  0.00000000000E+00  0.00000000000E+00  0.18116050870E+03  0.18116050870E+03  0.00000000000E+00 0. -1.
         21   -1    0    0  501  503 -0.00000000000E+00 -0.00000000000E+00 -0.22428423853E+03  0.22428423853E+03  0.00000000000E+00 0. -1.
          6    2    1    2  501    0  0.80201571604E+02 -0.19662811813E+02 -0.76006419577E+02  0.21162803197E+03  0.17941719495E+03 0.  0.
         24    2    3    3    0    0  0.41607175276E+02 -0.82210884727E+02 -0.36268972378E+02  0.12794444002E+03  0.81021940062E+02 0.  0.
         -6    2    1    2    0  502 -0.80201571604E+02  0.19662811813E+02  0.32882689745E+02  0.19381671526E+03  0.17223451911E+03 0.  0.
        -24    2    5    5    0    0 -0.10885616588E+03  0.41411072095E+02  0.55790126807E+02  0.15091085003E+03  0.78083318734E+02 0.  0.
          5    1    3    3  501    0  0.38594396328E+02  0.62548072914E+02 -0.39737447199E+02  0.83683591959E+02  0.47000000000E+01 0. -1.
        -13    1    4    4    0    0 -0.16983693475E+02  0.38119531964E+00  0.62706898722E+01  0.18108360097E+02  0.00000000000E+00 0.  1.
         14    1    4    4    0    0  0.58590868751E+02 -0.82592080047E+02 -0.42539662250E+02  0.10983607992E+03  0.00000000000E+00 0. -1.
         -5    1    5    5    0  502  0.28654594278E+02 -0.21748260283E+02 -0.22907437062E+02  0.42905865232E+02  0.47000000000E+01 0.  1.
         11    1    6    6    0    0 -0.10972235610E+03  0.17441655065E+02  0.28737213506E+02  0.11475641245E+03  0.00000000000E+00 0. -1.
        -12    1    6    6    0    0  0.86619021558E+00  0.23969417030E+02  0.27052913302E+02  0.36154437575E+02  0.00000000000E+00 0.  1.
</event>
<event>
12    1  0.8747122E-002  0.1715464E+03  0.7818608E-02  0.1176877E+00
         21   -1    0    0  503  502  0.00000000000E+00  0.00000000000E+00  0.13673738231E+03  0.13673738231E+03  0.00000000000E+00 0.  1.
         21   -1    0    0  501  503 -0.00000000000E+00 -0.00000000000E+00 -0.21471542287E+03  0.21471542287E+03  0.00000000000E+00 0.  1.
          6    2    1    2  501    0 -0.89542066778E+00  0.75895590606E+00 -0.57845234691E+02  0.17872900528E+03  0.16910531736E+03 0.  0.
         24    2    3    3    0    0  0.31191825756E+02 -0.38102314444E+02 -0.78802296161E+02  0.12394690837E+03  0.82026324158E+02 0.  0.
         -6    2    1    2    0  502  0.89542066778E+00 -0.75895590606E+00 -0.20132805870E+02  0.17272379990E+03  0.17154242446E+03 0.  0.
        -24    2    5    5    0    0  0.63045076431E+01 -0.57034076914E+02 -0.54767733177E+02  0.10625714920E+03  0.70699677600E+02 0.  0.
          5    1    3    3  501    0 -0.32087246423E+02  0.38861270351E+02  0.20957061470E+02  0.54782096909E+02  0.47000000000E+01 0. -1.
        -11    1    4    4    0    0  0.36112417002E+02 -0.35831102810E+02 -0.63210569901E+01  0.51263343158E+02  0.00000000000E+00 0.  1.
         12    1    4    4    0    0 -0.49205912461E+01 -0.22712116344E+01 -0.72481239171E+02  0.72683565214E+02  0.00000000000E+00 0. -1.
         -5    1    5    5    0  502 -0.54090869753E+01  0.56275121008E+02  0.34634927307E+02  0.66466650705E+02  0.47000000000E+01 0.  1.
         13    1    6    6    0    0  0.21421524394E+02 -0.15373603316E+02  0.96405642712E+01  0.28074363141E+02  0.00000000000E+00 0. -1.
        -14    1    6    6    0    0 -0.15117016751E+02 -0.41660473598E+02 -0.64408297448E+02  0.78182786059E+02  0.00000000000E+00 0.  1.
</event>
<event>
12    1  0.8747122E-002  0.1922489E+03  0.7818608E-02  0.1156645E+00
         21   -1    0    0  501  502  0.00000000000E+00  0.00000000000E+00  0.33228622681E+03  0.33228622681E+03  0.00000000000E+00 0.  1.
         21   -1    0    0  502  503 -0.00000000000E+00 -0.00000000000E+00 -0.74350204904E+03  0.74350204904E+03  0.00000000000E+00 0.  1.
         -6    2    1    2    0  503  0.66459236616E+02  0.53420462519E+02 -0.70176789286E+03  0.72739174115E+03  0.17131839856E+03 0.  0.
        -24    2    3    3    0    0  0.40961082059E+02  0.58301233926E+02 -0.21910981921E+03  0.24401312776E+03  0.80352034974E+02 0.  0.
          6    2    1    2  501    0 -0.66459236616E+02 -0.53420462519E+02  0.29055207064E+03  0.34839653470E+03  0.17230514703E+03 0.  0.
         24    2    5    5    0    0 -0.61952074153E+02  0.33130332330E+02  0.13632730595E+03  0.17142556915E+03  0.76589248596E+02 0.  0.
          5    1    5    5  501    0 -0.45071624634E+01 -0.86550794849E+02  0.15422476469E+03  0.17697096555E+03  0.47000000000E+01 0. -1.
        -11    1    6    6    0    0 -0.63144891727E+02 -0.71252370884E+01  0.87284988086E+02  0.10796627020E+03  0.00000000000E+00 0.  1.
         12    1    6    6    0    0  0.11928175741E+01  0.40255569419E+02  0.49042317860E+02  0.63459298956E+02  0.00000000000E+00 0. -1.
         -5    1    3    3    0  503  0.25498154558E+02 -0.48807714076E+01 -0.48265807365E+03  0.48337861339E+03  0.47000000000E+01 0.  1.
         13    1    4    4    0    0 -0.86106650035E+01  0.16919276521E+02 -0.39749280551E+01  0.19396018221E+02  0.00000000000E+00 0. -1.
        -14    1    4    4    0    0  0.49571747062E+02  0.41381957405E+02 -0.21513489116E+03  0.22461710954E+03  0.00000000000E+00 0.  1.
</event>
<event>
12    1  0.8747122E-002  0.2720156E+03  0.7818608E-02  0.1100177E+00
         21   -1    0    0  501  502  0.00000000000E+00  0.00000000000E+00  0.91282213529E+03  0.91282213529E+03  0.00000000000E+00 0. -1.
         21   -1    0    0  502  503 -0.00000000000E+00 -0.00000000000E+00 -0.81886698299E+02  0.81886698299E+02  0.00000000000E+00 0.  1.
         -6    2    1    2    0  503  0.11430831223E+03 -0.17746642564E+03  0.36241747434E+03  0.45295098320E+03  0.17104807802E+03 0.  0.
        -24    2    3    3    0    0  0.64748089082E+02 -0.10999766455E+03  0.10720402491E+03  0.18431694922E+03  0.78665326320E+02 0.  0.
          6    2    1    2  501    0 -0.11430831223E+03  0.17746642564E+03  0.46851796264E+03  0.54175785039E+03  0.17155688462E+03 0.  0.
         24    2    5    5    0    0 -0.37786309291E+02  0.39636202431E+02  0.27802245096E+03  0.29444546223E+03  0.80017581054E+02 0.  0.
          5    1    5    5  501    0 -0.76522002939E+02  0.13783022321E+03  0.19049551169E+03  0.24731238816E+03  0.47000000000E+01 0. -1.
        -11    1    6    6    0    0  0.50285744850E+01 -0.95408275879E+01  0.15355611246E+03  0.15393438091E+03  0.00000000000E+00 0.  1.
         12    1    6    6    0    0 -0.42814883775E+02  0.49177030019E+02  0.12446633849E+03  0.14051108131E+03  0.00000000000E+00 0. -1.
         -5    1    3    3    0  503  0.49560223147E+02 -0.67468761089E+02  0.25521344943E+03  0.26863403398E+03  0.47000000000E+01 0.  1.
         13    1    4    4    0    0 -0.56100517579E+01 -0.61256494264E+02  0.62741862026E+02  0.87865647558E+02  0.00000000000E+00 0. -1.
        -14    1    4    4    0    0  0.70358140840E+02 -0.48741170289E+02  0.44462162885E+02  0.96451301660E+02  0.00000000000E+00 0.  1.
</event>
<event>
12    1  0.8747122E-002  0.2004802E+03  0.7818608E-02  0.1149929E+00
         21   -1    0    0  501  502  0.00000000000E+00  0.00000000000E+00  0.25445106069E+03  0.25445106069E+03  0.00000000000E+00 0. -1.
         21   -1    0    0  502  503 -0.00000000000E+00 -0.00000000000E+00 -0.15611030496E+03  0.15611030496E+03  0.00000000000E+00 0. -1.
         -6    2    1    2    0  503 -0.55171905071E+02  0.87827743125E+02  0.59344084780E+02  0.20907896372E+03  0.17156526775E+03 0.  0.
        -24    2    3    3    0    0  0.27671826682E+02  0.69923400181E+01  0.22806128697E+02  0.87610620017E+02  0.79629632818E+02 0.  0.
          6    2    1    2  501    0  0.55171905071E+02 -0.87827743125E+02  0.38996670956E+02  0.20148240194E+03  0.16827586391E+03 0.  0.
         24    2    5    5    0    0  0.85195609343E+02 -0.29242133908E+02  0.58676984997E+02  0.13261222562E+03  0.77650625033E+02 0.  0.
          5    1    5    5  501    0 -0.30023704272E+02 -0.58585609217E+02 -0.19680314041E+02  0.68870176320E+02  0.47000000000E+01 0. -1.
        -13    1    6    6    0    0 -0.32998822675E+01  0.15344668895E+02 -0.28777156279E+01  0.15957109190E+02  0.00000000000E+00 0.  1.
         14    1    6    6    0    0  0.88495491610E+02 -0.44586802803E+02  0.61554700625E+02  0.11665511643E+03  0.00000000000E+00 0. -1.
         -5    1    3    3    0  503 -0.82843731753E+02  0.80835403107E+02  0.36537956083E+02  0.12146834370E+03  0.47000000000E+01 0.  1.
         13    1    4    4    0    0  0.18056502875E+02  0.40574104589E+02 -0.24925744235E+01  0.44480424756E+02  0.00000000000E+00 0. -1.
        -14    1    4    4    0    0  0.96153238067E+01 -0.33581764571E+02  0.25298703121E+02  0.43130195260E+02  0.00000000000E+00 0.  1.
</event>
<event>
12    1  0.8747122E-002  0.1850080E+03  0.7818608E-02  0.1163737E+00
         21   -1    0    0  503  502  0.00000000000E+00  0.00000000000E+00  0.60226402482E+03  0.60226402482E+03  0.00000000000E+00 0. -1.
         21   -1    0    0  501  503 -0.00000000000E+00 -0.00000000000E+00 -0.84907753238E+02  0.84907753238E+02  0.00000000000E+00 0. -1.
          6    2    1    2  501    0 -0.59145043338E+02 -0.51110462906E+00  0.59329777868E+02  0.19428837100E+03  0.17529846316E+03 0.  0.
         24    2    3    3    0    0 -0.97781634174E+02 -0.21908906667E+02  0.73624692878E+02  0.14762910956E+03  0.79577072161E+02 0.  0.
         -6    2    1    2    0  502  0.59145043338E+02  0.51110462906E+00  0.45802649371E+03  0.49288340705E+03  0.17218416486E+03 0.  0.
        -24    2    5    5    0    0  0.37467810511E+02  0.58248427013E+02  0.18384830805E+03  0.21181532222E+03  0.79175844049E+02 0.  0.
          5    1    3    3  501    0  0.38636590836E+02  0.21397802038E+02 -0.14294915010E+02  0.46659261445E+02  0.47000000000E+01 0. -1.
        -13    1    4    4    0    0 -0.28739565533E+02 -0.13796913885E+02  0.71266694870E+02  0.78072141366E+02  0.00000000000E+00 0.  1.
         14    1    4    4    0    0 -0.69042068640E+02 -0.81119927812E+01  0.23579980073E+01  0.69556968189E+02  0.00000000000E+00 0. -1.
         -5    1    5    5    0  502  0.21677232827E+02 -0.57737322384E+02  0.27417818566E+03  0.28106808483E+03  0.47000000000E+01 0.  1.
         11    1    6    6    0    0  0.19984919540E+02  0.66538053774E+02  0.79028023964E+02  0.10522422811E+03  0.00000000000E+00 0. -1.
        -12    1    6    6    0    0  0.17482890971E+02 -0.82896267615E+01  0.10482028409E+03  0.10659109411E+03  0.00000000000E+00 0.  1.
</event>
<event>
12    1  0.8747122E-002  0.2173723E+03  0.7818608E-02  0.1135966E+00
         21   -1    0    0  501  502  0.00000000000E+00  0.00000000000E+00  0.14734201623E+03  0.14734201623E+03  0.00000000000E+00 0. -1.
         21   -1    0    0  502  503 -0.00000000000E+00 -0.00000000000E+00 -0.38573371742E+03  0.38573371742E+03  0.00000000000E+00 0. -1.
         -6    2    1    2    0  503 -0.12865928031E+03 -0.27192883936E+02 -0.91658844884E+01  0.21756541333E+03  0.17308388802E+03 0.  0.
        -24    2    3    3    0    0 -0.86042501911E+02 -0.83177714151E+02  0.61509274219E+01  0.14540458086E+03  0.82357840920E+02 0.  0.
          6    2    1    2  501    0  0.12865928031E+03  0.27192883936E+02 -0.22922581670E+03  0.31551032032E+03  0.17236479874E+03 0.  0.
         24    2    5    5    0    0  0.15354122394E+03  0.51330467483E+01 -0.14679123188E+03  0.22649740941E+03  0.78435674870E+02 0.  0.
          5    1    5    5  501    0 -0.24881943635E+02  0.22059837188E+02 -0.82434584820E+02  0.89012910919E+02  0.47000000000E+01 0. -1.
        -11    1    6    6    0    0 -0.87759613229E+01  0.25860076200E+01 -0.29809032413E+01  0.96224070111E+01  0.00000000000E+00 0.  1.
         12    1    6    6    0    0  0.16231718527E+03  0.25470391282E+01 -0.14381032863E+03  0.21687500239E+03  0.00000000000E+00 0. -1.
         -5    1    3    3    0  503 -0.42616778399E+02  0.55984830215E+02 -0.15316811910E+02  0.72160832468E+02  0.47000000000E+01 0.  1.
         11    1    4    4    0    0 -0.45177955825E+02 -0.15796731714E+02  0.37288851820E+02  0.60671598755E+02  0.00000000000E+00 0. -1.
        -12    1    4    4    0    0 -0.40864546086E+02 -0.67380982437E+02 -0.31137924398E+02  0.84732982108E+02  0.00000000000E+00 0.  1.
</event>
<event>
12    1  0.8747122E-002  0.2314499E+03  0.7818608E-02  0.1125642E+00
         21   -1    0    0  503  502  0.00000000000E+00  0.00000000000E+00  0.22483190478E+03  0.22483190478E+03  0.00000000000E+00 0. -1.
         21   -1    0    0  501  503 -0.00000000000E+00 -0.00000000000E+00 -0.31715791659E+03  0.31715791659E+03  0.00000000000E+00 0.  1.
          6    2    1    2  501    0  0.13757296393E+03 -0.70690041283E+02 -0.18140999238E+03  0.29398780383E+03  0.17203441843E+03 0.  0.
         24    2    3    3    0    0  0.75293513588E+02 -0.78264704521E+02 -0.41059791913E+02  0.14018151583E+03  0.78552362824E+02 0.  0.
         -6    2    1    2    0  502 -0.13757296393E+03  0.70690041283E+02  0.89083980571E+02  0.24800201754E+03  0.17217910085E+03 0.  0.
        -24    2    5    5    0    0 -0.77897668177E+02 -0.22879294107E+01  0.10262914719E+03  0.15264748609E+03  0.81824396291E+02 0.  0.
          5    1    3    3  501    0  0.62279450341E+02  0.75746632377E+01 -0.14035020047E+03  0.15380628800E+03  0.47000000000E+01 0. -1.
        -11    1    4    4    0    0 -0.10830572299E+01  0.12608465886E+02 -0.13124803669E+02  0.18232029407E+02  0.00000000000E+00 0.  1.
         12    1    4    4    0    0  0.76376570817E+02 -0.90873170407E+02 -0.27934988244E+02  0.12194948642E+03  0.00000000000E+00 0. -1.
         -5    1    5    5    0  502 -0.59675295752E+02  0.72977970694E+02 -0.13545166619E+02  0.95354531452E+02  0.47000000000E+01 0.  1.
         11    1    6    6    0    0  0.85647429776E+01  0.16029690106E+02  0.41153974239E+02  0.44988391645E+02  0.00000000000E+00 0. -1.
        -12    1    6    6    0    0 -0.86462411155E+02 -0.18317619516E+02  0.61475172952E+02  0.10765909445E+03  0.00000000000E+00 0.  1.
</event>
<event>
12    1  0.8747122E-002  0.2233033E+03  0.7818608E-02  0.1131490E+00
         21   -1    0    0  501  502  0.00000000000E+00  0.00000000000E+00  0.64582734528E+03  0.64582734528E+03  0.00000000000E+00 0.  1.
         21   -1    0    0  502  503 -0.00000000000E+00 -0.00000000000E+00 -0.11315534648E+03  0.11315534648E+03  0.00000000000E+00 0.  1.
         -6    2    1    2    0  503  0.10895700002E+03  0.92226115828E+02  0.52088273060E+02  0.22905339237E+03  0.17139131854E+03 0.  0.
        -24    2    3    3    0    0  0.78554876716E+02 -0.56160406946E+01  0.10749408933E+01  0.11450285002E+03  0.83110400045E+02 0.  0.
          6    2    1    2  501    0 -0.10895700002E+03 -0.92226115828E+02  0.48058372574E+03  0.52992929939E+03  0.17171796822E+03 0.  0.
         24    2    5    5    0    0 -0.14504950949E+03 -0.66891883736E+02  0.39633276643E+03  0.43472002095E+03  0.79924655494E+02 0.  0.
          5    1    5    5  501    0  0.36092509473E+02 -0.25334232092E+02  0.84250959313E+02  0.95209278439E+02  0.47000000000E+01 0. -1.
        -11    1    6    6    0    0  0.47768734947E+01 -0.19317350870E+02  0.29066052428E+02  0.35225189407E+02  0.00000000000E+00 0.  1.
         12    1    6    6    0    0 -0.14982638299E+03 -0.47574532866E+02  0.36726671400E+03  0.39949483154E+03  0.00000000000E+00 0. -1.
         -5    1    3    3    0  503  0.30402123303E+02  0.97842156522E+02  0.51013332167E+02  0.11455054235E+03  0.47000000000E+01 0.  1.
         11    1    4    4    0    0  0.56376961569E+02  0.10946120880E+02  0.37622938839E+02  0.68656135086E+02  0.00000000000E+00 0. -1.
        -12    1    4    4    0    0  0.22177915147E+02 -0.16562161574E+02 -0.36547997946E+02  0.45846714933E+02  0.00000000000E+00 0.  1.
</event>
<event>
12    1  0.8747122E-002  0.1801462E+03  0.7818608E-02  0.1168384E+00
         21   -1    0    0  503  502  0.00000000000E+00  0.00000000000E+00  0.43517177674E+03  0.43517177674E+03  0.00000000000E+00 0. -1.
         21   -1    0    0  501  503 -0.00000000000E+00 -0.00000000000E+00 -0.62258744992E+03  0.62258744992E+03  0.00000000000E+00 0. -1.
          6    2    1    2  501    0 -0.17455249896E+02  0.41207631450E+02 -0.59036125763E+03  0.61637752998E+03  0.17144121533E+03 0.  0.
         24    2    3    3    0    0 -0.73744989866E+02  0.31356531056E+02 -0.46229943348E+03  0.47606537866E+03  0.80597288960E+02 0.  0.
         -6    2    1    2    0  502  0.17455249896E+02 -0.41207631450E+02  0.40294558446E+03  0.44138169667E+03  0.17449900711E+03 0.  0.
        -24    2    5    5    0    0 -0.52762124717E+02  0.94952151702E+00  0.25481996091E+03  0.27205657865E+03  0.79352543177E+02 0.  0.
          5    1    3    3  501    0  0.56289739970E+02  0.98511003943E+01 -0.12806182415E+03  0.14031215133E+03  0.47000000000E+01 0. -1.
        -13    1    4    4    0    0 -0.71405305988E+02  0.67677211240E+01 -0.19757858554E+03  0.21019471267E+03  0.00000000000E+00 0.  1.
         14    1    4    4    0    0 -0.23396838778E+01  0.24588809932E+02 -0.26472084794E+03  0.26587066598E+03  0.00000000000E+00 0. -1.
         -5    1    5    5    0  502  0.70217374613E+02 -0.42157152967E+02  0.14812562354E+03  0.16932511803E+03  0.47000000000E+01 0.  1.
         13    1    6    6    0    0 -0.45008567557E+02  0.23768730143E+02  0.75072548022E+02  0.90700667873E+02  0.00000000000E+00 0. -1.
        -14    1    6    6    0    0 -0.77535571603E+01 -0.22819208626E+02  0.17974741289E+03  0.18135591077E+03  0.00000000000E+00 0.  1.
</event>
<event>
12    1  0.8747122E-002  0.1845624E+03  0.7818608E-02  0.1163472E+00
         21   -1    0    0  501  502  0.00000000000E+00  0.00000000000E+00  0.28170620144E+03  0.28170620144E+03  0.00000000000E+00 0.  1.
         21   -1    0    0  502  503 -0.00000000000E+00 -0.00000000000E+00 -0.12227126939E+03  0.12227126939E+03  0.00000000000E+00 0.  1.
         -6    2    1    2    0  503 -0.34095924224E+02 -0.59870618183E+02  0.10124018626E+03  0.21045764376E+03  0.17116022182E+03 0.  0.
        -24    2    3    3    0    0  0.10705093473E+02 -0.88409595200E+02  0.10169193450E+03  0.15712942916E+03  0.80109627495E+02 0.  0.
          6    2    1    2  501    0  0.34095924224E+02  0.59870618183E+02  0.58194745788E+02  0.19351982706E+03  0.17121995228E+03 0.  0.
         24    2    5    5    0    0  0.62310975143E+02  0.55566728757E+02  0.93667575642E+02  0.14774839252E+03  0.78010600540E+02 0.  0.
          5    1    5    5  501    0 -0.28215050919E+02  0.43038894260E+01 -0.35472829853E+02  0.45771434545E+02  0.47000000000E+01 0. -1.
        -13    1    6    6    0    0 -0.21239421069E+01  0.10928448436E+02  0.62351988056E+02  0.63338081198E+02  0.00000000000E+00 0.  1.
         14    1    6    6    0    0  0.64434917250E+02  0.44638280321E+02  0.31315587585E+02  0.84410311318E+02  0.00000000000E+00 0. -1.
         -5    1    3    3    0  503 -0.44801017697E+02  0.28538977017E+02 -0.45174823882E+00  0.53328214599E+02  0.47000000000E+01 0.  1.
         13    1    4    4    0    0 -0.30446690697E+02 -0.14930610146E+02  0.41603805996E+02  0.53673091648E+02  0.00000000000E+00 0. -1.
        -14    1    4    4    0    0  0.41151784170E+02 -0.73478985055E+02  0.60088128505E+02  0.10345633752E+03  0.00000000000E+00 0.  1.
</event>
<event>
12    1  0.8747122E-002  0.2140532E+03  0.7818608E-02  0.1139243E+00
         21   -1    0    0  501  502  0.00000000000E+00  0.00000000000E+00  0.12962135064E+03  0.12962135064E+03  0.00000000000E+00 0. -1.
         21   -1    0    0  502  503 -0.00000000000E+00 -0.00000000000E+00 -0.35963457359E+03  0.35963457359E+03  0.00000000000E+00 0.  1.
         -6    2    1    2    0  503  0.70067128068E+02  0.10758549389E+03 -0.16315130547E+03  0.26914147767E+03  0.17127389059E+03 0.  0.
        -24    2    3    3    0    0  0.79644567294E+02  0.57398198860E+02 -0.35673379716E+02  0.13172530876E+03  0.80256816633E+02 0.  0.
          6    2    1    2  501    0 -0.70067128068E+02 -0.10758549389E+03 -0.66861917477E+02  0.22011444655E+03  0.16581861367E+03 0.  0.
         24    2    5    5    0    0 -0.26376190797E+02 -0.84624955106E+02 -0.10446243719E+03  0.15788926336E+03  0.78482687481E+02 0.  0.
          5    1    5    5  501    0 -0.43690937271E+02 -0.22960538787E+02  0.37600519708E+02  0.62225183192E+02  0.47000000000E+01 0. -1.
        -13    1    6    6    0    0  0.27459209686E+02 -0.21188404019E+02 -0.24261705747E+02  0.42327142914E+02  0.00000000000E+00 0.  1.
         14    1    6    6    0    0 -0.53835400483E+02 -0.63436551087E+02 -0.80200731438E+02  0.11556212045E+03  0.00000000000E+00 0. -1.
         -5    1    3    3    0  503 -0.95774392257E+01  0.50187295033E+02 -0.12747792575E+03  0.13741616891E+03  0.47000000000E+01 0.  1.
         13    1    4    4    0    0  0.85001003305E+02  0.21671009342E+02 -0.37840667540E+02  0.95533864826E+02  0.00000000000E+00 0. -1.
        -14    1    4    4    0    0 -0.53564360114E+01  0.35727189517E+02  0.21672878238E+01  0.36191443935E+02  0.00000000000E+00 0.  1.
</event>
<event>
12    1  0.8747122E-002  0.1810356E+03  0.7818608E-02  0.1168757E+00
         21   -1    0    0  501  502  0.00000000000E+00  0.00000000000E+00  0.17324828175E+03  0.17324828175E+03  0.00000000000E+00 0. -1.
         21   -1    0    0  502  503 -0.00000000000E+00 -0.00000000000E+00 -0.19083296077E+03  0.19083296077E+03  0.00000000000E+00 0. -1.
         -6    2    1    2    0  503  0.50158152770E+02 -0.30259990928E+02 -0.50356359164E+02  0.18790865455E+03  0.17129621189E+03 0.  0.
        -24    2    3    3    0    0 -0.37556765950E+01 -0.13349318171E+01  0.29227418159E+02  0.87414736058E+02  0.82287343852E+02 0.  0.
          6    2    1    2  501    0 -0.50158152770E+02  0.30259990928E+02  0.32771680149E+02  0.17617258797E+03  0.16288428528E+03 0.  0.
         24    2    5    5    0    0  0.30354374135E+02  0.40156250511E+02  0.26557744460E+02  0.94680834161E+02  0.75665276596E+02 0.  0.
          5    1    5    5  501    0 -0.80512526905E+02 -0.98962595829E+01  0.62139356888E+01  0.81491753810E+02  0.47000000000E+01 0. -1.
        -11    1    6    6    0    0  0.85946896475E+01 -0.11027547855E+02  0.35679132445E+02  0.38320699287E+02  0.00000000000E+00 0.  1.
         12    1    6    6    0    0  0.21759684488E+02  0.51183798367E+02 -0.91213879846E+01  0.56360134874E+02  0.00000000000E+00 0. -1.
         -5    1    3    3    0  503  0.53913829365E+02 -0.28925059111E+02 -0.79583777323E+02  0.10049391849E+03  0.47000000000E+01 0.  1.
         11    1    4    4    0    0 -0.19880699970E+02 -0.33388760363E+02  0.33466307052E+02  0.51283966867E+02  0.00000000000E+00 0. -1.
        -12    1    4    4    0    0  0.16125023375E+02  0.32053828546E+02 -0.42388888931E+01  0.36130769191E+02  0.00000000000E+00 0.  1.
</event>
<event>
12    1  0.8747122E-002  0.1984529E+03  0.7818608E-02  0.1151287E+00
         21   -1    0    0  501  502  0.00000000000E+00  0.00000000000E+00  0.23953430794E+04  0.23953430794E+04  0.00000000000E+00 0. -1.
         21   -1    0    0  502  503 -0.00000000000E+00 -0.00000000000E+00 -0.18073125118E+02  0.18073125118E+02  0.00000000000E+00 0. -1.
         -6    2    1    2    0  503 -0.24704500931E+02  0.93966702130E+02  0.81905945048E+03  0.84275853889E+03  0.17304195439E+03 0.  0.
        -24    2    3    3    0    0  0.53502252227E+02  0.60708504246E+02  0.46221975694E+03  0.47590835032E+03  0.79332469537E+02 0.  0.
          6    2    1    2  501    0  0.24704500931E+02 -0.93966702130E+02  0.15582105039E+04  0.15706576657E+04  0.17177157784E+03 0.  0.
         24    2    5    5    0    0  0.76911337391E+02 -0.60131144782E+02  0.12359155664E+04  0.12423795589E+04  0.80551676467E+02 0.  0.
          5    1    5    5  501    0 -0.52206836460E+02 -0.33835557348E+02  0.32229493741E+03  0.32827810679E+03  0.47000000000E+01 0. -1.
        -13    1    6    6    0    0  0.51729946350E+02 -0.34968191730E+00  0.31852617770E+03  0.32269960568E+03  0.00000000000E+00 0.  1.
         14    1    6    6    0    0  0.25181391041E+02 -0.59781462864E+02  0.91738938874E+03  0.91967995321E+03  0.00000000000E+00 0. -1.
         -5    1    3    3    0  503 -0.78206753158E+02  0.33258197883E+02  0.35683969354E+03  0.36685018857E+03  0.47000000000E+01 0.  1.
         11    1    4    4    0    0  0.17366356185E+02  0.57026799049E+02  0.39526993752E+03  0.39973987748E+03  0.00000000000E+00 0. -1.
        -12    1    4    4    0    0  0.36135896042E+02  0.36817051972E+01  0.66949819415E+02  0.76168472845E+02  0.00000000000E+00 0.  1.
</event>
<event>
12    1  0.8747122E-002  0.1833925E+03  0.7818608E-02  0.1164792E+00
         21   -1    0    0  501  502  0.00000000000E+00  0.00000000000E+00  0.35822492521E+03  0.35822492521E+03  0.00000000000E+00 0.  1.
         21   -1    0    0  502  503 -0.00000000000E+00 -0.00000000000E+00 -0.28171414307E+03  0.28171414307E+03  0.00000000000E+00 0.  1.
         -6    2    1    2    0  503  0.13505642562E+02 -0.57442818581E+02 -0.22332561727E+03  0.28897599799E+03  0.17363961615E+03 0.  0.
        -24    2    3    3    0    0  0.76894676788E+02 -0.35702983865E+02 -0.11595670251E+03  0.16232307094E+03  0.75599789203E+02 0.  0.
          6    2    1    2  501    0 -0.13505642562E+02  0.57442818581E+02  0.29983639941E+03  0.35096307029E+03  0.17260107333E+03 0.  0.
         24    2    5    5    0    0 -0.99435441699E+01  0.15941402851E+02  0.29718116347E+03  0.30896073309E+03  0.82383786490E+02 0.  0.
          5    1    5    5  501    0 -0.35620983923E+01  0.41501415730E+02  0.26552359359E+01  0.42002337202E+02  0.47000000000E+01 0. -1.
        -11    1    6    6    0    0 -0.33733027679E+01  0.30672667203E+02  0.36563302572E+02  0.47844192750E+02  0.00000000000E+00 0.  1.
         12    1    6    6    0    0 -0.65702414020E+01 -0.14731264352E+02  0.26061786090E+03  0.26111654034E+03  0.00000000000E+00 0. -1.
         -5    1    3    3    0  503 -0.63389034226E+02 -0.21739834716E+02 -0.10736891476E+03  0.12665292705E+03  0.47000000000E+01 0.  1.
         11    1    4    4    0    0  0.47198531000E+02 -0.58401445199E+02 -0.87777982396E+02  0.11551365427E+03  0.00000000000E+00 0. -1.
        -12    1    4    4    0    0  0.29696145788E+02  0.22698461334E+02 -0.28178720117E+02  0.46809416671E+02  0.00000000000E+00 0.  1.
</event>
<event>
12    1  0.8747122E-002  0.2286600E+03  0.7818608E-02  0.1127758E+00
         21   -1    0    0  501  502  0.00000000000E+00  0.00000000000E+00  0.27102113320E+03  0.27102113320E+03  0.00000000000E+00 0. -1.
         21   -1    0    0  502  503 -0.00000000000E+00 -0.00000000000E+00 -0.42005484829E+03  0.42005484829E+03  0.00000000000E+00 0. -1.
         -6    2    1    2    0  503  0.14792451531E+03 -0.17864665455E+02 -0.32898776949E+03  0.40009682949E+03  0.17217349386E+03 0.  0.
        -24    2    3    3    0    0  0.50818265648E+02 -0.48729317565E+02 -0.90593281117E+02  0.14079724877E+03  0.81606863452E+02 0.  0.
          6    2    1    2  501    0 -0.14792451531E+03  0.17864665455E+02  0.17995405440E+03  0.29097915201E+03  0.17344911850E+03 0.  0.
         24    2    5    5    0    0 -0.15770316627E+02 -0.15950553992E+02  0.23531526679E+02  0.83377855109E+02  0.76778974436E+02 0.  0.
          5    1    5    5  501    0 -0.13215419868E+03  0.33815219447E+02  0.15642252772E+03  0.20760129690E+03  0.47000000000E+01 0. -1.
        -13    1    6    6    0    0 -0.36235193293E+01  0.31137695800E+02  0.85548377502E+01  0.32494172416E+02  0.00000000000E+00 0.  1.
         14    1    6    6    0    0 -0.12146797298E+02 -0.47088249792E+02  0.14976688929E+02  0.50883682693E+02  0.00000000000E+00 0. -1.
         -5    1    3    3    0  503  0.97106249662E+02  0.30864652110E+02 -0.23839448838E+03  0.25929958072E+03  0.47000000000E+01 0.  1.
         13    1    4    4    0    0  0.26692881386E+02 -0.13579438782E+02 -0.93388451973E+02  0.98073003606E+02  0.00000000000E+00 0. -1.
        -14    1    4    4    0    0  0.24125384263E+02 -0.35149878784E+02  0.27951708563E+01  0.42724245159E+02  0.00000000000E+00 0.  1.
</event>
<event>
12    1  0.8747122E-002  0.1726263E+03  0.7818608E-02  0.1175292E+00
         21   -1    0    0  501  502  0.00000000000E+00  0.00000000000E+00  0.19667872116E+02  0.19667872116E+02  0.00000000000E+00 0.  1.
         21   -1    0    0  502  503 -0.00000000000E+00 -0.00000000000E+00 -0.18309726010E+04  0.18309726010E+04  0.00000000000E+00 0.  1.
         -6    2    1    2    0  503  0.11446335789E+02  0.12955625807E+02 -0.12944986467E+04  0.13059581143E+04  0.17175850235E+03 0.  0.
        -24    2    3    3    0    0 -0.13957574035E+02 -0.56981003897E+02 -0.68978075259E+03  0.69666154260E+03  0.78090778107E+02 0.  0.
          6    2    1    2  501    0 -0.11446335789E+02 -0.12955625807E+02 -0.51680608223E+03  0.54468235887E+03  0.17114753458E+03 0.  0.
         24    2    5    5    0    0 -0.35445836225E+02 -0.68141942681E+02 -0.35065425905E+03  0.36790559587E+03  0.80600163926E+02 0.  0.
          5    1    5    5  501    0  0.23999500436E+02  0.55186316874E+02 -0.16615182318E+03  0.17677676300E+03  0.47000000000E+01 0. -1.
        -11    1    6    6    0    0 -0.11155611933E+01 -0.11847171038E+02 -0.83766357198E+00  0.11929024212E+02  0.00000000000E+00 0.  1.
         12    1    6    6    0    0 -0.34330275032E+02 -0.56294771643E+02 -0.34981659548E+03  0.35597657166E+03  0.00000000000E+00 0. -1.
         -5    1    3    3    0  503  0.25403909824E+02  0.69936629704E+02 -0.60471789409E+03  0.60929657166E+03  0.47000000000E+01 0.  1.
         11    1    4    4    0    0 -0.45340802192E+02 -0.26580349156E+02 -0.43469402013E+03  0.43785978857E+03  0.00000000000E+00 0. -1.
        -12    1    4    4    0    0  0.31383228158E+02 -0.30400654741E+02 -0.25508673245E+03  0.25880175404E+03  0.00000000000E+00 0.  1.
</event>
<event>
12    1  0.8747122E-002  0.2308600E+03  0.7818608E-02  0.1126963E+00
         21   -1    0    0  503  502  0.00000000000E+00  0.00000000000E+00  0.30515464731E+04  0.30515464731E+04  0.00000000000E+00 0. -1.
         21   -1    0    0  501  503 -0.00000000000E+00 -0.00000000000E+00 -0.24891394431E+02  0.24891394431E+02  0.00000000000E+00 0.  1.
          6    2    1    2  501    0 -0.13293595975E+03  0.57837628966E+02  0.63934464468E+03  0.67799098974E+03  0.17289605770E+03 0.  0.
         24    2    3    3    0    0 -0.82460314385E+02 -0.22561816196E+02  0.43196496783E+03  0.44986759785E+03  0.92078136181E+02 0.  0.
         -6    2    1    2    0  502  0.13293595975E+03 -0.57837628966E+02  0.23873104340E+04  0.23984468778E+04  0.17966401040E+03 0.  0.
        -24    2    5    5    0    0  0.16678215404E+03 -0.37721285157E+02  0.20726069057E+04  0.20812550858E+04  0.81756740179E+02 0.  0.
          5    1    3    3  501    0 -0.50475645367E+02  0.80399445162E+02  0.20737967685E+03  0.22812339189E+03  0.47000000000E+01 0. -1.
        -13    1    4    4    0    0 -0.13931860232E+02  0.32788779054E+02  0.91489199761E+02  0.98180825187E+02  0.00000000000E+00 0.  1.
         14    1    4    4    0    0 -0.68528454153E+02 -0.55350595249E+02  0.34047576807E+03  0.35168677266E+03  0.00000000000E+00 0. -1.
         -5    1    5    5    0  502 -0.33846194293E+02 -0.20116343809E+02  0.31470352830E+03  0.31719179195E+03  0.47000000000E+01 0.  1.
         11    1    6    6    0    0  0.93944918791E+02  0.18567690847E+02  0.11962321637E+04  0.12000590804E+04  0.00000000000E+00 0. -1.
        -12    1    6    6    0    0  0.72837235254E+02 -0.56288976004E+02  0.87637474196E+03  0.88119600544E+03  0.00000000000E+00 0.  1.
</event>
<event>
12    1  0.8747122E-002  0.2528682E+03  0.7818608E-02  0.1111742E+00
         21   -1    0    0  501  502  0.00000000000E+00  0.00000000000E+00  0.44207365022E+03  0.44207365022E+03  0.00000000000E+00 0. -1.
         21   -1    0    0  502  503 -0.00000000000E+00 -0.00000000000E+00 -0.14577430159E+03  0.14577430159E+03  0.00000000000E+00 0.  1.
         -6    2    1    2    0  503  0.16785760022E+03  0.76070906719E+02  0.18210808331E+03  0.31039169969E+03  0.17092892216E+03 0.  0.
        -24    2    3    3    0    0  0.59620122864E+02 -0.24837853788E+02  0.88544512989E+02  0.13525129561E+03  0.79254679059E+02 0.  0.
          6    2    1    2  501    0 -0.16785760022E+03 -0.76070906719E+02  0.11419126532E+03  0.27745625211E+03  0.17314551673E+03 0.  0.
         24    2    5    5    0    0 -0.19530879590E+03 -0.60605604280E+02  0.10492096028E+03  0.24427836370E+03  0.82734189086E+02 0.  0.
          5    1    5    5  501    0  0.27451195680E+02 -0.15465302439E+02  0.92703050352E+01  0.33177888408E+02  0.47000000000E+01 0. -1.
        -13    1    6    6    0    0 -0.12222724199E+03 -0.71971067335E+02  0.92352160014E+02  0.16925795307E+03  0.00000000000E+00 0.  1.
         14    1    6    6    0    0 -0.73081553909E+02  0.11365463055E+02  0.12568800267E+02  0.75020410639E+02  0.00000000000E+00 0. -1.
         -5    1    3    3    0  503  0.10823747735E+03  0.10090876051E+03  0.93563570321E+02  0.17514040408E+03  0.47000000000E+01 0.  1.
         11    1    4    4    0    0  0.49242400911E+02 -0.43930528766E+02  0.29403999640E+02  0.72244727144E+02  0.00000000000E+00 0. -1.
        -12    1    4    4    0    0  0.10377721952E+02  0.19092674978E+02  0.59140513349E+02  0.63006568467E+02  0.00000000000E+00 0.  1.
</event>
<event>
12    1  0.8747122E-002  0.1915985E+03  0.7818608E-02  0.1158875E+00
         21   -1    0    0  503  502  0.00000000000E+00  0.00000000000E+00  0.19395202294E+03  0.19395202294E+03  0.00000000000E+00 0.  1.
         21   -1    0    0  501  503 -0.00000000000E+00 -0.00000000000E+00 -0.46153540624E+03  0.46153540624E+03  0.00000000000E+00 0.  1.
          6    2    1    2  501    0  0.28988624895E+02  0.55272446684E+02 -0.39025886197E+03  0.43475507712E+03  0.18114804443E+03 0.  0.
         24    2    3    3    0    0  0.59888043368E+02  0.27360420675E+02 -0.10541498144E+03  0.14684540113E+03  0.78205390875E+02 0.  0.
         -6    2    1    2    0  502 -0.28988624895E+02 -0.55272446684E+02  0.12267547867E+03  0.22073235207E+03  0.17256336357E+03 0.  0.
        -24    2    5    5    0    0  0.99714175698E+01  0.13394565645E+02  0.44908873932E+01  0.78525702765E+02  0.76598135538E+02 0.  0.
          5    1    3    3  501    0 -0.30899418473E+02  0.27912026009E+02 -0.28484388052E+03  0.28790967599E+03  0.47000000000E+01 0. -1.
        -13    1    4    4    0    0  0.31120854223E+02  0.53172789718E+02 -0.78297748901E+02  0.99631273288E+02  0.00000000000E+00 0.  1.
         14    1    4    4    0    0  0.28767189145E+02 -0.25812369044E+02 -0.27117232543E+02  0.47214127841E+02  0.00000000000E+00 0. -1.
         -5    1    5    5    0  502 -0.38960042465E+02 -0.68667012329E+02  0.11818459127E+03  0.14220664930E+03  0.47000000000E+01 0.  1.
         13    1    6    6    0    0  0.18779460109E+02  0.79943742352E+01  0.38177204364E+02  0.43290611851E+02  0.00000000000E+00 0. -1.
        -14    1    6    6    0    0 -0.88080425389E+01  0.54001914098E+01 -0.33686316971E+02  0.35235090914E+02  0.00000000000E+00 0.  1.
</event>
<event>
12    1  0.8747122E-002  0.2117894E+03  0.7818608E-02  0.1140714E+00
         21   -1    0    0  501  502  0.00000000000E+00  0.00000000000E+00  0.50385582490E+03  0.50385582490E+03  0.00000000000E+00 0. -1.
         21   -1    0    0  502  503 -0.00000000000E+00 -0.00000000000E+00 -0.14891673245E+03  0.14891673245E+03  0.00000000000E+00 0.  1.
         -6    2    1    2    0  503 -0.10568770193E+03 -0.55015033851E+02 -0.30851562418E+02  0.21402470249E+03  0.17509486024E+03 0.  0.
        -24    2    3    3    0    0 -0.46203606641E+02  0.50355540750E+01  0.41013281747E+02  0.10297932200E+03  0.82234551177E+02 0.  0.
          6    2    1    2  501    0  0.10568770193E+03  0.55015033851E+02  0.38579065487E+03  0.43874785485E+03  0.17166451720E+03 0.  0.
         24    2    5    5    0    0  0.68293591347E+00  0.65007473525E+02  0.19838089927E+03  0.22364240111E+03  0.80215362384E+02 0.  0.
          5    1    5    5  501    0  0.10500476602E+03 -0.99924396746E+01  0.18740975560E+03  0.21510545374E+03  0.47000000000E+01 0. -1.
        -11    1    6    6    0    0 -0.60655747053E+01 -0.16460592142E+02  0.15851355625E+02  0.23643345053E+02  0.00000000000E+00 0.  1.
         12    1    6    6    0    0  0.67485106188E+01  0.81468065668E+02  0.18252954365E+03  0.19999905606E+03  0.00000000000E+00 0. -1.
         -5    1    3    3    0  503 -0.59484095290E+02 -0.60050587926E+02 -0.71864844165E+02  0.11104538050E+03  0.47000000000E+01 0.  1.
         11    1    4    4    0    0  0.20070855205E+02  0.17775136065E+02  0.89733611482E+01  0.28272175387E+02  0.00000000000E+00 0. -1.
        -12    1    4    4    0    0 -0.66274461847E+02 -0.12739581990E+02  0.32039920599E+02  0.74707146608E+02  0.00000000000E+00 0.  1.
</event>
<event>
12    1  0.8747122E-002  0.2154039E+03  0.7818608E-02  0.1137412E+00
         21   -1    0    0  503  502  0.00000000000E+00  0.00000000000E+00  0.29849546652E+03  0.29849546652E+03  0.00000000000E+00 0. -1.
         21   -1    0    0  501  503 -0.00000000000E+00 -0.00000000000E+00 -0.34907720560E+03  0.34907720560E+03  0.00000000000E+00 0.  1.
          6    2    1    2  501    0 -0.88113338646E+02  0.95896303073E+02 -0.26657914276E+03  0.34272917652E+03  0.17157735191E+03 0.  0.
         24    2    3    3    0    0 -0.10677745027E+03  0.10035938223E+03 -0.14527282357E+03  0.21982441170E+03  0.75796762624E+02 0.  0.
         -6    2    1    2    0  502  0.88113338646E+02 -0.95896303073E+02  0.21599740369E+03  0.30484349560E+03  0.17121511913E+03 0.  0.
        -24    2    5    5    0    0  0.12442502935E+03 -0.67147645142E+02  0.19467511472E+03  0.25364042712E+03  0.80278713250E+02 0.  0.
          5    1    3    3  501    0  0.18664111622E+02 -0.44630791595E+01 -0.12130631919E+03  0.12290476482E+03  0.47000000000E+01 0. -1.
        -13    1    4    4    0    0  0.27685974707E+01  0.44923188996E+01 -0.39580804721E+02  0.39931017561E+02  0.00000000000E+00 0.  1.
         14    1    4    4    0    0 -0.10954604774E+03  0.95867063333E+02 -0.10569201885E+03  0.17989339414E+03  0.00000000000E+00 0. -1.
         -5    1    5    5    0  502 -0.36311690708E+02 -0.28748657931E+02  0.21322288974E+02  0.51203068482E+02  0.47000000000E+01 0.  1.
         13    1    6    6    0    0  0.54998347762E+02 -0.61205920528E+02  0.14934263576E+03  0.17051160025E+03  0.00000000000E+00 0. -1.
        -14    1    6    6    0    0  0.69426681592E+02 -0.59417246146E+01  0.45332478958E+02  0.83128826869E+02  0.00000000000E+00 0.  1.
</event>
<event>
12    1  0.8747122E-002  0.1928531E+03  0.7818608E-02  0.1156068E+00
         21   -1    0    0  501  502  0.00000000000E+00  0.00000000000E+00  0.15330139925E+03  0.15330139925E+03  0.00000000000E+00 0. -1.
         21   -1    0    0  502  503 -0.00000000000E+00 -0.00000000000E+00 -0.38476585710E+03  0.38476585710E+03  0.00000000000E+00 0. -1.
         -6    2    1    2    0  503 -0.12685551067E+02 -0.88223116743E+02 -0.27989742021E+03  0.33990420919E+03  0.17102065388E+03 0.  0.
        -24    2    3    3    0    0  0.10405638613E+01 -0.12067751152E+03 -0.16406863054E+03  0.21874277767E+03  0.79785604564E+02 0.  0.
          6    2    1    2  501    0  0.12685551067E+02  0.88223116743E+02  0.48432962357E+02  0.19816304717E+03  0.17023101917E+03 0.  0.
         24    2    5    5    0    0  0.61543105396E+01  0.36141816861E+02 -0.40011505347E+02  0.95208529211E+02  0.78228108824E+02 0.  0.
          5    1    5    5  501    0  0.65312405272E+01  0.52081299882E+02  0.88444467704E+02  0.10295451796E+03  0.47000000000E+01 0. -1.
        -11    1    6    6    0    0 -0.36015234338E+02  0.17507732979E+02 -0.22177915497E+02  0.45776388611E+02  0.00000000000E+00 0.  1.
         12    1    6    6    0    0  0.42169544878E+02  0.18634083883E+02 -0.17833589849E+02  0.49432140600E+02  0.00000000000E+00 0. -1.
         -5    1    3    3    0  503 -0.13726114928E+02  0.32454394782E+02 -0.11582878967E+03  0.12116143152E+03  0.47000000000E+01 0.  1.
         13    1    4    4    0    0 -0.11746564926E+02 -0.22403210143E+02 -0.94070627383E+02  0.97412363428E+02  0.00000000000E+00 0. -1.
        -14    1    4    4    0    0  0.12787128787E+02 -0.98274301382E+02 -0.69998003152E+02  0.12133041424E+03  0.00000000000E+00 0.  1.
</event>
<event>
12    1  0.8747122E-002  0.1788848E+03  0.7818608E-02  0.1169019E+00
         21   -1    0    0  501  502  0.00000000000E+00  0.00000000000E+00  0.80316124418E+03  0.80316124418E+03  0.00000000000E+00 0. -1.
         21   -1    0    0  502  503 -0.00000000000E+00 -0.00000000000E+00 -0.11295823030E+03  0.11295823030E+03  0.00000000000E+00 0. -1.
         -6    2    1    2    0  503  0.37094588423E+02  0.31598970730E+02 -0.23913897563E+02  0.17993829586E+03  0.17155585789E+03 0.  0.
        -24    2    3    3    0    0 -0.25645681201E+02  0.61469496244E+02  0.22522575711E+02  0.96230316683E+02  0.65702416238E+02 0.  0.
          6    2    1    2  501    0 -0.37094588423E+02 -0.31598970730E+02  0.71411691144E+03  0.73618117862E+03  0.17211990330E+03 0.  0.
         24    2    5    5    0    0  0.33079334606E+02 -0.16745561347E+02  0.55194925098E+03  0.55879616419E+03  0.78933651011E+02 0.  0.
          5    1    5    5  501    0 -0.70173923030E+02 -0.14853409383E+02  0.16216766046E+03  0.17738501443E+03  0.47000000000E+01 0. -1.
        -11    1    6    6    0    0  0.51374019530E+01 -0.42437996497E+02  0.39569600329E+03  0.39799837119E+03  0.00000000000E+00 0.  1.
         12    1    6    6    0    0  0.27941932653E+02  0.25692435150E+02  0.15625324768E+03  0.16079779301E+03  0.00000000000E+00 0. -1.
         -5    1    3    3    0  503  0.62740269625E+02 -0.29870525515E+02 -0.46436473273E+02  0.83707979173E+02  0.47000000000E+01 0.  1.
         13    1    4    4    0    0 -0.94798558035E+01  0.52509857806E+02 -0.14115552058E+02  0.55194217476E+02  0.00000000000E+00 0. -1.
        -14    1    4    4    0    0 -0.16165825398E+02  0.89596384382E+01  0.36638127769E+02  0.41036099207E+02  0.00000000000E+00 0.  1.
</event>
<event>
12    1  0.8747122E-002  0.1928206E+03  0.7818608E-02  0.1156142E+00
         21   -1    0    0  503  502  0.00000000000E+00  0.00000000000E+00  0.12735276332E+03  0.12735276332E+03  0.00000000000E+00 0.  1.
         21   -1    0    0  501  503 -0.00000000000E+00 -0.00000000000E+00 -0.42150546542E+03  0.42150546542E+03  0.00000000000E+00 0. -1.
          6    2    1    2  501    0 -0.56367797011E+02  0.64046049961E+02 -0.30026488727E+03  0.35684558856E+03  0.17291774488E+03 0.  0.
         24    2    3    3    0    0 -0.91201154589E+02  0.72258997312E+02 -0.16734087548E+03  0.21910780067E+03  0.80412974174E+02 0.  0.
         -6    2    1    2    0  502  0.56367797011E+02 -0.64046049961E+02  0.61121851738E+01  0.19201264017E+03  0.17190773724E+03 0.  0.
        -24    2    5    5    0    0  0.29534135414E+02 -0.10411071510E+03 -0.21290766219E+02  0.13635085317E+03  0.80168274767E+02 0.  0.
          5    1    3    3  501    0  0.34833357578E+02 -0.82129473502E+01 -0.13292401179E+03  0.13773778789E+03  0.47000000000E+01 0. -1.
        -13    1    4    4    0    0 -0.63512337487E+02 -0.57899854654E+00 -0.75673773581E+02  0.98796114602E+02  0.00000000000E+00 0.  1.
         14    1    4    4    0    0 -0.27688817102E+02  0.72837995858E+02 -0.91667101901E+02  0.12031168607E+03  0.00000000000E+00 0. -1.
         -5    1    5    5    0  502  0.26833661598E+02  0.40064665142E+02  0.27402951393E+02  0.55661787006E+02  0.47000000000E+01 0.  1.
         11    1    6    6    0    0  0.41778000031E+00 -0.39972979436E+02  0.29355285983E+02  0.49595830875E+02  0.00000000000E+00 0. -1.
        -12    1    6    6    0    0  0.29116355413E+02 -0.64137735668E+02 -0.50646052202E+02  0.86755022291E+02  0.00000000000E+00 0.  1.
</event>
<event>
12    1  0.8747122E-002  0.2506818E+03  0.7818608E-02  0.1112905E+00
         21   -1    0    0  501  502  0.00000000000E+00  0.00000000000E+00  0.24192508499E+03  0.24192508499E+03  0.00000000000E+00 0. -1.
         21   -1    0    0  502  503 -0.00000000000E+00 -0.00000000000E+00 -0.26073600665E+03  0.26073600665E+03  0.00000000000E+00 0. -1.
         -6    2    1    2    0  503  0.46993630807E+01  0.18239035159E+03  0.75194000503E+01  0.25060025650E+03  0.17162640476E+03 0.  0.
        -24    2    3    3    0    0  0.58407322462E+02  0.13205211141E+03 -0.30415651368E+02  0.16765665246E+03  0.79589357447E+02 0.  0.
          6    2    1    2  501    0 -0.46993630807E+01 -0.18239035159E+03 -0.26330321702E+02  0.25206083514E+03  0.17191001834E+03 0.  0.
         24    2    5    5    0    0 -0.49500721534E+02 -0.50173967794E+02  0.12193962099E+02  0.10716589284E+03  0.79800296987E+02 0.  0.
          5    1    5    5  501    0  0.44801358453E+02 -0.13221638380E+03 -0.38524283801E+02  0.14489494231E+03  0.47000000000E+01 0. -1.
        -13    1    6    6    0    0 -0.12455585111E+02 -0.62880371861E+01 -0.31862070310E+02  0.34783222055E+02  0.00000000000E+00 0.  1.
         14    1    6    6    0    0 -0.37045136423E+02 -0.43885930608E+02  0.44056032408E+02  0.72382670781E+02  0.00000000000E+00 0. -1.
         -5    1    3    3    0  503 -0.53707959381E+02  0.50338240179E+02  0.37935051418E+02  0.82943604041E+02  0.47000000000E+01 0.  1.
         13    1    4    4    0    0  0.13918233194E+02  0.11695953285E+03 -0.18963827466E+02  0.11930161898E+03  0.00000000000E+00 0. -1.
        -14    1    4    4    0    0  0.44489089268E+02  0.15092578564E+02 -0.11451823902E+02  0.48355033474E+02  0.00000000000E+00 0.  1.
</event>
<event>
12    1  0.8747122E-002  0.2483494E+03  0.7818608E-02  0.1114562E+00
         21   -1    0    0  503  502  0.00000000000E+00  0.00000000000E+00  0.28196286868E+03  0.28196286868E+03  0.00000000000E+00 0.  1.
         21   -1    0    0  501  503 -0.00000000000E+00 -0.00000000000E+00 -0.47498318608E+03  0.47498318608E+03  0.00000000000E+00 0. -1.
          6    2    1    2  501    0  0.16084462060E+03 -0.76900875835E+02 -0.37500143940E+03  0.44905883780E+03  0.17100591679E+03 0.  0.
         24    2    3    3    0    0  0.17572536373E+03 -0.39790755548E+02 -0.27717611489E+03  0.34327376486E+03  0.92453076128E+02 0.  0.
         -6    2    1    2    0  502 -0.16084462060E+03  0.76900875835E+02  0.18198112200E+03  0.30788721696E+03  0.17289497658E+03 0.  0.
        -24    2    5    5    0    0 -0.22488964290E+02 -0.63628154162E+01  0.85903475478E+02  0.11992941831E+03  0.80358069558E+02 0.  0.
          5    1    3    3  501    0 -0.14880743133E+02 -0.37110120287E+02 -0.97825324503E+02  0.10578507295E+03  0.47000000000E+01 0. -1.
        -13    1    4    4    0    0 -0.75840349466E+01  0.10004687132E+02 -0.16722452424E+02  0.20910565888E+02  0.00000000000E+00 0.  1.
         14    1    4    4    0    0  0.18330939868E+03 -0.49795442681E+02 -0.26045366247E+03  0.32236319897E+03  0.00000000000E+00 0. -1.
         -5    1    5    5    0  502 -0.13835565631E+03  0.83263691251E+02  0.96077646520E+02  0.18795779865E+03  0.47000000000E+01 0.  1.
         11    1    6    6    0    0  0.19974019188E+00  0.33986843193E+02  0.53651239257E+02  0.63510635961E+02  0.00000000000E+00 0. -1.
        -12    1    6    6    0    0 -0.22688704482E+02 -0.40349658609E+02  0.32252236221E+02  0.56418782353E+02  0.00000000000E+00 0.  1.
</event>
<event>
12    1  0.8747122E-002  0.1826878E+03  0.7818608E-02  0.1165353E+00
         21   -1    0    0  503  502  0.00000000000E+00  0.00000000000E+00  0.95565903880E+02  0.95565903880E+02  0.00000000000E+00 0. -1.
         21   -1    0    0  501  503 -0.00000000000E+00 -0.00000000000E+00 -0.82720604139E+03  0.82720604139E+03  0.00000000000E+00 0. -1.
          6    2    1    2  501    0  0.51750199221E+01 -0.61298838874E+02 -0.71713246625E+03  0.74003635147E+03  0.17201889099E+03 0.  0.
         24    2    3    3    0    0  0.47419248793E+02  0.15884148373E+02 -0.40670097723E+03  0.41734208785E+03  0.79169704346E+02 0.  0.
         -6    2    1    2    0  502 -0.51750199221E+01  0.61298838874E+02 -0.14507671259E+02  0.18273559381E+03  0.17145698073E+03 0.  0.
        -24    2    5    5    0    0 -0.56666373621E+02  0.98750381245E+01  0.23859012796E+02  0.10033499166E+03  0.78671874145E+02 0.  0.
          5    1    3    3  501    0 -0.42244228871E+02 -0.77182987247E+02 -0.31043148902E+03  0.32269426361E+03  0.47000000000E+01 0. -1.
        -11    1    4    4    0    0  0.44965616744E+02  0.12297546760E+01 -0.93182511124E+02  0.10347173220E+03  0.00000000000E+00 0.  1.
         12    1    4    4    0    0  0.24536320485E+01  0.14654393697E+02 -0.31351846611E+03  0.31387035565E+03  0.00000000000E+00 0. -1.
         -5    1    5    5    0  502  0.51491353699E+02  0.51423800750E+02 -0.38366684055E+02  0.82400602150E+02  0.47000000000E+01 0.  1.
         13    1    6    6    0    0 -0.55403365131E+02  0.23645780964E+02 -0.12423888387E+02  0.61506169023E+02  0.00000000000E+00 0. -1.
        -14    1    6    6    0    0 -0.12630084907E+01 -0.13770742840E+02  0.36282901182E+02  0.38828822632E+02  0.00000000000E+00 0.  1.
</event>
<event>
12    1  0.8747122E-002  0.2063594E+03  0.7818608E-02  0.1144769E+00
         21   -1    0    0  503  502  0.00000000000E+00  0.00000000000E+00  0.11439355545E+03  0.11439355545E+03  0.00000000000E+00 0. -1.
         21   -1    0    0  501  503 -0.00000000000E+00 -0.00000000000E+00 -0.89950298362E+03  0.89950298362E+03  0.00000000000E+00 0. -1.
          6    2    1    2  501    0  0.98010454607E+02 -0.54612967380E+02 -0.78216512366E+03  0.80892921452E+03  0.17319228623E+03 0.  0.
         24    2    3    3    0    0  0.29215967812E+02 -0.68490493653E+02 -0.65064382144E+03  0.65978093231E+03  0.80180893990E+02 0.  0.
         -6    2    1    2    0  502 -0.98010454607E+02  0.54612967380E+02 -0.29443045050E+01  0.20496732455E+03  0.17150600510E+03 0.  0.
        -24    2    5    5    0    0  0.10376295301E+02  0.28162062606E+02 -0.28000793572E+02  0.90524082883E+02  0.80683305998E+02 0.  0.
          5    1    3    3  501    0  0.68794486795E+02  0.13877526273E+02 -0.13152130222E+03  0.14914828221E+03  0.47000000000E+01 0. -1.
        -11    1    4    4    0    0 -0.24890487215E+02 -0.48405512345E+01 -0.18057148862E+03  0.18234316492E+03  0.00000000000E+00 0.  1.
         12    1    4    4    0    0  0.54106455027E+02 -0.63649942418E+02 -0.47007233282E+03  0.47743776739E+03  0.00000000000E+00 0. -1.
         -5    1    5    5    0  502 -0.10838674991E+03  0.26450904774E+02  0.25056489067E+02  0.11444324167E+03  0.47000000000E+01 0.  1.
         13    1    6    6    0    0 -0.35458665634E+02  0.11585494735E+02 -0.13523633055E+02  0.39679078969E+02  0.00000000000E+00 0. -1.
        -14    1    6    6    0    0  0.45834960936E+02  0.16576567871E+02 -0.14477160517E+02  0.50845003914E+02  0.00000000000E+00 0.  1.
</event>
<event>
12    1  0.8747122E-002  0.2186323E+03  0.7818608E-02  0.1135282E+00
         21   -1    0    0  501  502  0.00000000000E+00  0.00000000000E+00  0.52636458250E+03  0.52636458250E+03  0.00000000000E+00 0. -1.
         21   -1    0    0  502  503 -0.00000000000E+00 -0.00000000000E+00 -0.91382561778E+02  0.91382561778E+02  0.00000000000E+00 0.  1.
         -6    2    1    2    0  503 -0.55708037429E+02  0.12170960270E+03  0.17836294697E+03  0.28062188747E+03  0.17034873070E+03 0.  0.
        -24    2    3    3    0    0 -0.87380984803E+02  0.57700124241E+02  0.16149614735E+03  0.20708980020E+03  0.76422764248E+02 0.  0.
          6    2    1    2  501    0  0.55708037429E+02 -0.12170960270E+03  0.25661907376E+03  0.33712525681E+03  0.17286838040E+03 0.  0.
         24    2    5    5    0    0  0.61124629401E+02 -0.16643714551E+02  0.17658364150E+03  0.20485303472E+03  0.82278489502E+02 0.  0.
          5    1    5    5  501    0 -0.54165919721E+01 -0.10506588815E+03  0.80035432256E+02  0.13227222209E+03  0.47000000000E+01 0. -1.
        -13    1    6    6    0    0 -0.20486132699E+01  0.25548050326E+01  0.11346029828E+03  0.11350754658E+03  0.00000000000E+00 0.  1.
         14    1    6    6    0    0  0.63173242671E+02 -0.19198519583E+02  0.63123343218E+02  0.91345488136E+02  0.00000000000E+00 0. -1.
         -5    1    3    3    0  503  0.31672947374E+02  0.64009478459E+02  0.16866799614E+02  0.73532087263E+02  0.47000000000E+01 0.  1.
         11    1    4    4    0    0 -0.22813809117E+02 -0.88854366148E+01  0.47222274525E+01  0.24934319770E+02  0.00000000000E+00 0. -1.
        -12    1    4    4    0    0 -0.64567175686E+02  0.66585560856E+02  0.15677391990E+03  0.18215548043E+03  0.00000000000E+00 0.  1.
</event>
<event>
12    1  0.8747122E-002  0.1833048E+03  0.7818608E-02  0.1165293E+00
         21   -1    0    0  503  502  0.00000000000E+00  0.00000000000E+00  0.58941766441E+03  0.58941766441E+03  0.00000000000E+00 0. -1.
         21   -1    0    0  501  503 -0.00000000000E+00 -0.00000000000E+00 -0.11062320579E+03  0.11062320579E+03  0.00000000000E+00 0. -1.
          6    2    1    2  501    0 -0.35297522350E+02  0.43675444979E+02 -0.52831749342E+01  0.18338093908E+03  0.17449125280E+03 0.  0.
         24    2    3    3    0    0  0.33015918079E+02  0.52126328147E+02  0.29392004918E+02  0.10616305470E+03  0.81237302381E+02 0.  0.
         -6    2    1    2    0  502  0.35297522350E+02 -0.43675444979E+02  0.48407763355E+03  0.51665993112E+03  0.17161838346E+03 0.  0.
        -24    2    5    5    0    0  0.77113563419E+02 -0.69397469359E+02  0.32599431728E+03  0.35106213913E+03  0.78802412487E+02 0.  0.
          5    1    3    3  501    0 -0.68313440430E+02 -0.84508831681E+01 -0.34675179853E+02  0.77217884376E+02  0.47000000000E+01 0. -1.
        -11    1    4    4    0    0  0.11868449462E+02 -0.14626510041E+02  0.30826605980E+02  0.36125815214E+02  0.00000000000E+00 0.  1.
         12    1    4    4    0    0  0.21147468617E+02  0.66752838188E+02 -0.14346010619E+01  0.70037239490E+02  0.00000000000E+00 0. -1.
         -5    1    5    5    0  502 -0.41816041068E+02  0.25722024380E+02  0.15808331627E+03  0.16559779199E+03  0.47000000000E+01 0.  1.
         13    1    6    6    0    0  0.39982842414E+02 -0.68100478868E+02  0.28499149413E+03  0.29573037490E+03  0.00000000000E+00 0. -1.
        -14    1    6    6    0    0  0.37130721005E+02 -0.12969904914E+01  0.41002823144E+02  0.55331764227E+02  0.00000000000E+00 0.  1.
</event>
<event>
12    1  0.8747122E-002  0.2085563E+03  0.7818608E-02  0.1143596E+00
         21   -1    0    0  501  502  0.00000000000E+00  0.00000000000E+00  0.10892812214E+03  0.10892812214E+03  0.00000000000E+00 0.  1.
         21   -1    0    0  502  503 -0.00000000000E+00 -0.00000000000E+00 -0.41885440332E+03  0.41885440332E+03  0.00000000000E+00 0.  1.
         -6    2    1    2    0  503 -0.11099341791E+03  0.17892307207E+02 -0.22148379120E+03  0.30124817828E+03  0.17045738961E+03 0.  0.
        -24    2    3    3    0    0 -0.27011007732E+02 -0.69579436488E+01 -0.25472013432E+02  0.86508132615E+02  0.77825612890E+02 0.  0.
          6    2    1    2  501    0  0.11099341791E+03 -0.17892307207E+02 -0.88442489973E+02  0.22653434718E+03  0.17565893926E+03 0.  0.
         24    2    5    5    0    0  0.97322979566E+02  0.41869038507E+02 -0.97905570785E+02  0.16432551160E+03  0.78693038026E+02 0.  0.
          5    1    5    5  501    0  0.13670438346E+02 -0.59761345714E+02  0.94630808127E+01  0.62208835583E+02  0.47000000000E+01 0. -1.
        -11    1    6    6    0    0  0.46828875854E+02  0.49389953706E+02 -0.89732464200E+02  0.11262427035E+03  0.00000000000E+00 0.  1.
         12    1    6    6    0    0  0.50494103711E+02 -0.75209151987E+01 -0.81731065855E+01  0.51701241245E+02  0.00000000000E+00 0. -1.
         -5    1    3    3    0  503 -0.83982410179E+02  0.24850250856E+02 -0.19601177777E+03  0.21474004567E+03  0.47000000000E+01 0.  1.
         11    1    4    4    0    0  0.19952569050E+02 -0.40868122634E+00  0.14355164360E+02  0.24583384142E+02  0.00000000000E+00 0. -1.
        -12    1    4    4    0    0 -0.46963576783E+02 -0.65492624224E+01 -0.39827177793E+02  0.61924748473E+02  0.00000000000E+00 0.  1.
</event>
<event>
12    1  0.8747122E-002  0.2621576E+03  0.7818608E-02  0.1106132E+00
         21   -1    0    0  501  502  0.00000000000E+00  0.00000000000E+00  0.45276078204E+03  0.45276078204E+03  0.00000000000E+00 0. -1.
         21   -1    0    0  502  503 -0.00000000000E+00 -0.00000000000E+00 -0.15790601756E+03  0.15790601756E+03  0.00000000000E+00 0.  1.
         -6    2    1    2    0  503 -0.47470140300E+02 -0.19115631108E+03  0.82781957851E+02  0.27491718799E+03  0.17300999458E+03 0.  0.
        -24    2    3    3    0    0 -0.95547106813E+02 -0.10235393377E+03  0.54456242559E+02  0.16993293645E+03  0.79411228171E+02 0.  0.
          6    2    1    2  501    0  0.47470140300E+02  0.19115631108E+03  0.21207280663E+03  0.33574961161E+03  0.17017278541E+03 0.  0.
         24    2    5    5    0    0 -0.15362190311E+02  0.13945938215E+03  0.18628213069E+03  0.25026438951E+03  0.90809230170E+02 0.  0.
          5    1    5    5  501    0  0.62832330612E+02  0.51696928926E+02  0.25790675945E+02  0.85485222092E+02  0.47000000000E+01 0. -1.
        -11    1    6    6    0    0 -0.17891359474E+02  0.12926914862E+03  0.10280862427E+03  0.16613315970E+03  0.00000000000E+00 0.  1.
         12    1    6    6    0    0  0.25291691623E+01  0.10190233535E+02  0.83473506419E+02  0.84131229814E+02  0.00000000000E+00 0. -1.
         -5    1    3    3    0  503  0.48076966513E+02 -0.88802377307E+02  0.28325715292E+02  0.10498425154E+03  0.47000000000E+01 0.  1.
         13    1    4    4    0    0 -0.30437260247E+02 -0.81631603130E+02  0.83854793590E+01  0.87524063577E+02  0.00000000000E+00 0. -1.
        -14    1    4    4    0    0 -0.65109846566E+02 -0.20722330640E+02  0.46070763200E+02  0.82408872877E+02  0.00000000000E+00 0.  1.
</event>
<event>
12    1  0.8747122E-002  0.2047844E+03  0.7818608E-02  0.1145911E+00
         21   -1    0    0  503  502  0.00000000000E+00  0.00000000000E+00  0.12850657149E+04  0.12850657149E+04  0.00000000000E+00 0. -1.
         21   -1    0    0  501  503 -0.00000000000E+00 -0.00000000000E+00 -0.80813981722E+02  0.80813981722E+02  0.00000000000E+00 0. -1.
          6    2    1    2  501    0  0.30339073393E+02 -0.10576878778E+03  0.74608000838E+02  0.21795180361E+03  0.17271114344E+03 0.  0.
         24    2    3    3    0    0 -0.44666266773E+02 -0.76516417850E+02  0.14608769185E+02  0.11743563577E+03  0.75682724730E+02 0.  0.
         -6    2    1    2    0  502 -0.30339073393E+02  0.10576878778E+03  0.11296437323E+04  0.11479278930E+04  0.17186037847E+03 0.  0.
        -24    2    5    5    0    0  0.19543955433E+02  0.12469684104E+01  0.34579232008E+03  0.35555282160E+03  0.80386312240E+02 0.  0.
          5    1    3    3  501    0  0.75005340166E+02 -0.29252369930E+02  0.59999231653E+02  0.10051616785E+03  0.47000000000E+01 0. -1.
        -13    1    4    4    0    0 -0.55531450271E+02 -0.37360032303E+02  0.30821369230E+02  0.73684942723E+02  0.00000000000E+00 0.  1.
         14    1    4    4    0    0  0.10865183498E+02 -0.39156385547E+02 -0.16212600045E+02  0.43750693043E+02  0.00000000000E+00 0. -1.
         -5    1    5    5    0  502 -0.49883028826E+02  0.10452181937E+03  0.78385141226E+03  0.79237507141E+03  0.47000000000E+01 0.  1.
         11    1    6    6    0    0 -0.25244128840E+02 -0.16280143958E+02  0.19432555592E+03  0.19663349362E+03  0.00000000000E+00 0. -1.
        -12    1    6    6    0    0  0.44788084273E+02  0.17527112369E+02  0.15146676415E+03  0.15891932798E+03  0.00000000000E+00 0.  1.
</event>
<event>
12    1  0.8747122E-002  0.2054472E+03  0.7818608E-02  0.1145231E+00
         21   -1    0    0  503  502  0.00000000000E+00  0.00000000000E+00  0.50135471418E+03  0.50135471418E+03  0.00000000000E+00 0.  1.
         21   -1    0    0  501  503 -0.00000000000E+00 -0.00000000000E+00 -0.89684090899E+02  0.89684090899E+02  0.00000000000E+00 0. -1.
          6    2    1    2  501    0 -0.11125639280E+03  0.12002040694E+02  0.13255618669E+03  0.24446500277E+03  0.17224970546E+03 0.  0.
         24    2    3    3    0    0 -0.41446648499E+01 -0.12420659483E+02  0.10136717319E+03  0.13016611778E+03  0.80600641362E+02 0.  0.
         -6    2    1    2    0  502  0.11125639280E+03 -0.12002040694E+02  0.27911443659E+03  0.34657380231E+03  0.17229770113E+03 0.  0.
        -24    2    5    5    0    0  0.21179883176E+02 -0.48402144409E+02  0.19557729718E+03  0.21835801234E+03  0.81476299293E+02 0.  0.
          5    1    3    3  501    0 -0.10711172795E+03  0.24422700178E+02  0.31189013499E+02  0.11429888499E+03  0.47000000000E+01 0. -1.
        -11    1    4    4    0    0  0.98684069572E+01 -0.13814002965E+01 -0.11889565439E+02  0.15513074775E+02  0.00000000000E+00 0.  1.
         12    1    4    4    0    0 -0.14013071807E+02 -0.11039259187E+02  0.11325673863E+03  0.11465304300E+03  0.00000000000E+00 0. -1.
         -5    1    5    5    0  502  0.90076509621E+02  0.36400103715E+02  0.83537139409E+02  0.12821578997E+03  0.47000000000E+01 0.  1.
         13    1    6    6    0    0  0.40031512456E+02 -0.26833861737E+01  0.47154492927E+02  0.61913397210E+02  0.00000000000E+00 0. -1.
        -14    1    6    6    0    0 -0.18851629280E+02 -0.45718758235E+02  0.14842280425E+03  0.15644461513E+03  0.00000000000E+00 0.  1.
</event>
<event>
12    1  0.8747122E-002  0.2292111E+03  0.7818608E-02  0.1127575E+00
         21   -1    0    0  501  502  0.00000000000E+00  0.00000000000E+00  0.14978204962E+03  0.14978204962E+03  0.00000000000E+00 0.  1.
         21   -1    0    0  502  503 -0.00000000000E+00 -0.00000000000E+00 -0.35458608661E+03  0.35458608661E+03  0.00000000000E+00 0.  1.
         -6    2    1    2    0  503 -0.14404506416E+03 -0.33735430658E+02 -0.13849488067E+03  0.26780320273E+03  0.17507330931E+03 0.  0.
        -24    2    3    3    0    0 -0.10863020985E+03 -0.55119219816E+02 -0.16372484421E+03  0.21911933062E+03  0.79804796563E+02 0.  0.
          6    2    1    2  501    0  0.14404506416E+03  0.33735430658E+02 -0.66309156317E+02  0.23656493350E+03  0.17227595236E+03 0.  0.
         24    2    5    5    0    0  0.17175257796E+03  0.92894334467E+01 -0.65499825491E+02  0.19930828151E+03  0.76474324642E+02 0.  0.
          5    1    5    5  501    0 -0.27707513807E+02  0.24445997211E+02 -0.80933082608E+00  0.37256651989E+02  0.47000000000E+01 0. -1.
        -11    1    6    6    0    0  0.42059166921E+02 -0.11664527814E+02  0.13895967955E+02  0.45805378032E+02  0.00000000000E+00 0.  1.
         12    1    6    6    0    0  0.12969341104E+03  0.20953961261E+02 -0.79395793446E+02  0.15350290348E+03  0.00000000000E+00 0. -1.
         -5    1    3    3    0  503 -0.35414854301E+02  0.21383789158E+02  0.25229963535E+02  0.48683872112E+02  0.47000000000E+01 0.  1.
         11    1    4    4    0    0 -0.20664052072E+01  0.15562288357E+02 -0.79988924817E+01  0.17619226155E+02  0.00000000000E+00 0. -1.
        -12    1    4    4    0    0 -0.10656380465E+03 -0.70681508172E+02 -0.15572595173E+03  0.20150010446E+03  0.00000000000E+00 0.  1.
</event>
<event>
12    1  0.8747122E-002  0.1959683E+03  0.7818608E-02  0.1157396E+00
         21   -1    0    0  503  502  0.00000000000E+00  0.00000000000E+00  0.36859636547E+02  0.36859636547E+02  0.00000000000E+00 0.  1.
         21   -1    0    0  501  503 -0.00000000000E+00 -0.00000000000E+00 -0.94674083309E+03  0.94674083309E+03  0.00000000000E+00 0.  1.
          6    2    1    2  501    0 -0.88609733085E+02  0.27783798735E+02 -0.44475108525E+03  0.47887323234E+03  0.15130241424E+03 0.  0.
         24    2    3    3    0    0 -0.99511688724E+02  0.48876805227E+02 -0.42991573188E+03  0.45048405713E+03  0.76268151472E+02 0.  0.
         -6    2    1    2    0  502  0.88609733085E+02 -0.27783798735E+02 -0.46513011130E+03  0.50472723730E+03  0.17256865116E+03 0.  0.
        -24    2    5    5    0    0  0.24491182245E+02  0.15635507833E+02 -0.38221753696E+03  0.39117984751E+03  0.78020128316E+02 0.  0.
          5    1    3    3  501    0  0.10901955638E+02 -0.21093006491E+02 -0.14835353362E+02  0.28389175208E+02  0.47000000000E+01 0. -1.
        -11    1    4    4    0    0 -0.39353808716E+02  0.60217059191E+02 -0.19944077735E+03  0.21201754680E+03  0.00000000000E+00 0.  1.
         12    1    4    4    0    0 -0.60157880008E+02 -0.11340253965E+02 -0.23047495453E+03  0.23846651034E+03  0.00000000000E+00 0. -1.
         -5    1    5    5    0  502  0.64118550840E+02 -0.43419306569E+02 -0.82912574336E+02  0.11354738979E+03  0.47000000000E+01 0.  1.
         11    1    6    6    0    0  0.35011376308E+00  0.44918943183E+02 -0.22571668512E+03  0.23014312064E+03  0.00000000000E+00 0. -1.
        -12    1    6    6    0    0  0.24141068482E+02 -0.29283435349E+02 -0.15650085184E+03  0.16103672687E+03  0.00000000000E+00 0.  1.
</event>
<event>
12    1  0.8747122E-002  0.2014790E+03  0.7818608E-02  0.1148974E+00
         21   -1    0    0  501  502  0.00000000000E+00  0.00000000000E+00  0.74573332771E+02  0.74573332771E+02  0.00000000000E+00 0. -1.
         21   -1    0    0  502  503 -0.00000000000E+00 -0.00000000000E+00 -0.62217305673E+03  0.62217305673E+03  0.00000000000E+00 0.  1.
         -6    2    1    2    0  503 -0.82564697308E+02  0.63842673791E+02 -0.40309209436E+03  0.45064066122E+03  0.17233964364E+03 0.  0.
        -24    2    3    3    0    0 -0.83714274895E+02  0.10200980684E+03 -0.24900561788E+03  0.29182383652E+03  0.75784386993E+02 0.  0.
          6    2    1    2  501    0  0.82564697308E+02 -0.63842673791E+02 -0.14450762960E+03  0.24610572828E+03  0.16968428991E+03 0.  0.
         24    2    5    5    0    0  0.67907978485E+02 -0.44933624175E+01 -0.15188700662E+03  0.18435052306E+03  0.79270225959E+02 0.  0.
          5    1    5    5  501    0  0.14656718823E+02 -0.59349311373E+02  0.73793770219E+01  0.61755205225E+02  0.47000000000E+01 0. -1.
        -11    1    6    6    0    0  0.59143104355E+02 -0.50167082245E+01 -0.38775248452E+02  0.70898477041E+02  0.00000000000E+00 0.  1.
         12    1    6    6    0    0  0.87648741294E+01  0.52334580696E+00 -0.11311175817E+03  0.11345204601E+03  0.00000000000E+00 0. -1.
         -5    1    3    3    0  503  0.11495775873E+01 -0.38167133048E+02 -0.15408647649E+03  0.15881682470E+03  0.47000000000E+01 0.  1.
         13    1    4    4    0    0  0.11914198008E+02  0.19673956091E+02 -0.62869404689E+02  0.66944564443E+02  0.00000000000E+00 0. -1.
        -14    1    4    4    0    0 -0.95628472903E+02  0.82335850747E+02 -0.18613621319E+03  0.22487927207E+03  0.00000000000E+00 0.  1.
</event>
<event>
12    1  0.8747122E-002  0.2618675E+03  0.7818608E-02  0.1106252E+00
         21   -1    0    0  501  502  0.00000000000E+00  0.00000000000E+00  0.49416339531E+03  0.49416339531E+03  0.00000000000E+00 0. -1.
         21   -1    0    0  502  503 -0.00000000000E+00 -0.00000000000E+00 -0.28955172896E+03  0.28955172896E+03  0.00000000000E+00 0.  1.
         -6    2    1    2    0  503 -0.15430755327E+03  0.12251103432E+03 -0.18135948149E+03  0.31729437255E+03  0.17019013719E+03 0.  0.
        -24    2    3    3    0    0 -0.95697317595E+02  0.13124707921E+01 -0.10372721567E+03  0.16181733172E+03  0.79156897358E+02 0.  0.
          6    2    1    2  501    0  0.15430755327E+03 -0.12251103432E+03  0.38597114785E+03  0.46642075172E+03  0.17249584382E+03 0.  0.
         24    2    5    5    0    0  0.88134426824E+02 -0.61372544734E+02  0.10489095083E+03  0.17121749169E+03  0.82334995338E+02 0.  0.
          5    1    5    5  501    0  0.66173126447E+02 -0.61138489588E+02  0.28108019702E+03  0.29520326002E+03  0.47000000000E+01 0. -1.
        -11    1    6    6    0    0  0.58752111503E+02  0.49967322786E+01  0.67306004502E+02  0.89481149868E+02  0.00000000000E+00 0.  1.
         12    1    6    6    0    0  0.29382315321E+02 -0.66369277013E+02  0.37584946328E+02  0.81736341827E+02  0.00000000000E+00 0. -1.
         -5    1    3    3    0  503 -0.58610235676E+02  0.12119856353E+03 -0.77632265821E+02  0.15547704083E+03  0.47000000000E+01 0.  1.
         11    1    4    4    0    0 -0.10285790011E+02  0.99853874143E+01  0.11321877248E+02  0.18267193062E+02  0.00000000000E+00 0. -1.
        -12    1    4    4    0    0 -0.85411527584E+02 -0.86729166223E+01 -0.11504909292E+03  0.14355013866E+03  0.00000000000E+00 0.  1.
</event>
<event>
12    1  0.8747122E-002  0.2120192E+03  0.7818608E-02  0.1140826E+00
         21   -1    0    0  501  502  0.00000000000E+00  0.00000000000E+00  0.36305853292E+03  0.36305853292E+03  0.00000000000E+00 0. -1.
         21   -1    0    0  502  503 -0.00000000000E+00 -0.00000000000E+00 -0.17297883157E+03  0.17297883157E+03  0.00000000000E+00 0. -1.
         -6    2    1    2    0  503  0.65007051748E+02 -0.10235476810E+03 -0.52107341917E+02  0.21415738329E+03  0.16865881064E+03 0.  0.
        -24    2    3    3    0    0  0.34633761709E+02 -0.12983339178E+03 -0.67667847642E+02  0.17009117349E+03  0.79346472024E+02 0.  0.
          6    2    1    2  501    0 -0.65007051748E+02  0.10235476810E+03  0.24218704326E+03  0.32187998120E+03  0.17392453261E+03 0.  0.
         24    2    5    5    0    0 -0.90802687058E+02  0.43161179743E+02  0.21921268009E+03  0.25318349609E+03  0.77069242668E+02 0.  0.
          5    1    5    5  501    0  0.25795635310E+02  0.59193588353E+02  0.22974363172E+02  0.68696485109E+02  0.47000000000E+01 0. -1.
        -11    1    6    6    0    0 -0.44833634427E+01 -0.14128562928E+02  0.69865899917E+02  0.71421010980E+02  0.00000000000E+00 0.  1.
         12    1    6    6    0    0 -0.86319323615E+02  0.57289742671E+02  0.14934678018E+03  0.18176248511E+03  0.00000000000E+00 0. -1.
         -5    1    3    3    0  503  0.30373290039E+02  0.27478623688E+02  0.15560505726E+02  0.44066209799E+02  0.47000000000E+01 0.  1.
         11    1    4    4    0    0  0.89011722251E+01 -0.77668745268E+02 -0.78653557182E+02  0.11089655953E+03  0.00000000000E+00 0. -1.
        -12    1    4    4    0    0  0.25732589484E+02 -0.52164646516E+02  0.10985709540E+02  0.59194613960E+02  0.00000000000E+00 0.  1.
</event>
<event>
12    1  0.8747122E-002  0.1887105E+03  0.7818608E-02  0.1160810E+00
         21   -1    0    0  501  502  0.00000000000E+00  0.00000000000E+00  0.14154234040E+03  0.14154234040E+03  0.00000000000E+00 0.  1.
         21   -1    0    0  502  503 -0.00000000000E+00 -0.00000000000E+00 -0.32676306376E+03  0.32676306376E+03  0.00000000000E+00 0.  1.
         -6    2    1    2    0  503  0.32790044160E+02 -0.54576801038E+02 -0.21080717853E+03  0.28293339161E+03  0.17764521767E+03 0.  0.
        -24    2    3    3    0    0  0.34455598640E+02 -0.67967079319E+02 -0.48910139226E+02  0.12040704003E+03  0.79365870623E+02 0.  0.
          6    2    1    2  501    0 -0.32790044160E+02  0.54576801038E+02  0.25586455162E+02  0.18537201255E+03  0.17220424542E+03 0.  0.
         24    2    5    5    0    0 -0.22885158324E+02  0.96293650721E+02 -0.14724250504E+02  0.12633435252E+03  0.77119176814E+02 0.  0.
          5    1    5    5  501    0 -0.99048858354E+01 -0.41716849683E+02  0.40310705666E+02  0.59037660033E+02  0.47000000000E+01 0. -1.
        -13    1    6    6    0    0  0.21818444459E+02  0.17339420353E+02 -0.21720209747E+02  0.35333659990E+02  0.00000000000E+00 0.  1.
         14    1    6    6    0    0 -0.44703602783E+02  0.78954230368E+02  0.69959592432E+01  0.91000692528E+02  0.00000000000E+00 0. -1.
         -5    1    3    3    0  503 -0.16655544801E+01  0.13390278281E+02 -0.16189703930E+03  0.16252635158E+03  0.47000000000E+01 0.  1.
         13    1    4    4    0    0  0.85372986812E+01 -0.52376067895E+02 -0.66763378319E+02  0.85284738620E+02  0.00000000000E+00 0. -1.
        -14    1    4    4    0    0  0.25918299958E+02 -0.15591011424E+02  0.17853239092E+02  0.35122301406E+02  0.00000000000E+00 0.  1.
</event>
<event>
12    1  0.8747122E-002  0.2725354E+03  0.7818608E-02  0.1100532E+00
         21   -1    0    0  501  502  0.00000000000E+00  0.00000000000E+00  0.18862064834E+03  0.18862064834E+03  0.00000000000E+00 0. -1.
         21   -1    0    0  502  503 -0.00000000000E+00 -0.00000000000E+00 -0.70757519066E+03  0.70757519066E+03  0.00000000000E+00 0.  1.
         -6    2    1    2    0  503  0.47495308784E+02 -0.19962883854E+03 -0.56246247413E+03  0.62501165491E+03  0.17935455511E+03 0.  0.
        -24    2    3    3    0    0 -0.37431549100E+02 -0.53770636709E+02 -0.23869107503E+03  0.25985799533E+03  0.79122349546E+02 0.  0.
          6    2    1    2  501    0 -0.47495308784E+02  0.19962883854E+03  0.43507931818E+02  0.27118418409E+03  0.17187333718E+03 0.  0.
         24    2    5    5    0    0 -0.68606822577E+01  0.21164301790E+02  0.32303662629E+02  0.87749210873E+02  0.78494590631E+02 0.  0.
          5    1    5    5  501    0 -0.40634626526E+02  0.17846453675E+03  0.11204269189E+02  0.18343497321E+03  0.47000000000E+01 0. -1.
        -11    1    6    6    0    0 -0.23037668739E+02 -0.37747544246E+01 -0.17891376432E+02  0.29412315491E+02  0.00000000000E+00 0.  1.
         12    1    6    6    0    0  0.16176986481E+02  0.24939056215E+02  0.50195039061E+02  0.58336895382E+02  0.00000000000E+00 0. -1.
         -5    1    3    3    0  503  0.84926857884E+02 -0.14585820183E+03 -0.32377139911E+03  0.36515365959E+03  0.47000000000E+01 0.  1.
         13    1    4    4    0    0 -0.35550343786E+02 -0.57130096359E+02 -0.96658596415E+02  0.11777333787E+03  0.00000000000E+00 0. -1.
        -14    1    4    4    0    0 -0.18812053139E+01  0.33594596498E+01 -0.14203247861E+03  0.14208465745E+03  0.00000000000E+00 0.  1.
</event>
<event>
12    1  0.8747122E-002  0.1902376E+03  0.7818608E-02  0.1158654E+00
         21   -1    0    0  501  502  0.00000000000E+00  0.00000000000E+00  0.84138192570E+02  0.84138192570E+02  0.00000000000E+00 0.  1.
         21   -1    0    0  502  503 -0.00000000000E+00 -0.00000000000E+00 -0.45989325187E+03  0.45989325187E+03  0.00000000000E+00 0.  1.
         -6    2    1    2    0  503 -0.16248862010E+02  0.76331894562E+02 -0.26081732788E+03  0.32176800233E+03  0.17151788582E+03 0.  0.
        -24    2    3    3    0    0 -0.31517342207E+02 -0.15893581903E+01 -0.65397980196E+02  0.11078065776E+03  0.83663548817E+02 0.  0.
          6    2    1    2  501    0  0.16248862010E+02 -0.76331894562E+02 -0.11493773142E+03  0.22226344211E+03  0.17349285851E+03 0.  0.
         24    2    5    5    0    0  0.94957181085E+01 -0.67312327940E+02 -0.69591226573E+01  0.11359685348E+03  0.90745234464E+02 0.  0.
          5    1    5    5  501    0  0.67531439014E+01 -0.90195666221E+01 -0.10797860876E+03  0.10866658863E+03  0.47000000000E+01 0. -1.
        -11    1    6    6    0    0 -0.30531509704E+02  0.51904259327E+00 -0.15729671435E+02  0.34349163796E+02  0.00000000000E+00 0.  1.
         12    1    6    6    0    0  0.40027227813E+02 -0.67831370533E+02  0.87705487773E+01  0.79247689687E+02  0.00000000000E+00 0. -1.
         -5    1    3    3    0  503  0.15268480197E+02  0.77921252752E+02 -0.19541934769E+03  0.21098734457E+03  0.47000000000E+01 0.  1.
         11    1    4    4    0    0 -0.20981933528E+02  0.28435368371E+02 -0.70207601723E+02  0.78599739495E+02  0.00000000000E+00 0. -1.
        -12    1    4    4    0    0 -0.10535408678E+02 -0.30024726561E+02  0.48096215275E+01  0.32180918264E+02  0.00000000000E+00 0.  1.
</event>
<event>
12    1  0.8747122E-002  0.1752412E+03  0.7818608E-02  0.1172681E+00
         21   -1    0    0  503  502  0.00000000000E+00  0.00000000000E+00  0.55301621120E+02  0.55301621120E+02  0.00000000000E+00 0.  1.
         21   -1    0    0  501  503 -0.00000000000E+00 -0.00000000000E+00 -0.72374925847E+03  0.72374925847E+03  0.00000000000E+00 0.  1.
          6    2    1    2  501    0  0.31299978456E+02  0.88843014932E+01 -0.52403440603E+03  0.55255909501E+03  0.17219429523E+03 0.  0.
         24    2    3    3    0    0 -0.35281404507E+02 -0.66772369105E+01 -0.11529876607E+03  0.13811711426E+03  0.67031103205E+02 0.  0.
         -6    2    1    2    0  502 -0.31299978456E+02 -0.88843014932E+01 -0.14441323132E+03  0.22649178458E+03  0.17141974110E+03 0.  0.
        -24    2    5    5    0    0  0.23286780525E+02  0.33927124031E+02 -0.33292580652E+02  0.95410048950E+02  0.79381091085E+02 0.  0.
          5    1    3    3  501    0  0.66581382963E+02  0.15561538404E+02 -0.40873563996E+03  0.41444198075E+03  0.47000000000E+01 0. -1.
        -13    1    4    4    0    0 -0.20468515272E+02  0.25091494285E+02 -0.87751654400E+02  0.93535533637E+02  0.00000000000E+00 0.  1.
         14    1    4    4    0    0 -0.14812889235E+02 -0.31768731195E+02 -0.27547111670E+02  0.44581580620E+02  0.00000000000E+00 0. -1.
         -5    1    5    5    0  502 -0.54586758981E+02 -0.42811425524E+02 -0.11112065067E+03  0.13108173563E+03  0.47000000000E+01 0.  1.
         11    1    6    6    0    0 -0.20807681670E+02  0.22226169742E+01 -0.35330354389E+02  0.41062556958E+02  0.00000000000E+00 0. -1.
        -12    1    6    6    0    0  0.44094462195E+02  0.31704507057E+02  0.20377737376E+01  0.54347491991E+02  0.00000000000E+00 0.  1.
</event>
<event>
12    1  0.8747122E-002  0.1895871E+03  0.7818608E-02  0.1159070E+00
         21   -1    0    0  501  502  0.00000000000E+00  0.00000000000E+00  0.11285999301E+03  0.11285999301E+03  0.00000000000E+00 0. -1.
         21   -1    0    0  502  503 -0.00000000000E+00 -0.00000000000E+00 -0.57396897314E+03  0.57396897314E+03  0.00000000000E+00 0. -1.
         -6    2    1    2    0  503  0.14073238538E+02  0.77175048307E+02 -0.10047434960E+01  0.18958974848E+03  0.17259553614E+03 0.  0.
        -24    2    3    3    0    0 -0.54978432078E+02  0.39063322329E+02 -0.18499276660E+02  0.10866518137E+03  0.83170471084E+02 0.  0.
          6    2    1    2  501    0 -0.14073238538E+02 -0.77175048307E+02 -0.46010423664E+03  0.49723921767E+03  0.17145520375E+03 0.  0.
         24    2    5    5    0    0 -0.24269839307E+01 -0.11202108247E+03 -0.42342201819E+03  0.44510902974E+03  0.79254209384E+02 0.  0.
          5    1    5    5  501    0 -0.11646254608E+02  0.34846034159E+02 -0.36682218449E+02  0.52130187927E+02  0.47000000000E+01 0. -1.
        -13    1    6    6    0    0 -0.29285333201E+02 -0.31964877400E+02 -0.75257461324E+02  0.86850846932E+02  0.00000000000E+00 0.  1.
         14    1    6    6    0    0  0.26858349270E+02 -0.80056205066E+02 -0.34816455686E+03  0.35825818281E+03  0.00000000000E+00 0. -1.
         -5    1    3    3    0  503  0.69051670616E+02  0.38111725978E+02  0.17494533164E+02  0.80924567113E+02  0.47000000000E+01 0.  1.
         11    1    4    4    0    0 -0.21688656238E+02  0.50955310862E+02  0.17630992814E+02  0.58117926856E+02  0.00000000000E+00 0. -1.
        -12    1    4    4    0    0 -0.33289775840E+02 -0.11891988533E+02 -0.36130269474E+02  0.50547254515E+02  0.00000000000E+00 0.  1.
</event>
<event>
12    1  0.8747122E-002  0.2244466E+03  0.7818608E-02  0.1130633E+00
         21   -1    0    0  503  502  0.00000000000E+00  0.00000000000E+00  0.31920955444E+02  0.31920955444E+02  0.00000000000E+00 0.  1.
         21   -1    0    0  501  503 -0.00000000000E+00 -0.00000000000E+00 -0.15877875299E+04  0.15877875299E+04  0.00000000000E+00 0.  1.
          6    2    1    2  501    0  0.49502356289E+02  0.13614794403E+03 -0.84354174807E+03  0.87285980262E+03  0.17127407376E+03 0.  0.
         24    2    3    3    0    0  0.74847141745E+01  0.10816971767E+03 -0.33164429853E+03  0.35845786614E+03  0.82142512043E+02 0.  0.
         -6    2    1    2    0  502 -0.49502356289E+02 -0.13614794403E+03 -0.71232482634E+03  0.74684868268E+03  0.17143380841E+03 0.  0.
        -24    2    5    5    0    0 -0.64761106620E+02 -0.98408054532E+02 -0.29904555511E+03  0.33154280174E+03  0.81327973204E+02 0.  0.
          5    1    3    3  501    0  0.42017642115E+02  0.27978226353E+02 -0.51189744955E+03  0.51440193648E+03  0.47000000000E+01 0. -1.
        -11    1    4    4    0    0  0.19058687591E+02  0.62334184998E+02 -0.28383179028E+03  0.29122031070E+03  0.00000000000E+00 0.  1.
         12    1    4    4    0    0 -0.11573973416E+02  0.45835532676E+02 -0.47812508244E+02  0.67237555435E+02  0.00000000000E+00 0. -1.
         -5    1    5    5    0  502  0.15258750331E+02 -0.37739889496E+02 -0.41327927123E+03  0.41530588095E+03  0.47000000000E+01 0.  1.
         13    1    6    6    0    0 -0.31161047130E+01 -0.21121958819E+02 -0.58624238609E+01  0.22140805461E+02  0.00000000000E+00 0. -1.
        -14    1    6    6    0    0 -0.61645001907E+02 -0.77286095712E+02 -0.29318313125E+03  0.30940199628E+03  0.00000000000E+00 0.  1.
</event>
<event>
12    1  0.8747122E-002  0.2382041E+03  0.7818608E-02  0.1121069E+00
         21   -1    0    0  503  502  0.00000000000E+00  0.00000000000E+00  0.35186584565E+03  0.35186584565E+03  0.00000000000E+00 0.  1.
         21   -1    0    0  501  503 -0.00000000000E+00 -0.00000000000E+00 -0.35277610423E+03  0.35277610423E+03  0.00000000000E+00 0.  1.
          6    2    1    2  501    0 -0.15896352393E+03 -0.47159125276E+02 -0.26025040809E+03  0.35250775482E+03  0.17040556699E+03 0.  0.
         24    2    3    3    0    0 -0.36665189414E+02 -0.19411431807E+02 -0.18714077527E+03  0.20727027505E+03  0.78855293743E+02 0.  0.
         -6    2    1    2    0  502  0.15896352393E+03  0.47159125276E+02  0.25934014951E+03  0.35213419505E+03  0.17101986183E+03 0.  0.
        -24    2    5    5    0    0  0.52237969432E+02 -0.64506170649E+01  0.39543502712E+02  0.10194026147E+03  0.77831307270E+02 0.  0.
          5    1    3    3  501    0 -0.12229833452E+03 -0.27747693469E+02 -0.73109632817E+02  0.14523747977E+03  0.47000000000E+01 0. -1.
        -11    1    4    4    0    0  0.58857780791E+01  0.17541759611E+02 -0.92904477340E+01  0.20704302281E+02  0.00000000000E+00 0.  1.
         12    1    4    4    0    0 -0.42550967493E+02 -0.36953191418E+02 -0.17785032754E+03  0.18656597277E+03  0.00000000000E+00 0. -1.
         -5    1    5    5    0  502  0.10672555450E+03  0.53609742340E+02  0.21979664680E+03  0.25019393358E+03  0.47000000000E+01 0.  1.
         11    1    6    6    0    0  0.50203652798E+00 -0.23181214965E+02  0.41492394265E+02  0.47531458528E+02  0.00000000000E+00 0. -1.
        -12    1    6    6    0    0  0.51735932904E+02  0.16730597901E+02 -0.19488915531E+01  0.54408802944E+02  0.00000000000E+00 0.  1.
</event>
<event>
12    1  0.8747122E-002  0.2675121E+03  0.7818608E-02  0.1102889E+00
         21   -1    0    0  501  502  0.00000000000E+00  0.00000000000E+00  0.79995623435E+02  0.79995623435E+02  0.00000000000E+00 0. -1.
         21   -1    0    0  502  503 -0.00000000000E+00 -0.00000000000E+00 -0.91539578120E+03  0.91539578120E+03  0.00000000000E+00 0. -1.
         -6    2    1    2    0  503  0.18057042513E+03  0.96052070529E+02 -0.33658093218E+03  0.42994123702E+03  0.17242698368E+03 0.  0.
        -24    2    3    3    0    0  0.10227929642E+03  0.11128707479E+03 -0.15058562461E+03  0.22751112407E+03  0.78989959789E+02 0.  0.
          6    2    1    2  501    0 -0.18057042513E+03 -0.96052070529E+02 -0.49881922558E+03  0.56545016761E+03  0.17053326233E+03 0.  0.
         24    2    5    5    0    0 -0.12408524339E+03 -0.65259412648E+02 -0.46624630553E+03  0.49318780772E+03  0.78693441309E+02 0.  0.
          5    1    5    5  501    0 -0.56485181739E+02 -0.30792657881E+02 -0.32572920051E+02  0.72262359885E+02  0.47000000000E+01 0. -1.
        -11    1    6    6    0    0 -0.12661597102E+02  0.11649533716E+02 -0.12312573168E+03  0.12432205548E+03  0.00000000000E+00 0.  1.
         12    1    6    6    0    0 -0.11142364629E+03 -0.76908946364E+02 -0.34312057385E+03  0.36886575225E+03  0.00000000000E+00 0. -1.
         -5    1    3    3    0  503  0.78291128706E+02 -0.15235004256E+02 -0.18599530758E+03  0.20243011295E+03  0.47000000000E+01 0.  1.
         13    1    4    4    0    0  0.93190238368E+02  0.10903807457E+03 -0.15955185813E+03  0.21454723878E+03  0.00000000000E+00 0. -1.
        -14    1    4    4    0    0  0.90890580534E+01  0.22490002139E+01  0.89662335267E+01  0.12963885294E+02  0.00000000000E+00 0.  1.
</event>
<event>
12    1  0.8747122E-002  0.1889941E+03  0.7818608E-02  0.1161110E+00
         21   -1    0    0  501  502  0.00000000000E+00  0.00000000000E+00  0.91658254837E+03  0.91658254837E+03  0.00000000000E+00 0. -1.
         21   -1    0    0  502  503 -0.00000000000E+00 -0.00000000000E+00 -0.76282546082E+02  0.76282546082E+02  0.00000000000E+00 0. -1.
         -6    2    1    2    0  503  0.77030451826E+02 -0.14308079756E+02  0.61775642115E+02  0.19172905340E+03  0.16372351177E+03 0.  0.
        -24    2    3    3    0    0  0.54731309378E+02 -0.41602572252E+02 -0.15744918217E+02  0.10644266323E+03  0.79723571557E+02 0.  0.
          6    2    1    2  501    0 -0.77030451826E+02  0.14308079756E+02  0.77852436018E+03  0.80113604105E+03  0.17198943348E+03 0.  0.
         24    2    5    5    0    0 -0.28129523175E+02  0.71813098482E+01  0.16307350198E+03  0.18368649613E+03  0.79403529687E+02 0.  0.
          5    1    5    5  501    0 -0.48900928652E+02  0.71267699073E+01  0.61545085819E+03  0.61744954492E+03  0.47000000000E+01 0. -1.
        -13    1    6    6    0    0  0.90221618557E+01  0.32991994825E+02  0.40379653112E+02  0.52918687744E+02  0.00000000000E+00 0.  1.
         14    1    6    6    0    0 -0.37151685030E+02 -0.25810684977E+02  0.12269384887E+03  0.13076780839E+03  0.00000000000E+00 0. -1.
         -5    1    3    3    0  503  0.22299142448E+02  0.27294492496E+02  0.77520560332E+02  0.85286390173E+02  0.47000000000E+01 0.  1.
         13    1    4    4    0    0 -0.85530684735E+01 -0.34791736374E+02 -0.22700645147E+02  0.42413903267E+02  0.00000000000E+00 0. -1.
        -14    1    4    4    0    0  0.63284377852E+02 -0.68108358782E+01  0.69557269301E+01  0.64028759964E+02  0.00000000000E+00 0.  1.
</event>
<event>
12    1  0.8747122E-002  0.2317605E+03  0.7818608E-02  0.1125496E+00
         21   -1    0    0  503  502  0.00000000000E+00  0.00000000000E+00  0.23802403707E+03  0.23802403707E+03  0.00000000000E+00 0. -1.
         21   -1    0    0  501  503 -0.00000000000E+00 -0.00000000000E+00 -0.36235212770E+03  0.36235212770E+03  0.00000000000E+00 0. -1.
          6    2    1    2  501    0 -0.12405371978E+03 -0.92619884127E+02 -0.24691548362E+03  0.33864463464E+03  0.17246786422E+03 0.  0.
         24    2    3    3    0    0 -0.82965861588E+02 -0.10456262787E+03 -0.25083433718E+03  0.29542093013E+03  0.80863984030E+02 0.  0.
         -6    2    1    2    0  502  0.12405371978E+03  0.92619884127E+02  0.12258739299E+03  0.26173153013E+03  0.17177880142E+03 0.  0.
        -24    2    5    5    0    0  0.10424960956E+03  0.69266301567E+02  0.13836260229E+02  0.14865416070E+03  0.78998833970E+02 0.  0.
          5    1    3    3  501    0 -0.41087858188E+02  0.11942743741E+02  0.39188535553E+01  0.43223704511E+02  0.47000000000E+01 0. -1.
        -13    1    4    4    0    0 -0.29780478393E+01 -0.57246892274E+02 -0.59007871778E+02  0.82267881799E+02  0.00000000000E+00 0.  1.
         14    1    4    4    0    0 -0.79987813749E+02 -0.47315735594E+02 -0.19182646540E+03  0.21315304833E+03  0.00000000000E+00 0. -1.
         -5    1    5    5    0  502  0.19804110214E+02  0.23353582561E+02  0.10875113277E+03  0.11307736943E+03  0.47000000000E+01 0.  1.
         13    1    6    6    0    0  0.23629943425E+02  0.52349224571E+02  0.29861709792E+02  0.64734359124E+02  0.00000000000E+00 0. -1.
        -14    1    6    6    0    0  0.80619666138E+02  0.16917076995E+02 -0.16025449564E+02  0.83919801572E+02  0.00000000000E+00 0.  1.
</event>
<event>
12    1  0.8747122E-002  0.2170189E+03  0.7818608E-02  0.1136225E+00
         21   -1    0    0  503  502  0.00000000000E+00  0.00000000000E+00  0.73221859028E+03  0.73221859028E+03  0.00000000000E+00 0. -1.
         21   -1    0    0  501  503 -0.00000000000E+00 -0.00000000000E+00 -0.65022102795E+02  0.65022102795E+02  0.00000000000E+00 0.  1.
          6    2    1    2  501    0 -0.77320621040E+02 -0.10748615367E+03  0.37893207644E+03  0.43641722152E+03  0.17128549565E+03 0.  0.
         24    2    3    3    0    0 -0.74874351124E+02 -0.21888229633E+02  0.29899932134E+03  0.31918103183E+03  0.79941690408E+02 0.  0.
         -6    2    1    2    0  502  0.77320621040E+02  0.10748615367E+03  0.28826441105E+03  0.36082347155E+03  0.17194608246E+03 0.  0.
        -24    2    5    5    0    0  0.92893872707E+02  0.57550220809E+02  0.27526755152E+03  0.30672049643E+03  0.79774297313E+02 0.  0.
          5    1    3    3  501    0 -0.24462699154E+01 -0.85597924040E+02  0.79932755094E+02  0.11723618969E+03  0.47000000000E+01 0. -1.
        -13    1    4    4    0    0 -0.33657223861E+01 -0.23141889695E+02  0.18820635523E+02  0.30018185610E+02  0.00000000000E+00 0.  1.
         14    1    4    4    0    0 -0.71508628738E+02  0.12536600617E+01  0.28017868582E+03  0.28916284622E+03  0.00000000000E+00 0. -1.
         -5    1    5    5    0  502 -0.15573251667E+02  0.49935932864E+02  0.12996859525E+02  0.54102975113E+02  0.47000000000E+01 0.  1.
         13    1    6    6    0    0  0.16882469714E+02  0.59728459748E+01  0.15168273043E+03  0.15273618884E+03  0.00000000000E+00 0. -1.
        -14    1    6    6    0    0  0.76011402993E+02  0.51577374834E+02  0.12358482109E+03  0.15398430759E+03  0.00000000000E+00 0.  1.
</event>
<event>
12    1  0.8747122E-002  0.2574738E+03  0.7818608E-02  0.1108717E+00
         21   -1    0    0  501  502  0.00000000000E+00  0.00000000000E+00  0.12844366764E+03  0.12844366764E+03  0.00000000000E+00 0.  1.
         21   -1    0    0  502  503 -0.00000000000E+00 -0.00000000000E+00 -0.12551774053E+04  0.12551774053E+04  0.00000000000E+00 0.  1.
         -6    2    1    2    0  503  0.98744839353E+02  0.16355044616E+03 -0.10945720065E+04  0.11244468056E+04  0.17260779132E+03 0.  0.
        -24    2    3    3    0    0  0.76694275920E+02  0.57709870851E+02 -0.34186683167E+03  0.36400244548E+03  0.80077515980E+02 0.  0.
          6    2    1    2  501    0 -0.98744839353E+02 -0.16355044616E+03 -0.32161731201E+02  0.25917426730E+03  0.17215583679E+03 0.  0.
         24    2    5    5    0    0  0.97188843326E+00 -0.28553584911E+02  0.34052046278E+01  0.87550623040E+02  0.82687752404E+02 0.  0.
          5    1    5    5  501    0 -0.99716727787E+02 -0.13499686124E+03 -0.35566935829E+02  0.17162364426E+03  0.47000000000E+01 0. -1.
        -11    1    6    6    0    0  0.67272054443E+01 -0.52799104318E+02  0.20815917348E+02  0.57151580249E+02  0.00000000000E+00 0.  1.
         12    1    6    6    0    0 -0.57553170110E+01  0.24245519407E+02 -0.17410712721E+02  0.30399042791E+02  0.00000000000E+00 0. -1.
         -5    1    3    3    0  503  0.22050563433E+02  0.10584057530E+03 -0.75270517480E+03  0.76044436016E+03  0.47000000000E+01 0.  1.
         11    1    4    4    0    0  0.82866864848E+02  0.60375334756E+02 -0.34224073141E+03  0.35726854966E+03  0.00000000000E+00 0. -1.
        -12    1    4    4    0    0 -0.61725889283E+01 -0.26654639047E+01  0.37389974262E+00  0.67338958206E+01  0.00000000000E+00 0.  1.
</event>
<event>
12    1  0.8747122E-002  0.2027273E+03  0.7818608E-02  0.1148873E+00
         21   -1    0    0  501  502  0.00000000000E+00  0.00000000000E+00  0.31402449712E+03  0.31402449712E+03  0.00000000000E+00 0. -1.
         21   -1    0    0  502  503 -0.00000000000E+00 -0.00000000000E+00 -0.16591143719E+03  0.16591143719E+03  0.00000000000E+00 0. -1.
         -6    2    1    2    0  503  0.10793739692E+03  0.59865737423E+00 -0.41813462719E+02  0.20699454971E+03  0.17160284933E+03 0.  0.
        -24    2    3    3    0    0  0.14136433192E+03  0.13171458956E+02 -0.48700602934E+02  0.17032088036E+03  0.80499017946E+02 0.  0.
          6    2    1    2  501    0 -0.10793739692E+03 -0.59865737423E+00  0.18992652265E+03  0.27294138461E+03  0.16362785637E+03 0.  0.
         24    2    5    5    0    0 -0.91317139645E+02  0.18756640190E+02  0.52111531921E+02  0.13270614594E+03  0.78769777618E+02 0.  0.
          5    1    5    5  501    0 -0.16620257273E+02 -0.19355297564E+02  0.13781499073E+03  0.14023523867E+03  0.47000000000E+01 0. -1.
        -13    1    6    6    0    0 -0.26044849538E+02 -0.29216442879E+02  0.28214618058E+02  0.48249346049E+02  0.00000000000E+00 0.  1.
         14    1    6    6    0    0 -0.65272290107E+02  0.47973083070E+02  0.23896913863E+02  0.84456799887E+02  0.00000000000E+00 0. -1.
         -5    1    3    3    0  503 -0.33426935000E+02 -0.12572801582E+02  0.68871402152E+01  0.36673669348E+02  0.47000000000E+01 0.  1.
         13    1    4    4    0    0  0.84707723222E+02  0.15823255075E+01 -0.68756909731E+02  0.10911193685E+03  0.00000000000E+00 0. -1.
        -14    1    4    4    0    0  0.56656608696E+02  0.11589133449E+02  0.20056306797E+02  0.61208943508E+02  0.00000000000E+00 0.  1.
</event>
<event>
12    1  0.8747122E-002  0.1771502E+03  0.7818608E-02  0.1170815E+00
         21   -1    0    0  501  502  0.00000000000E+00  0.00000000000E+00  0.21690609980E+03  0.21690609980E+03  0.00000000000E+00 0.  1.
         21   -1    0    0  502  503 -0.00000000000E+00 -0.00000000000E+00 -0.20377298110E+03  0.20377298110E+03  0.00000000000E+00 0.  1.
         -6    2    1    2    0  503  0.17115080672E+02  0.36758721037E+02 -0.10739879760E+03  0.20716347426E+03  0.17244730727E+03 0.  0.
        -24    2    3    3    0    0 -0.41855935024E+00 -0.34557779896E+02 -0.16083978236E+02  0.89886204204E+02  0.81402825547E+02 0.  0.
          6    2    1    2  501    0 -0.17115080672E+02 -0.36758721037E+02  0.12053191630E+03  0.21351560664E+03  0.17151338686E+03 0.  0.
         24    2    5    5    0    0  0.14707262164E+02 -0.63058667810E+02  0.13599680256E+03  0.16918050304E+03  0.77033844232E+02 0.  0.
          5    1    5    5  501    0 -0.31822342836E+02  0.26299946773E+02 -0.15464886259E+02  0.44335103596E+02  0.47000000000E+01 0. -1.
        -11    1    6    6    0    0 -0.75997483495E+01 -0.21847218491E+02  0.11591001234E+03  0.11819555022E+03  0.00000000000E+00 0.  1.
         12    1    6    6    0    0  0.22307010514E+02 -0.41211449320E+02  0.20086790216E+02  0.50984952822E+02  0.00000000000E+00 0. -1.
         -5    1    3    3    0  503  0.17533640023E+02  0.71316500933E+02 -0.91314819360E+02  0.11727727006E+03  0.47000000000E+01 0.  1.
         11    1    4    4    0    0  0.10341092639E+02 -0.35667695202E+02 -0.45390878674E+02  0.58646863043E+02  0.00000000000E+00 0. -1.
        -12    1    4    4    0    0 -0.10759651989E+02  0.11099153063E+01  0.29306900437E+02  0.31239341161E+02  0.00000000000E+00 0.  1.
</event>
<event>
12    1  0.8747122E-002  0.2111482E+03  0.7818608E-02  0.1140755E+00
         21   -1    0    0  501  502  0.00000000000E+00  0.00000000000E+00  0.11792143661E+03  0.11792143661E+03  0.00000000000E+00 0.  1.
         21   -1    0    0  502  503 -0.00000000000E+00 -0.00000000000E+00 -0.69986568961E+03  0.69986568961E+03  0.00000000000E+00 0.  1.
         -6    2    1    2    0  503  0.99454826284E+02 -0.70969426055E+02 -0.56842408372E+03  0.60620652229E+03  0.17161726838E+03 0.  0.
        -24    2    3    3    0    0 -0.33501310053E+01 -0.21704499528E+02 -0.35146143369E+03  0.36107232693E+03  0.79785820934E+02 0.  0.
          6    2    1    2  501    0 -0.99454826284E+02  0.70969426055E+02 -0.13520169279E+02  0.21158060393E+03  0.17220811559E+03 0.  0.
         24    2    5    5    0    0 -0.83795566338E+02  0.83504704952E+02  0.45431279003E+02  0.14913295470E+03  0.78625087472E+02 0.  0.
          5    1    5    5  501    0 -0.15659259946E+02 -0.12535278897E+02 -0.58951448282E+02  0.62447649225E+02  0.47000000000E+01 0. -1.
        -13    1    6    6    0    0 -0.10780302986E+02  0.65695594327E+02  0.16396259117E+02  0.68563571665E+02  0.00000000000E+00 0.  1.
         14    1    6    6    0    0 -0.73015263352E+02  0.17809110626E+02  0.29035019886E+02  0.80569383040E+02  0.00000000000E+00 0. -1.
         -5    1    3    3    0  503  0.10280495729E+03 -0.49264926527E+02 -0.21696265003E+03  0.24513419537E+03  0.47000000000E+01 0.  1.
         13    1    4    4    0    0 -0.31271515973E+01  0.24477384246E+02 -0.46576624775E+02  0.52709613849E+02  0.00000000000E+00 0. -1.
        -14    1    4    4    0    0 -0.22297940792E+00 -0.46181883774E+02 -0.30488480892E+03  0.30836271308E+03  0.00000000000E+00 0.  1.
</event>
<event>
12    1  0.8747122E-002  0.2745504E+03  0.7818608E-02  0.1098732E+00
         21   -1    0    0  501  502  0.00000000000E+00  0.00000000000E+00  0.14103633548E+04  0.14103633548E+04  0.00000000000E+00 0. -1.
         21   -1    0    0  502  503 -0.00000000000E+00 -0.00000000000E+00 -0.64678091392E+02  0.64678091392E+02  0.00000000000E+00 0. -1.
         -6    2    1    2    0  503 -0.75396231025E+02  0.20011638223E+03  0.36515925847E+03  0.45685798431E+03  0.17218239078E+03 0.  0.
        -24    2    3    3    0    0  0.20615957910E+02  0.13344504276E+03  0.18492631959E+03  0.24198730184E+03  0.78278435187E+02 0.  0.
          6    2    1    2  501    0  0.75396231025E+02 -0.20011638223E+03  0.98052600493E+03  0.10181834619E+04  0.17185795762E+03 0.  0.
         24    2    5    5    0    0 -0.12953982977E+02 -0.44887961138E+02  0.40715921221E+03  0.41762273054E+03  0.80295617833E+02 0.  0.
          5    1    5    5  501    0  0.88350214002E+02 -0.15522842109E+03  0.57336679272E+03  0.60056073133E+03  0.47000000000E+01 0. -1.
        -13    1    6    6    0    0 -0.37731497847E+02 -0.43699845376E+02  0.17810201630E+03  0.18722625518E+03  0.00000000000E+00 0.  1.
         14    1    6    6    0    0  0.24777514870E+02 -0.11881157618E+01  0.22905719591E+03  0.23039647536E+03  0.00000000000E+00 0. -1.
         -5    1    3    3    0  503 -0.96012188935E+02  0.66671339468E+02  0.18023293887E+03  0.21487068247E+03  0.47000000000E+01 0.  1.
         13    1    4    4    0    0 -0.37768420866E+01  0.11813615213E+03  0.17568084884E+03  0.21174082182E+03  0.00000000000E+00 0. -1.
        -14    1    4    4    0    0  0.24392799997E+02  0.15308890626E+02  0.92454707523E+01  0.30246480015E+02  0.00000000000E+00 0.  1.
</event>
<event>
12    1  0.8747122E-002  0.2323263E+03  0.7818608E-02  0.1125142E+00
         21   -1    0    0  501  502  0.00000000000E+00  0.00000000000E+00  0.13022911831E+03  0.13022911831E+03  0.00000000000E+00 0. -1.
         21   -1    0    0  502  503 -0.00000000000E+00 -0.00000000000E+00 -0.43105692804E+03  0.43105692804E+03  0.00000000000E+00 0.  1.
         -6    2    1    2    0  503  0.13477784854E+02 -0.15565358295E+03 -0.93440467681E+02  0.25041289129E+03  0.17194710394E+03 0.  0.
        -24    2    3    3    0    0 -0.42440156552E+02 -0.10592262710E+03 -0.11840142618E+02  0.13959462929E+03  0.79534280224E+02 0.  0.
          6    2    1    2  501    0 -0.13477784854E+02  0.15565358295E+03 -0.20738734205E+03  0.31087315506E+03  0.17094712728E+03 0.  0.
         24    2    5    5    0    0  0.56658810744E+02  0.11047843384E+03 -0.14218260788E+03  0.20488408252E+03  0.79661082771E+02 0.  0.
          5    1    5    5  501    0 -0.70136595598E+02  0.45175149110E+02 -0.65204734169E+02  0.10598907254E+03  0.47000000000E+01 0. -1.
        -13    1    6    6    0    0  0.71442308614E+02  0.55375160218E+02 -0.83949593700E+02  0.12336103968E+03  0.00000000000E+00 0.  1.
         14    1    6    6    0    0 -0.14783497869E+02  0.55103273624E+02 -0.58233014183E+02  0.81523042842E+02  0.00000000000E+00 0. -1.
         -5    1    3    3    0  503  0.55917941405E+02 -0.49730955856E+02 -0.81600325063E+02  0.11081826200E+03  0.47000000000E+01 0.  1.
         11    1    4    4    0    0 -0.42557409575E+02 -0.93038351613E+02 -0.39033711089E+02  0.10950296152E+03  0.00000000000E+00 0. -1.
        -12    1    4    4    0    0  0.11725302332E+00 -0.12884275483E+02  0.27193568471E+02  0.30091667770E+02  0.00000000000E+00 0.  1.
</event>
<event>
12    1  0.8747122E-002  0.2511112E+03  0.7818608E-02  0.1112902E+00
         21   -1    0    0  501  502  0.00000000000E+00  0.00000000000E+00  0.99553862516E+02  0.99553862516E+02  0.00000000000E+00 0.  1.
         21   -1    0    0  502  503 -0.00000000000E+00 -0.00000000000E+00 -0.67704135967E+03  0.67704135967E+03  0.00000000000E+00 0.  1.
         -6    2    1    2    0  503 -0.10415868135E+03  0.14739250505E+03 -0.39356034886E+03  0.46684751005E+03  0.17459458182E+03 0.  0.
        -24    2    3    3    0    0 -0.11535790202E+03  0.88383464106E+02 -0.17748469278E+03  0.24253017098E+03  0.78746335647E+02 0.  0.
          6    2    1    2  501    0  0.10415868135E+03 -0.14739250505E+03 -0.18392714829E+03  0.30974771213E+03  0.17187457011E+03 0.  0.
         24    2    5    5    0    0  0.12202797377E+03 -0.16350733053E+03 -0.14198381264E+03  0.26116445764E+03  0.80137365581E+02 0.  0.
          5    1    5    5  501    0 -0.17869292425E+02  0.16114825485E+02 -0.41943335645E+02  0.48583254494E+02  0.47000000000E+01 0. -1.
        -11    1    6    6    0    0  0.13094052573E+03 -0.13685839012E+03 -0.11187859734E+03  0.21998286471E+03  0.00000000000E+00 0.  1.
         12    1    6    6    0    0 -0.89125519604E+01 -0.26648940412E+02 -0.30105215308E+02  0.41181592930E+02  0.00000000000E+00 0. -1.
         -5    1    3    3    0  503  0.11199220675E+02  0.59009040939E+02 -0.21607565608E+03  0.22431733907E+03  0.47000000000E+01 0.  1.
         11    1    4    4    0    0 -0.33047868900E+02  0.29822962900E+02 -0.80043949973E+01  0.45228764014E+02  0.00000000000E+00 0. -1.
        -12    1    4    4    0    0 -0.82310033120E+02  0.58560501206E+02 -0.16948029778E+03  0.19730140696E+03  0.00000000000E+00 0.  1.
</event>
<event>
12    1  0.8747122E-002  0.2602632E+03  0.7818608E-02  0.1107135E+00
         21   -1    0    0  501  502  0.00000000000E+00  0.00000000000E+00  0.10107146556E+04  0.10107146556E+04  0.00000000000E+00 0.  1.
         21   -1    0    0  502  503 -0.00000000000E+00 -0.00000000000E+00 -0.16492114710E+03  0.16492114710E+03  0.00000000000E+00 0. -1.
         -6    2    1    2    0  503  0.19301182476E+03  0.24241769244E+02 -0.30921036136E+02  0.26110569824E+03  0.17140258837E+03 0.  0.
        -24    2    3    3    0    0  0.83869418850E+02 -0.16985864727E+02 -0.72377539978E+02  0.13720043490E+03  0.79138183105E+02 0.  0.
          6    2    1    2  501    0 -0.19301182476E+03 -0.24241769244E+02  0.87671454459E+03  0.91453010442E+03  0.17290370534E+03 0.  0.
         24    2    5    5    0    0 -0.98075173370E+02 -0.50602033214E+02  0.29922261425E+03  0.32867444736E+03  0.79456995130E+02 0.  0.
          5    1    5    5  501    0 -0.94936651392E+02  0.26360263971E+02  0.57749193035E+03  0.58585565706E+03  0.47000000000E+01 0. -1.
        -13    1    6    6    0    0 -0.77300235572E+02 -0.25093519055E+02  0.27773265015E+03  0.28937939816E+03  0.00000000000E+00 0.  1.
         14    1    6    6    0    0 -0.20774937797E+02 -0.25508514159E+02  0.21489964095E+02  0.39295049203E+02  0.00000000000E+00 0. -1.
         -5    1    3    3    0  503  0.10914240591E+03  0.41227633971E+02  0.41456503842E+02  0.12390526333E+03  0.47000000000E+01 0.  1.
         13    1    4    4    0    0  0.26483589179E+02 -0.44033118557E+02 -0.44221414929E+02  0.67792547997E+02  0.00000000000E+00 0. -1.
        -14    1    4    4    0    0  0.57385829671E+02  0.27047253829E+02 -0.28156125050E+02  0.69407886905E+02  0.00000000000E+00 0.  1.
</event>
<event>
12    1  0.8747122E-002  0.2000279E+03  0.7818608E-02  0.1149941E+00
         21   -1    0    0  503  502  0.00000000000E+00  0.00000000000E+00  0.28518031397E+03  0.28518031397E+03  0.00000000000E+00 0.  1.
         21   -1    0    0  501  503 -0.00000000000E+00 -0.00000000000E+00 -0.14851653882E+03  0.14851653882E+03  0.00000000000E+00 0.  1.
          6    2    1    2  501    0  0.36976911441E+02 -0.92369474554E+02  0.15233861652E+02  0.20060715757E+03  0.17352737340E+03 0.  0.
         24    2    3    3    0    0  0.82309716668E+02 -0.99642973771E+02  0.24369784305E+02  0.15355907469E+03  0.79264691709E+02 0.  0.
         -6    2    1    2    0  502 -0.36976911441E+02  0.92369474554E+02  0.12142991350E+03  0.23308969522E+03  0.17229675074E+03 0.  0.
        -24    2    5    5    0    0 -0.72338552608E+02  0.11675261006E+03  0.97664306300E+02  0.18377562979E+03  0.73287974658E+02 0.  0.
          5    1    3    3  501    0 -0.45332805226E+02  0.72734992163E+01 -0.91359226531E+01  0.47048082886E+02  0.47000000000E+01 0. -1.
        -13    1    4    4    0    0 -0.70057258994E+01 -0.43095276213E+02 -0.47277259353E+01  0.43916220463E+02  0.00000000000E+00 0.  1.
         14    1    4    4    0    0  0.89315442567E+02 -0.56547697558E+02  0.29097510240E+02  0.10964285422E+03  0.00000000000E+00 0. -1.
         -5    1    5    5    0  502  0.35361641167E+02 -0.24383135511E+02  0.23765607198E+02  0.49314065426E+02  0.47000000000E+01 0.  1.
         13    1    6    6    0    0  0.59345956381E+00 -0.58013050525E+01 -0.52977812549E+01  0.78786941044E+01  0.00000000000E+00 0. -1.
        -14    1    6    6    0    0 -0.72932012172E+02  0.12255391512E+03  0.10296208756E+03  0.17589693569E+03  0.00000000000E+00 0.  1.
</event>
<event>
12    1  0.8747122E-002  0.2223052E+03  0.7818608E-02  0.1132298E+00
         21   -1    0    0  501  502  0.00000000000E+00  0.00000000000E+00  0.16920958146E+03  0.16920958146E+03  0.00000000000E+00 0. -1.
         21   -1    0    0  502  503 -0.00000000000E+00 -0.00000000000E+00 -0.33616830359E+03  0.33616830359E+03  0.00000000000E+00 0.  1.
         -6    2    1    2    0  503  0.91869779309E+02  0.10582669719E+03 -0.17601588540E+03  0.28355103635E+03  0.17256955733E+03 0.  0.
        -24    2    3    3    0    0  0.10385762645E+03  0.21410106713E+02 -0.10648205077E+03  0.17342877073E+03  0.86569695275E+02 0.  0.
          6    2    1    2  501    0 -0.91869779309E+02 -0.10582669719E+03  0.90571632678E+01  0.22182684870E+03  0.17171421726E+03 0.  0.
         24    2    5    5    0    0 -0.10260098578E+03 -0.21472588650E+02  0.19752316051E+02  0.13599415846E+03  0.84357707409E+02 0.  0.
          5    1    5    5  501    0  0.10731206475E+02 -0.84354108539E+02 -0.10695152783E+02  0.85832690234E+02  0.47000000000E+01 0. -1.
        -13    1    6    6    0    0 -0.26936757577E+02 -0.14236633871E+02 -0.31886914810E+02  0.44102675529E+02  0.00000000000E+00 0.  1.
         14    1    6    6    0    0 -0.75664228207E+02 -0.72359547788E+01  0.51639230861E+02  0.91891482933E+02  0.00000000000E+00 0. -1.
         -5    1    3    3    0  503 -0.11987847144E+02  0.84416590475E+02 -0.69533834627E+02  0.11012226562E+03  0.47000000000E+01 0.  1.
         13    1    4    4    0    0  0.97211244831E+02  0.28016537334E+02 -0.44125792658E+02  0.11037227036E+03  0.00000000000E+00 0. -1.
        -14    1    4    4    0    0  0.66463816223E+01 -0.66064306208E+01 -0.62356258111E+02  0.63056500378E+02  0.00000000000E+00 0.  1.
</event>
<event>
12    1  0.8747122E-002  0.1930514E+03  0.7818608E-02  0.1155914E+00
         21   -1    0    0  503  502  0.00000000000E+00  0.00000000000E+00  0.24968852634E+03  0.24968852634E+03  0.00000000000E+00 0.  1.
         21   -1    0    0  501  503 -0.00000000000E+00 -0.00000000000E+00 -0.31443281263E+03  0.31443281263E+03  0.00000000000E+00 0.  1.
          6    2    1    2  501    0  0.32443591518E+02  0.78084907860E+02 -0.23721452042E+03  0.30584237905E+03  0.17354824302E+03 0.  0.
         24    2    3    3    0    0  0.37898747205E+02  0.10939018546E+02 -0.45466460144E+02  0.10255013179E+03  0.83026220951E+02 0.  0.
         -6    2    1    2    0  502 -0.32443591518E+02 -0.78084907860E+02  0.17247023413E+03  0.25827895992E+03  0.17266209778E+03 0.  0.
        -24    2    5    5    0    0 -0.58167082561E+02 -0.21928354847E+02  0.35393236023E+02  0.10785472701E+03  0.80719878229E+02 0.  0.
          5    1    3    3  501    0 -0.54551556870E+01  0.67145889314E+02 -0.19174806028E+03  0.20329224726E+03  0.47000000000E+01 0. -1.
        -11    1    4    4    0    0 -0.19082015885E+02  0.17285923506E+02  0.49311085743E+01  0.26215306855E+02  0.00000000000E+00 0.  1.
         12    1    4    4    0    0  0.56980763090E+02 -0.63469049601E+01 -0.50397568719E+02  0.76334824934E+02  0.00000000000E+00 0. -1.
         -5    1    5    5    0  502  0.25723491043E+02 -0.56156553013E+02  0.13707699811E+03  0.15042423292E+03  0.47000000000E+01 0.  1.
         11    1    6    6    0    0  0.12309028753E+02  0.12565377348E+02 -0.66876367736E+01  0.18818219426E+02  0.00000000000E+00 0. -1.
        -12    1    6    6    0    0 -0.70476111314E+02 -0.34493732195E+02  0.42080872796E+02  0.89036507580E+02  0.00000000000E+00 0.  1.
</event>
<event>
12    1  0.8747122E-002  0.2146098E+03  0.7818608E-02  0.1138596E+00
         21   -1    0    0  503  502  0.00000000000E+00  0.00000000000E+00  0.14980379179E+03  0.14980379179E+03  0.00000000000E+00 0. -1.
         21   -1    0    0  501  503 -0.00000000000E+00 -0.00000000000E+00 -0.30284515895E+03  0.30284515895E+03  0.00000000000E+00 0. -1.
          6    2    1    2  501    0 -0.25839452092E+02 -0.12105047714E+03 -0.77961739149E+02  0.22528507905E+03  0.17133137124E+03 0.  0.
         24    2    3    3    0    0 -0.79160592564E+02 -0.77420345007E+02 -0.72267510179E+02  0.15599405009E+03  0.82772226017E+02 0.  0.
         -6    2    1    2    0  502  0.25839452092E+02  0.12105047714E+03 -0.75079628010E+02  0.22736387168E+03  0.17531823722E+03 0.  0.
        -24    2    5    5    0    0 -0.33986539998E+02  0.12521633357E+03 -0.67748878125E+02  0.16676408964E+03  0.79913303095E+02 0.  0.
          5    1    3    3  501    0  0.53321140472E+02 -0.43630132132E+02 -0.56942289701E+01  0.69291028962E+02  0.47000000000E+01 0. -1.
        -11    1    4    4    0    0 -0.13300969768E+02  0.17890417964E+02 -0.13877330139E+02  0.26259534335E+02  0.00000000000E+00 0.  1.
         12    1    4    4    0    0 -0.65859622795E+02 -0.95310762971E+02 -0.58390180040E+02  0.12973451575E+03  0.00000000000E+00 0. -1.
         -5    1    5    5    0  502  0.59825992090E+02 -0.41658564352E+01 -0.73307498855E+01  0.60599782040E+02  0.47000000000E+01 0.  1.
         13    1    6    6    0    0 -0.51958706441E+02  0.98556752525E+02 -0.26603348501E+02  0.11454640455E+03  0.00000000000E+00 0. -1.
        -14    1    6    6    0    0  0.17972166443E+02  0.26659581050E+02 -0.41145529624E+02  0.52217685093E+02  0.00000000000E+00 0.  1.
</event>
<event>
12    1  0.8747122E-002  0.1981673E+03  0.7818608E-02  0.1153681E+00
         21   -1    0    0  503  502  0.00000000000E+00  0.00000000000E+00  0.20496203495E+02  0.20496203495E+02  0.00000000000E+00 0.  1.
         21   -1    0    0  501  503 -0.00000000000E+00 -0.00000000000E+00 -0.18128109602E+04  0.18128109602E+04  0.00000000000E+00 0.  1.
          6    2    1    2  501    0 -0.60198357805E+02  0.40521317177E+02 -0.93280982166E+03  0.95362699610E+03  0.18440299583E+03 0.  0.
         24    2    3    3    0    0 -0.53920813674E+02  0.83597739719E+02 -0.42528661944E+03  0.44421863679E+03  0.81027479071E+02 0.  0.
         -6    2    1    2    0  502  0.60198357805E+02 -0.40521317177E+02 -0.85950493507E+03  0.87968016762E+03  0.17269234051E+03 0.  0.
        -24    2    5    5    0    0 -0.61576331173E+01  0.35032302654E+02 -0.40195979345E+03  0.41119205292E+03  0.79006646280E+02 0.  0.
          5    1    3    3  501    0 -0.62775441305E+01 -0.43076422542E+02 -0.50752320222E+03  0.50940835931E+03  0.47000000000E+01 0. -1.
        -13    1    4    4    0    0 -0.64560451601E+02  0.37061043922E+02 -0.32110137571E+03  0.32961745459E+03  0.00000000000E+00 0.  1.
         14    1    4    4    0    0  0.10639637927E+02  0.46536695797E+02 -0.10418524373E+03  0.11460118220E+03  0.00000000000E+00 0. -1.
         -5    1    5    5    0  502  0.66355990922E+02 -0.75553619831E+02 -0.45754514161E+03  0.46848811470E+03  0.47000000000E+01 0.  1.
         13    1    6    6    0    0  0.21901282993E+02  0.31673666365E+02 -0.34941174920E+03  0.35152732158E+03  0.00000000000E+00 0. -1.
        -14    1    6    6    0    0 -0.28058916110E+02  0.33586362888E+01 -0.52548044249E+02  0.59664731336E+02  0.00000000000E+00 0.  1.
</event>
<event>
12    1  0.8747122E-002  0.1749751E+03  0.7818608E-02  0.1173506E+00
         21   -1    0    0  503  502  0.00000000000E+00  0.00000000000E+00  0.44527797492E+03  0.44527797492E+03  0.00000000000E+00 0.  1.
         21   -1    0    0  501  503 -0.00000000000E+00 -0.00000000000E+00 -0.82117304076E+02  0.82117304076E+02  0.00000000000E+00 0.  1.
          6    2    1    2  501    0 -0.22074512780E+02  0.26228809112E+02  0.69434033616E+02  0.18550109970E+03  0.16856553154E+03 0.  0.
         24    2    3    3    0    0 -0.73946326083E+02  0.22050029146E+02  0.16749664657E+02  0.11129948280E+03  0.78439535178E+02 0.  0.
         -6    2    1    2    0  502  0.22074512780E+02 -0.26228809112E+02  0.29372663723E+03  0.34189417930E+03  0.17158396743E+03 0.  0.
        -24    2    5    5    0    0  0.55972411833E+02 -0.67967315186E+02  0.18786965928E+03  0.22307094828E+03  0.81933950647E+02 0.  0.
          5    1    3    3  501    0  0.51871813303E+02  0.41787799663E+01  0.52684368959E+02  0.74201616896E+02  0.47000000000E+01 0. -1.
        -13    1    4    4    0    0 -0.32886296513E+02 -0.12612886934E+02 -0.25049750043E+02  0.43221330294E+02  0.00000000000E+00 0.  1.
         14    1    4    4    0    0 -0.41060029570E+02  0.34662916080E+02  0.41799414700E+02  0.68078152506E+02  0.00000000000E+00 0. -1.
         -5    1    5    5    0  502 -0.33897899053E+02  0.41738506074E+02  0.10585697794E+03  0.11882323102E+03  0.47000000000E+01 0.  1.
         11    1    6    6    0    0  0.51843480367E+01 -0.13607085460E+02 -0.57465887666E+01  0.15654185439E+02  0.00000000000E+00 0. -1.
        -12    1    6    6    0    0  0.50788063796E+02 -0.54360229725E+02  0.19361624805E+03  0.20741676284E+03  0.00000000000E+00 0.  1.
</event>
<event>
12    1  0.8747122E-002  0.1995301E+03  0.7818608E-02  0.1150240E+00
         21   -1    0    0  503  502  0.00000000000E+00  0.00000000000E+00  0.41388319934E+03  0.41388319934E+03  0.00000000000E+00 0.  1.
         21   -1    0    0  501  503 -0.00000000000E+00 -0.00000000000E+00 -0.96831072153E+02  0.96831072153E+02  0.00000000000E+00 0. -1.
          6    2    1    2  501    0  0.55692603071E+02 -0.83570834048E+02  0.13444558883E+03  0.24059901418E+03  0.17241380145E+03 0.  0.
         24    2    3    3    0    0  0.12882122268E+02 -0.10047333136E+03  0.41901449159E+02  0.13713433678E+03  0.82396938627E+02 0.  0.
         -6    2    1    2    0  502 -0.55692603071E+02  0.83570834048E+02  0.18260653836E+03  0.27011525731E+03  0.17184689128E+03 0.  0.
        -24    2    5    5    0    0 -0.76539463894E+02  0.88665101242E+01  0.14821458982E+03  0.18514335758E+03  0.79834789960E+02 0.  0.
          5    1    3    3  501    0  0.42810480804E+02  0.16902497309E+02  0.92544139670E+02  0.10346467740E+03  0.47000000000E+01 0. -1.
        -13    1    4    4    0    0  0.41418255320E+01 -0.48032693765E+02  0.63519188275E+02  0.79743223337E+02  0.00000000000E+00 0.  1.
         14    1    4    4    0    0  0.87402967356E+01 -0.52440637592E+02 -0.21617739116E+02  0.57391113446E+02  0.00000000000E+00 0. -1.
         -5    1    5    5    0  502  0.20846860823E+02  0.74704323924E+02  0.34391948545E+02  0.84971899731E+02  0.47000000000E+01 0.  1.
         11    1    6    6    0    0 -0.56127892931E+02 -0.22243848529E+02  0.44633303205E+02  0.75081694954E+02  0.00000000000E+00 0. -1.
        -12    1    6    6    0    0 -0.20411570963E+02  0.31110358653E+02  0.10358128661E+03  0.11006166263E+03  0.00000000000E+00 0.  1.
</event>
<event>
12    1  0.8747122E-002  0.1883505E+03  0.7818608E-02  0.1164217E+00
         21   -1    0    0  503  502  0.00000000000E+00  0.00000000000E+00  0.14474116756E+03  0.14474116756E+03  0.00000000000E+00 0.  1.
         21   -1    0    0  501  503 -0.00000000000E+00 -0.00000000000E+00 -0.23251285769E+03  0.23251285769E+03  0.00000000000E+00 0. -1.
          6    2    1    2  501    0  0.31598624482E+02  0.69906575309E+02 -0.84893995984E+02  0.20659839420E+03  0.17201890475E+03 0.  0.
         24    2    3    3    0    0 -0.38460082580E+02  0.50028248818E+02 -0.86478162290E+02  0.13360545015E+03  0.79937101048E+02 0.  0.
         -6    2    1    2    0  502 -0.31598624482E+02 -0.69906575309E+02 -0.28776941378E+01  0.17065563105E+03  0.15241279784E+03 0.  0.
        -24    2    5    5    0    0 -0.73043984222E+02 -0.69779413289E+02  0.11491123364E+01  0.12875050983E+03  0.79817185940E+02 0.  0.
          5    1    3    3  501    0  0.70058707062E+02  0.19878326491E+02  0.15841663060E+01  0.72992944057E+02  0.47000000000E+01 0. -1.
        -11    1    4    4    0    0 -0.87238538098E+01  0.56892769181E+02 -0.20831024736E+02  0.61211309428E+02  0.00000000000E+00 0.  1.
         12    1    4    4    0    0 -0.29736228770E+02 -0.68645203626E+01 -0.65647137555E+02  0.72394140719E+02  0.00000000000E+00 0. -1.
         -5    1    5    5    0  502  0.41445359741E+02 -0.12716202046E+00 -0.40268064743E+01  0.41905121222E+02  0.47000000000E+01 0.  1.
         13    1    6    6    0    0 -0.19393554332E+02  0.15620443777E+02 -0.10893021060E+02  0.27180252413E+02  0.00000000000E+00 0. -1.
        -14    1    6    6    0    0 -0.53650429890E+02 -0.85399857066E+02  0.12042133397E+02  0.10157025741E+03  0.00000000000E+00 0.  1.
</event>
<event>
12    1  0.8747122E-002  0.2627670E+03  0.7818608E-02  0.1105601E+00
         21   -1    0    0  503  502  0.00000000000E+00  0.00000000000E+00  0.77113033557E+03  0.77113033557E+03  0.00000000000E+00 0. -1.
         21   -1    0    0  501  503 -0.00000000000E+00 -0.00000000000E+00 -0.27381595572E+03  0.27381595572E+03  0.00000000000E+00 0. -1.
          6    2    1    2  501    0 -0.10170271636E+03  0.17019007264E+03 -0.18036485571E+03  0.31810679422E+03  0.17132526963E+03 0.  0.
         24    2    3    3    0    0  0.20436247248E+01  0.11364109065E+03 -0.62600927026E+02  0.15121903688E+03  0.77652090526E+02 0.  0.
         -6    2    1    2    0  502  0.10170271636E+03 -0.17019007264E+03  0.67767923556E+03  0.72683949707E+03  0.17244826718E+03 0.  0.
        -24    2    5    5    0    0  0.88264036203E+02 -0.18335648775E+03  0.50400641226E+03  0.55208740934E+03  0.96787924193E+02 0.  0.
          5    1    3    3  501    0 -0.10374634108E+03  0.56548981990E+02 -0.11776392869E+03  0.16688775734E+03  0.47000000000E+01 0. -1.
        -11    1    4    4    0    0  0.31913916779E+02  0.20661446046E+02 -0.64322459903E+01  0.38558620636E+02  0.00000000000E+00 0.  1.
         12    1    4    4    0    0 -0.29870292054E+02  0.92979644603E+02 -0.56168681036E+02  0.11266041624E+03  0.00000000000E+00 0. -1.
         -5    1    5    5    0  502  0.13438680153E+02  0.13166415116E+02  0.17367282331E+03  0.17475208773E+03  0.47000000000E+01 0.  1.
         11    1    6    6    0    0 -0.14046978662E+02 -0.22427789141E+02  0.12546074794E+03  0.12822138124E+03  0.00000000000E+00 0. -1.
        -12    1    6    6    0    0  0.10231101487E+03 -0.16092869861E+03  0.37854566432E+03  0.42386602810E+03  0.00000000000E+00 0.  1.
</event>
<event>
12    1  0.8747122E-002  0.3301972E+03  0.7818608E-02  0.1071200E+00
         21   -1    0    0  501  502  0.00000000000E+00  0.00000000000E+00  0.50444264793E+03  0.50444264793E+03  0.00000000000E+00 0.  1.
         21   -1    0    0  502  503 -0.00000000000E+00 -0.00000000000E+00 -0.62088156115E+03  0.62088156115E+03  0.00000000000E+00 0. -1.
         -6    2    1    2    0  503 -0.80528453222E+02 -0.26134457948E+03 -0.51304723501E+03  0.61012100446E+03  0.18505230000E+03 0.  0.
        -24    2    3    3    0    0 -0.60525323072E+01 -0.78550592165E+02 -0.92875550300E+02  0.14587253734E+03  0.80287611932E+02 0.  0.
          6    2    1    2  501    0  0.80528453222E+02  0.26134457948E+03  0.39660832179E+03  0.51520320462E+03  0.18262080969E+03 0.  0.
         24    2    5    5    0    0  0.12701179154E+02  0.24603872871E+03  0.31731425701E+03  0.40963594225E+03  0.80105502309E+02 0.  0.
          5    1    5    5  501    0  0.67827274067E+02  0.15305850767E+02  0.79294064781E+02  0.10556726237E+03  0.47000000000E+01 0. -1.
        -11    1    6    6    0    0  0.46581425947E+02  0.15817808106E+03  0.20259356107E+03  0.26121693199E+03  0.00000000000E+00 0.  1.
         12    1    6    6    0    0 -0.33880246793E+02  0.87860647649E+02  0.11472069594E+03  0.14841901026E+03  0.00000000000E+00 0. -1.
         -5    1    3    3    0  503 -0.74475920914E+02 -0.18279398731E+03 -0.42017168471E+03  0.46424846712E+03  0.47000000000E+01 0.  1.
         11    1    4    4    0    0 -0.25829108210E+02 -0.81320757913E+02 -0.92578469850E+02  0.12590068141E+03  0.00000000000E+00 0. -1.
        -12    1    4    4    0    0  0.19776575902E+02  0.27701657483E+01 -0.29708044981E+00  0.19971855935E+02  0.00000000000E+00 0.  1.
</event>
<event>
12    1  0.8747122E-002  0.1721722E+03  0.7818608E-02  0.1175917E+00
         21   -1    0    0  501  502  0.00000000000E+00  0.00000000000E+00  0.21493767689E+02  0.21493767689E+02  0.00000000000E+00 0.  1.
         21   -1    0    0  502  503 -0.00000000000E+00 -0.00000000000E+00 -0.22710092888E+04  0.22710092888E+04  0.00000000000E+00 0.  1.
         -6    2    1    2    0  503 -0.89950357910E+01 -0.61302427466E+01 -0.18494381927E+04  0.18574350348E+04  0.17182778970E+03 0.  0.
        -24    2    3    3    0    0  0.28888307211E+02 -0.25339352331E+02 -0.54672478743E+03  0.55402088578E+03  0.80960061901E+02 0.  0.
          6    2    1    2  501    0  0.89950357910E+01  0.61302427466E+01 -0.40007732834E+03  0.43506802162E+03  0.17059842979E+03 0.  0.
         24    2    5    5    0    0 -0.25203957808E+02 -0.55002609850E+02 -0.24500316030E+03  0.26484204116E+03  0.80338232700E+02 0.  0.
          5    1    5    5  501    0  0.34198993599E+02  0.61132852597E+02 -0.15507416804E+03  0.17022598046E+03  0.47000000000E+01 0. -1.
        -11    1    6    6    0    0 -0.51994348700E+02 -0.32263996342E+02 -0.18964817362E+03  0.19927570728E+03  0.00000000000E+00 0.  1.
         12    1    6    6    0    0  0.26790390892E+02 -0.22738613508E+02 -0.55354986678E+02  0.65566333880E+02  0.00000000000E+00 0. -1.
         -5    1    3    3    0  503 -0.37883343002E+02  0.19209109585E+02 -0.13027134053E+04  0.13034141490E+04  0.47000000000E+01 0.  1.
         13    1    4    4    0    0 -0.14272817293E+02 -0.12230314604E+02 -0.40177730149E+03  0.40221672504E+03  0.00000000000E+00 0. -1.
        -14    1    4    4    0    0  0.43161124504E+02 -0.13109037728E+02 -0.14494748594E+03  0.15180416074E+03  0.00000000000E+00 0.  1.
</event>
<event>
12    1  0.8747122E-002  0.1778281E+03  0.7818608E-02  0.1170203E+00
         21   -1    0    0  501  502  0.00000000000E+00  0.00000000000E+00  0.35063511171E+03  0.35063511171E+03  0.00000000000E+00 0.  1.
         21   -1    0    0  502  503 -0.00000000000E+00 -0.00000000000E+00 -0.87845811571E+03  0.87845811571E+03  0.00000000000E+00 0.  1.
         -6    2    1    2    0  503  0.43498940165E+02  0.50787822870E+01 -0.84635709286E+03  0.86483707561E+03  0.17235105709E+03 0.  0.
        -24    2    3    3    0    0  0.43498854800E+02 -0.35035678579E+02 -0.30198001190E+03  0.31896376957E+03  0.86176038234E+02 0.  0.
          6    2    1    2  501    0 -0.43498940165E+02 -0.50787822870E+01  0.31853408887E+03  0.36425615182E+03  0.17117425782E+03 0.  0.
         24    2    5    5    0    0  0.46985162651E+01 -0.55948099741E+02  0.12763376027E+03  0.16084595609E+03  0.80179666450E+02 0.  0.
          5    1    5    5  501    0 -0.48197456430E+02  0.50869317454E+02  0.19090032860E+03  0.20341019572E+03  0.47000000000E+01 0. -1.
        -13    1    6    6    0    0 -0.57328467730E+01  0.16164969449E+02  0.56388164754E+02  0.58938925115E+02  0.00000000000E+00 0.  1.
         14    1    6    6    0    0  0.10431363038E+02 -0.72113069190E+02  0.71245595513E+02  0.10190703098E+03  0.00000000000E+00 0. -1.
         -5    1    3    3    0  503  0.85365184844E-04  0.40114460866E+02 -0.54437708096E+03  0.54587330604E+03  0.47000000000E+01 0.  1.
         13    1    4    4    0    0  0.17066793308E+02 -0.61551251918E+02 -0.16415146269E+03  0.17614066751E+03  0.00000000000E+00 0. -1.
        -14    1    4    4    0    0  0.26432061492E+02  0.26515573339E+02 -0.13782854921E+03  0.14282310206E+03  0.00000000000E+00 0.  1.
</event>
<event>
12    1  0.8747122E-002  0.4196651E+03  0.7818608E-02  0.1037260E+00
         21   -1    0    0  501  502  0.00000000000E+00  0.00000000000E+00  0.11862127061E+03  0.11862127061E+03  0.00000000000E+00 0. -1.
         21   -1    0    0  502  503 -0.00000000000E+00 -0.00000000000E+00 -0.17689894201E+04  0.17689894201E+04  0.00000000000E+00 0.  1.
         -6    2    1    2    0  503  0.35238230496E+03  0.14710309378E+03 -0.12068103798E+04  0.12776971914E+04  0.17408679185E+03 0.  0.
        -24    2    3    3    0    0  0.10278374759E+03  0.10296878715E+03 -0.51426999993E+03  0.54021394101E+03  0.78679090885E+02 0.  0.
          6    2    1    2  501    0 -0.35238230496E+03 -0.14710309378E+03 -0.44355776976E+03  0.60991349937E+03  0.17157614213E+03 0.  0.
         24    2    5    5    0    0 -0.62684518056E+02 -0.29922708005E+02 -0.10551967002E+03  0.14953550530E+03  0.80010932536E+02 0.  0.
          5    1    5    5  501    0 -0.28969778690E+03 -0.11718038577E+03 -0.33803809974E+03  0.46037799407E+03  0.47000000000E+01 0. -1.
        -13    1    6    6    0    0 -0.51198789204E+02 -0.55566862127E+02 -0.62031493886E+02  0.97759390426E+02  0.00000000000E+00 0.  1.
         14    1    6    6    0    0 -0.11485728852E+02  0.25644154121E+02 -0.43488176134E+02  0.51776114873E+02  0.00000000000E+00 0. -1.
         -5    1    3    3    0  503  0.24959855737E+03  0.44134306626E+02 -0.69254037985E+03  0.73748325037E+03  0.47000000000E+01 0.  1.
         13    1    4    4    0    0  0.88875946803E+01 -0.11706917060E+02 -0.25136475137E+02  0.29118441383E+02  0.00000000000E+00 0. -1.
        -14    1    4    4    0    0  0.93896152905E+02  0.11467570421E+03 -0.48913352479E+03  0.51109549963E+03  0.00000000000E+00 0.  1.
</event>
<event>
12    1  0.8747122E-002  0.1968096E+03  0.7818608E-02  0.1152738E+00
         21   -1    0    0  501  502  0.00000000000E+00  0.00000000000E+00  0.18344313487E+03  0.18344313487E+03  0.00000000000E+00 0.  1.
         21   -1    0    0  502  503 -0.00000000000E+00 -0.00000000000E+00 -0.23540694142E+03  0.23540694142E+03  0.00000000000E+00 0.  1.
         -6    2    1    2    0  503  0.54914384572E+02  0.73921451105E+02 -0.95171354002E+02  0.21861290890E+03  0.17393690451E+03 0.  0.
        -24    2    3    3    0    0 -0.37824454305E+02  0.22376949415E+02 -0.42851844360E+02  0.10022055704E+03  0.79224126875E+02 0.  0.
          6    2    1    2  501    0 -0.54914384572E+02 -0.73921451105E+02  0.43207547455E+02  0.20023716739E+03  0.17247626063E+03 0.  0.
         24    2    5    5    0    0 -0.76918608162E+01 -0.11255916629E+03  0.32659938215E+02  0.13813900442E+03  0.72711638260E+02 0.  0.
          5    1    5    5  501    0 -0.47222523756E+02  0.38637715184E+02  0.10547609240E+02  0.62098162978E+02  0.47000000000E+01 0. -1.
        -13    1    6    6    0    0 -0.35517401575E+02 -0.48155573156E+02 -0.20349113626E+01  0.59871411415E+02  0.00000000000E+00 0.  1.
         14    1    6    6    0    0  0.27825540759E+02 -0.64403593133E+02  0.34694849577E+02  0.78267593001E+02  0.00000000000E+00 0. -1.
         -5    1    3    3    0  503  0.92738838876E+02  0.51544501690E+02 -0.52319509641E+02  0.11839235186E+03  0.47000000000E+01 0.  1.
         13    1    4    4    0    0 -0.29879760043E+02  0.20003775127E+02  0.17016470780E+02  0.39780791311E+02  0.00000000000E+00 0. -1.
        -14    1    4    4    0    0 -0.79446942618E+01  0.23731742876E+01 -0.59868315141E+02  0.60439765725E+02  0.00000000000E+00 0.  1.
</event>
<event>
12    1  0.8747122E-002  0.1984114E+03  0.7818608E-02  0.1151151E+00
         21   -1    0    0  503  502  0.00000000000E+00  0.00000000000E+00  0.34399009647E+03  0.34399009647E+03  0.00000000000E+00 0.  1.
         21   -1    0    0  501  503 -0.00000000000E+00 -0.00000000000E+00 -0.35069771018E+03  0.35069771018E+03  0.00000000000E+00 0. -1.
          6    2    1    2  501    0  0.76397274415E+02 -0.64179243338E+02 -0.28855085068E+03  0.35018378904E+03  0.17149802875E+03 0.  0.
         24    2    3    3    0    0  0.15911696267E+02  0.15094654399E+02 -0.19980078283E+03  0.21661163412E+03  0.80741665496E+02 0.  0.
         -6    2    1    2    0  502 -0.76397274415E+02  0.64179243338E+02  0.28184323697E+03  0.34450401762E+03  0.17114873389E+03 0.  0.
        -24    2    5    5    0    0 -0.28894594425E+02 -0.10866911577E+02  0.22020378013E+03  0.23629152937E+03  0.79943697137E+02 0.  0.
          5    1    3    3  501    0  0.60485578148E+02 -0.79273897737E+02 -0.88750067848E+02  0.13357215492E+03  0.47000000000E+01 0. -1.
        -11    1    4    4    0    0 -0.34954330199E+01  0.59976899699E+01  0.63149447537E+01  0.93845012768E+01  0.00000000000E+00 0.  1.
         12    1    4    4    0    0  0.19407129287E+02  0.90969644291E+01 -0.20611572758E+03  0.20722713284E+03  0.00000000000E+00 0. -1.
         -5    1    5    5    0  502 -0.47502679990E+02  0.75046154915E+02  0.61639456842E+02  0.10821248825E+03  0.47000000000E+01 0.  1.
         11    1    6    6    0    0 -0.43500312963E+02 -0.28437822111E+01  0.54677292028E+02  0.69928324653E+02  0.00000000000E+00 0. -1.
        -12    1    6    6    0    0  0.14605718539E+02 -0.80231293660E+01  0.16552648810E+03  0.16636320471E+03  0.00000000000E+00 0.  1.
</event>
<event>
12    1  0.8747122E-002  0.4436565E+03  0.7818608E-02  0.1029637E+00
         21   -1    0    0  501  502  0.00000000000E+00  0.00000000000E+00  0.48970100182E+03  0.48970100182E+03  0.00000000000E+00 0. -1.
         21   -1    0    0  502  503 -0.00000000000E+00 -0.00000000000E+00 -0.50840868840E+03  0.50840868840E+03  0.00000000000E+00 0. -1.
         -6    2    1    2    0  503 -0.22108749443E+03 -0.34414414020E+03 -0.23780605688E+03  0.50337147983E+03  0.17180295861E+03 0.  0.
        -24    2    3    3    0    0 -0.30903626226E+02 -0.13400657724E+03 -0.90057602329E+02  0.18371636112E+03  0.82027634060E+02 0.  0.
          6    2    1    2  501    0  0.22108749443E+03  0.34414414020E+03  0.21909837029E+03  0.49473821040E+03  0.17160108255E+03 0.  0.
         24    2    5    5    0    0  0.15865558985E+03  0.33615339831E+03  0.19455501026E+03  0.42701774682E+03  0.79509752163E+02 0.  0.
          5    1    5    5  501    0  0.62431904585E+02  0.79907418849E+01  0.24543360030E+02  0.67720463580E+02  0.47000000000E+01 0. -1.
        -13    1    6    6    0    0 -0.81770902790E+01  0.29069665824E+02  0.21288776461E+02  0.36947561216E+02  0.00000000000E+00 0.  1.
         14    1    6    6    0    0  0.16683268013E+03  0.30708373249E+03  0.17326623380E+03  0.39007018560E+03  0.00000000000E+00 0. -1.
         -5    1    3    3    0  503 -0.19018386821E+03 -0.21013756296E+03 -0.14774845455E+03  0.31965511871E+03  0.47000000000E+01 0.  1.
         11    1    4    4    0    0 -0.58960944110E+02 -0.81524651074E+02 -0.57392485484E+02  0.11582987116E+03  0.00000000000E+00 0. -1.
        -12    1    4    4    0    0  0.28057317884E+02 -0.52481926161E+02 -0.32665116845E+02  0.67886489959E+02  0.00000000000E+00 0.  1.
</event>
<event>
12    1  0.8747122E-002  0.1991102E+03  0.7818608E-02  0.1154084E+00
         21   -1    0    0  501  502  0.00000000000E+00  0.00000000000E+00  0.18627958776E+03  0.18627958776E+03  0.00000000000E+00 0. -1.
         21   -1    0    0  502  503 -0.00000000000E+00 -0.00000000000E+00 -0.22893796161E+03  0.22893796161E+03  0.00000000000E+00 0. -1.
         -6    2    1    2    0  503 -0.48495241671E+02 -0.87654488819E+02 -0.99388683415E+02  0.20818323942E+03  0.15305898506E+03 0.  0.
        -24    2    3    3    0    0 -0.43603811232E+02 -0.30868392929E+02 -0.11493139274E+03  0.14891897876E+03  0.78188791786E+02 0.  0.
          6    2    1    2  501    0  0.48495241671E+02  0.87654488819E+02  0.56730309564E+02  0.20703430995E+03  0.17207492437E+03 0.  0.
         24    2    5    5    0    0 -0.51520670194E+00  0.10449020138E+03  0.15606135772E+01  0.13119730960E+03  0.79321062203E+02 0.  0.
          5    1    5    5  501    0  0.49010448373E+02 -0.16835712560E+02  0.55169695987E+02  0.75837000352E+02  0.47000000000E+01 0. -1.
        -11    1    6    6    0    0  0.23443778219E+02  0.76339253512E+02 -0.27197282476E+02  0.84362222221E+02  0.00000000000E+00 0.  1.
         12    1    6    6    0    0 -0.23958984921E+02  0.28150947867E+02  0.28757896053E+02  0.46835087377E+02  0.00000000000E+00 0. -1.
         -5    1    3    3    0  503 -0.48914304382E+01 -0.56786095890E+02  0.15542709327E+02  0.59264260658E+02  0.47000000000E+01 0.  1.
         11    1    4    4    0    0 -0.40856399159E+02 -0.51419852933E+02 -0.10916466732E+03  0.12739768922E+03  0.00000000000E+00 0. -1.
        -12    1    4    4    0    0 -0.27474120732E+01  0.20551460004E+02 -0.57667254263E+01  0.21521289541E+02  0.00000000000E+00 0.  1.
</event>
<event>
12    1  0.8747122E-002  0.1758706E+03  0.7818608E-02  0.1171889E+00
         21   -1    0    0  503  502  0.00000000000E+00  0.00000000000E+00  0.22111833864E+02  0.22111833864E+02  0.00000000000E+00 0.  1.
         21   -1    0    0  501  503 -0.00000000000E+00 -0.00000000000E+00 -0.14208534671E+04  0.14208534671E+04  0.00000000000E+00 0.  1.
          6    2    1    2  501    0 -0.29660264581E+02 -0.19732871614E+02 -0.60746542403E+03  0.63238000362E+03  0.17210784433E+03 0.  0.
         24    2    3    3    0    0  0.20177264265E+02 -0.67128959117E+02 -0.37519720765E+03  0.39009755950E+03  0.80558935907E+02 0.  0.
         -6    2    1    2    0  502  0.29660264581E+02  0.19732871614E+02 -0.79127620923E+03  0.81058529736E+03  0.17222475863E+03 0.  0.
        -24    2    5    5    0    0  0.50448041651E+02 -0.26231972560E+02 -0.69970001788E+03  0.70592782081E+03  0.74302435233E+02 0.  0.
          5    1    3    3  501    0 -0.49837528846E+02  0.47396087502E+02 -0.23226821637E+03  0.24228244412E+03  0.47000000000E+01 0. -1.
        -11    1    4    4    0    0  0.47657570540E+02 -0.22433969340E+02 -0.15385618322E+03  0.16262303688E+03  0.00000000000E+00 0.  1.
         12    1    4    4    0    0 -0.27480306275E+02 -0.44694989777E+02 -0.22134102444E+03  0.22747452262E+03  0.00000000000E+00 0. -1.
         -5    1    5    5    0  502 -0.20787777070E+02  0.45964844174E+02 -0.91576191352E+02  0.10465747655E+03  0.47000000000E+01 0.  1.
         13    1    6    6    0    0  0.31546826705E+02 -0.52118803784E+02 -0.41956794577E+03  0.42396796235E+03  0.00000000000E+00 0. -1.
        -14    1    6    6    0    0  0.18901214946E+02  0.25886831224E+02 -0.28013207211E+03  0.28195985846E+03  0.00000000000E+00 0.  1.
</event>
<event>
12    1  0.8747122E-002  0.1795672E+03  0.7818608E-02  0.1168534E+00
         21   -1    0    0  501  502  0.00000000000E+00  0.00000000000E+00  0.17477186586E+03  0.17477186586E+03  0.00000000000E+00 0.  1.
         21   -1    0    0  502  503 -0.00000000000E+00 -0.00000000000E+00 -0.27838098542E+03  0.27838098542E+03  0.00000000000E+00 0.  1.
         -6    2    1    2    0  503 -0.33657778746E+02  0.35831465843E+02 -0.18442196689E+03  0.25740207228E+03  0.17270675994E+03 0.  0.
        -24    2    3    3    0    0  0.51337260133E+01  0.85232686981E+02 -0.11483635618E+03  0.16354308917E+03  0.79170621088E+02 0.  0.
          6    2    1    2  501    0  0.33657778746E+02 -0.35831465843E+02  0.80812847334E+02  0.19575077900E+03  0.17137943625E+03 0.  0.
         24    2    5    5    0    0  0.65462528411E+02 -0.48980767532E+02  0.81465173779E+01  0.11520928817E+03  0.80761105245E+02 0.  0.
          5    1    5    5  501    0 -0.31804749665E+02  0.13149301689E+02  0.72666329956E+02  0.80541490832E+02  0.47000000000E+01 0. -1.
        -11    1    6    6    0    0  0.68609846389E+02 -0.30646899234E+02  0.34715903737E+02  0.82775222298E+02  0.00000000000E+00 0.  1.
         12    1    6    6    0    0 -0.31473179783E+01 -0.18333868298E+02 -0.26569386359E+02  0.32434065868E+02  0.00000000000E+00 0. -1.
         -5    1    3    3    0  503 -0.38791504759E+02 -0.49401221138E+02 -0.69585610714E+02  0.93858983107E+02  0.47000000000E+01 0.  1.
         11    1    4    4    0    0 -0.36838850783E+02  0.35978541999E+02 -0.45727380672E+02  0.68866172788E+02  0.00000000000E+00 0. -1.
        -12    1    4    4    0    0  0.41972576796E+02  0.49254144982E+02 -0.69108975507E+02  0.94676916386E+02  0.00000000000E+00 0.  1.
</event>
<event>
12    1  0.8747122E-002  0.2130723E+03  0.7818608E-02  0.1139523E+00
         21   -1    0    0  501  502  0.00000000000E+00  0.00000000000E+00  0.37982414439E+03  0.37982414439E+03  0.00000000000E+00 0.  1.
         21   -1    0    0  502  503 -0.00000000000E+00 -0.00000000000E+00 -0.16916596910E+03  0.16916596910E+03  0.00000000000E+00 0.  1.
         -6    2    1    2    0  503 -0.76659264377E+02  0.97960923688E+02 -0.45257433431E+02  0.21598472842E+03  0.17066980473E+03 0.  0.
        -24    2    3    3    0    0 -0.39791832137E+02  0.70119170314E+02  0.39555236676E+02  0.11929114124E+03  0.78521791117E+02 0.  0.
          6    2    1    2  501    0  0.76659264377E+02 -0.97960923688E+02  0.25591560873E+03  0.33300538507E+03  0.17299364817E+03 0.  0.
         24    2    5    5    0    0 -0.10245946313E+02 -0.73485520955E+02  0.76834048245E+02  0.13239667068E+03  0.78232386072E+02 0.  0.
          5    1    5    5  501    0  0.86905210690E+02 -0.24475402733E+02  0.17908156048E+03  0.20060871439E+03  0.47000000000E+01 0. -1.
        -13    1    6    6    0    0  0.11458796987E+02 -0.16884104667E+02  0.68172369350E+02  0.71160726258E+02  0.00000000000E+00 0.  1.
         14    1    6    6    0    0 -0.21704743299E+02 -0.56601416288E+02  0.86616788951E+01  0.61235944418E+02  0.00000000000E+00 0. -1.
         -5    1    3    3    0  503 -0.36867432240E+02  0.27841753374E+02 -0.84812670107E+02  0.96693587180E+02  0.47000000000E+01 0.  1.
         11    1    4    4    0    0 -0.11211433344E+02 -0.16701906961E+02  0.13569600303E+02  0.24264871443E+02  0.00000000000E+00 0. -1.
        -12    1    4    4    0    0 -0.28580398792E+02  0.86821077275E+02  0.25985636373E+02  0.95026269800E+02  0.00000000000E+00 0.  1.
</event>
<event>
12    1  0.8747122E-002  0.1945566E+03  0.7818608E-02  0.1156294E+00
         21   -1    0    0  503  502  0.00000000000E+00  0.00000000000E+00  0.83780425455E+03  0.83780425455E+03  0.00000000000E+00 0. -1.
         21   -1    0    0  501  503 -0.00000000000E+00 -0.00000000000E+00 -0.55047777979E+02  0.55047777979E+02  0.00000000000E+00 0. -1.
          6    2    1    2  501    0  0.15299131554E+02 -0.88930616610E+02  0.17797782535E+03  0.25754934726E+03  0.16282764496E+03 0.  0.
         24    2    3    3    0    0  0.12338747682E+02  0.16391044693E+01  0.14097809919E+03  0.15955593940E+03  0.73677282717E+02 0.  0.
         -6    2    1    2    0  502 -0.15299131554E+02  0.88930616610E+02  0.60477865123E+03  0.63530268527E+03  0.17236463364E+03 0.  0.
        -24    2    5    5    0    0  0.28910415986E+02 -0.49977538267E+00  0.37876948259E+03  0.38821057003E+03  0.80031642563E+02 0.  0.
          5    1    3    3  501    0  0.29603838725E+01 -0.90569721079E+02  0.36999726151E+02  0.97993407861E+02  0.47000000000E+01 0. -1.
        -11    1    4    4    0    0 -0.35838644161E+01  0.16064817096E+02  0.13665128109E+03  0.13763900267E+03  0.00000000000E+00 0.  1.
         12    1    4    4    0    0  0.15922612098E+02 -0.14425712627E+02  0.43268181025E+01  0.21916936731E+02  0.00000000000E+00 0. -1.
         -5    1    5    5    0  502 -0.44209547540E+02  0.89430391992E+02  0.22600916864E+03  0.24709211524E+03  0.47000000000E+01 0.  1.
         13    1    6    6    0    0 -0.19967671102E+02 -0.28877318301E+01  0.30818096054E+02  0.36834792368E+02  0.00000000000E+00 0. -1.
        -14    1    6    6    0    0  0.48878087088E+02  0.23879564474E+01  0.34795138654E+03  0.35137577766E+03  0.00000000000E+00 0.  1.
</event>
<event>
12    1  0.8747122E-002  0.4314047E+03  0.7818608E-02  0.1033421E+00
         21   -1    0    0  501  502  0.00000000000E+00  0.00000000000E+00  0.11754044100E+03  0.11754044100E+03  0.00000000000E+00 0.  1.
         21   -1    0    0  502  503 -0.00000000000E+00 -0.00000000000E+00 -0.16940484329E+04  0.16940484329E+04  0.00000000000E+00 0. -1.
         -6    2    1    2    0  503  0.38283556618E+03  0.99269794939E+02 -0.55656759827E+03  0.70418569904E+03  0.17231495688E+03 0.  0.
        -24    2    3    3    0    0  0.10516694474E+03  0.23828886100E+02 -0.25739167295E+03  0.28907183713E+03  0.75393312945E+02 0.  0.
          6    2    1    2  501    0 -0.38283556618E+03 -0.99269794939E+02 -0.10199403936E+04  0.11074031749E+04  0.17217962196E+03 0.  0.
         24    2    5    5    0    0 -0.34683727433E+03 -0.13467290209E+03 -0.89417008004E+03  0.97179521494E+03  0.80080723862E+02 0.  0.
          5    1    5    5  501    0 -0.35998291851E+02  0.35403107148E+02 -0.12577031361E+03  0.13560795993E+03  0.47000000000E+01 0. -1.
        -11    1    6    6    0    0 -0.43545103313E+02 -0.60569025780E+01 -0.55916346135E+02  0.71130161370E+02  0.00000000000E+00 0.  1.
         12    1    6    6    0    0 -0.30329217101E+03 -0.12861599951E+03 -0.83825373390E+03  0.90066505357E+03  0.00000000000E+00 0. -1.
         -5    1    3    3    0  503  0.27766862144E+03  0.75440908839E+02 -0.29917592532E+03  0.41511386191E+03  0.47000000000E+01 0.  1.
         11    1    4    4    0    0  0.39720688581E+02 -0.26317445150E+02 -0.11587258022E+03  0.12528685433E+03  0.00000000000E+00 0. -1.
        -12    1    4    4    0    0  0.65446256158E+02  0.50146331250E+02 -0.14151909273E+03  0.16378498280E+03  0.00000000000E+00 0.  1.
</event>
<event>
12    1  0.8747122E-002  0.1772367E+03  0.7818608E-02  0.1174363E+00
         21   -1    0    0  503  502  0.00000000000E+00  0.00000000000E+00  0.39739608035E+02  0.39739608035E+02  0.00000000000E+00 0.  1.
         21   -1    0    0  501  503 -0.00000000000E+00 -0.00000000000E+00 -0.12794252270E+04  0.12794252270E+04  0.00000000000E+00 0.  1.
          6    2    1    2  501    0 -0.20754788218E+02  0.39610277391E+02 -0.10382240092E+04  0.10508373418E+04  0.15604579589E+03 0.  0.
         24    2    3    3    0    0  0.85642648725E+01  0.41830715043E+02 -0.98936062953E+03  0.99361621733E+03  0.81336195629E+02 0.  0.
         -6    2    1    2    0  502  0.20754788218E+02 -0.39610277391E+02 -0.20146160976E+03  0.26832749320E+03  0.17150256000E+03 0.  0.
        -24    2    5    5    0    0  0.38805854775E+02  0.25376726570E+02 -0.71308562061E+02  0.12166100925E+03  0.86986306574E+02 0.  0.
          5    1    3    3  501    0 -0.29319053091E+02 -0.22204376524E+01 -0.48863379671E+02  0.57221124511E+02  0.47000000000E+01 0. -1.
        -11    1    4    4    0    0  0.38101484877E+02  0.45602899247E+02 -0.76205496051E+03  0.76436843892E+03  0.00000000000E+00 0.  1.
         12    1    4    4    0    0 -0.29537220004E+02 -0.37721842037E+01 -0.22730566902E+03  0.22924777841E+03  0.00000000000E+00 0. -1.
         -5    1    5    5    0  502 -0.18051066557E+02 -0.64987003961E+02 -0.13015304770E+03  0.14666648395E+03  0.47000000000E+01 0.  1.
         11    1    6    6    0    0 -0.17951976515E+02  0.18020522172E+02 -0.57369226570E+02  0.62755404846E+02  0.00000000000E+00 0. -1.
        -12    1    6    6    0    0  0.56757831290E+02  0.73562043979E+01 -0.13939335491E+02  0.58905604400E+02  0.00000000000E+00 0.  1.
</event>
<event>
12    1  0.8747122E-002  0.2037501E+03  0.7818608E-02  0.1146915E+00
         21   -1    0    0  501  502  0.00000000000E+00  0.00000000000E+00  0.94228074719E+02  0.94228074719E+02  0.00000000000E+00 0. -1.
         21   -1    0    0  502  503 -0.00000000000E+00 -0.00000000000E+00 -0.65904069570E+03  0.65904069570E+03  0.00000000000E+00 0.  1.
         -6    2    1    2    0  503  0.10662413627E+03  0.11749128148E+02 -0.50148560997E+03  0.54129650789E+03  0.17322627977E+03 0.  0.
        -24    2    3    3    0    0  0.11292034163E+03 -0.33278465340E+02 -0.29490149705E+03  0.32971623450E+03  0.88811274753E+02 0.  0.
          6    2    1    2  501    0 -0.10662413627E+03 -0.11749128148E+02 -0.63327011012E+02  0.21197226253E+03  0.17150854588E+03 0.  0.
         24    2    5    5    0    0  0.88412266600E+01 -0.25241420996E+02 -0.22303335116E+02  0.88605638250E+02  0.81475295333E+02 0.  0.
          5    1    5    5  501    0 -0.11546536293E+03  0.13492292847E+02 -0.41023675897E+02  0.12336662428E+03  0.47000000000E+01 0. -1.
        -13    1    6    6    0    0 -0.14389802575E+02 -0.21946657386E+02 -0.47442913490E+02  0.54217637619E+02  0.00000000000E+00 0.  1.
         14    1    6    6    0    0  0.23231029235E+02 -0.32947636099E+01  0.25139578374E+02  0.34388000631E+02  0.00000000000E+00 0. -1.
         -5    1    3    3    0  503 -0.62962053636E+01  0.45027593488E+02 -0.20658411292E+03  0.21158027339E+03  0.47000000000E+01 0.  1.
         11    1    4    4    0    0  0.10888232561E+03  0.26515004352E+01 -0.19328695050E+03  0.22186084945E+03  0.00000000000E+00 0. -1.
        -12    1    4    4    0    0  0.40380160151E+01 -0.35929965775E+02 -0.10161454656E+03  0.10785538506E+03  0.00000000000E+00 0.  1.
</event>
<event>
12    1  0.8747122E-002  0.1951844E+03  0.7818608E-02  0.1155244E+00
         21   -1    0    0  501  502  0.00000000000E+00  0.00000000000E+00  0.34868716217E+03  0.34868716217E+03  0.00000000000E+00 0. -1.
         21   -1    0    0  502  503 -0.00000000000E+00 -0.00000000000E+00 -0.12318062798E+03  0.12318062798E+03  0.00000000000E+00 0. -1.
         -6    2    1    2    0  503 -0.25864132665E+02 -0.60284377150E+02  0.22584720304E+02  0.19031103109E+03  0.17721472703E+03 0.  0.
        -24    2    3    3    0    0 -0.25872086628E+02  0.33444699390E+02  0.21220146439E+02  0.96454268342E+02  0.84054854010E+02 0.  0.
          6    2    1    2  501    0  0.25864132665E+02  0.60284377150E+02  0.20292181389E+03  0.28155675905E+03  0.18383086393E+03 0.  0.
         24    2    5    5    0    0 -0.59883512672E+02  0.13371949621E+02  0.10203853967E+03  0.14101153660E+03  0.75548300777E+02 0.  0.
          5    1    5    5  501    0  0.85747645337E+02  0.46912427529E+02  0.10088327422E+03  0.14054522245E+03  0.47000000000E+01 0. -1.
        -11    1    6    6    0    0 -0.43364335952E+02 -0.28451908849E+02  0.47544899726E+02  0.70359748718E+02  0.00000000000E+00 0.  1.
         12    1    6    6    0    0 -0.16519176720E+02  0.41823858471E+02  0.54493639940E+02  0.70651787881E+02  0.00000000000E+00 0. -1.
         -5    1    3    3    0  503  0.79539625764E-02 -0.93729076540E+02  0.13645738651E+01  0.93856762751E+02  0.47000000000E+01 0.  1.
         11    1    4    4    0    0 -0.46019448584E+02  0.39553869363E+02 -0.71761164714E+01  0.61104786042E+02  0.00000000000E+00 0. -1.
        -12    1    4    4    0    0  0.20147361957E+02 -0.61091699733E+01  0.28396262911E+02  0.35349482300E+02  0.00000000000E+00 0.  1.
</event>
<event>
12    1  0.8747122E-002  0.3815174E+03  0.7818608E-02  0.1050389E+00
         21   -1    0    0  503  502  0.00000000000E+00  0.00000000000E+00  0.38637756409E+03  0.38637756409E+03  0.00000000000E+00 0. -1.
         21   -1    0    0  501  503 -0.00000000000E+00 -0.00000000000E+00 -0.40748032667E+03  0.40748032667E+03  0.00000000000E+00 0.  1.
          6    2    1    2  501    0 -0.28253390216E+02  0.33940122960E+03 -0.11988517925E+03  0.39975960461E+03  0.17159206438E+03 0.  0.
         24    2    3    3    0    0  0.19604629106E+02  0.25896401354E+03 -0.13731971578E+03  0.30443600414E+03  0.79861595818E+02 0.  0.
         -6    2    1    2    0  502  0.28253390216E+02 -0.33940122960E+03  0.98782416669E+02  0.39409828614E+03  0.17194198027E+03 0.  0.
        -24    2    5    5    0    0  0.14301889285E+02 -0.16471913638E+03  0.11656591734E+03  0.21789720507E+03  0.80960737201E+02 0.  0.
          5    1    3    3  501    0 -0.47858019322E+02  0.80437216068E+02  0.17434536532E+02  0.95323600469E+02  0.47000000000E+01 0. -1.
        -11    1    4    4    0    0  0.23067641962E+02  0.18075709914E+03 -0.13380600027E+03  0.22607364000E+03  0.00000000000E+00 0.  1.
         12    1    4    4    0    0 -0.34630128556E+01  0.78206914393E+02 -0.35137155141E+01  0.78362364140E+02  0.00000000000E+00 0. -1.
         -5    1    5    5    0  502  0.13951500930E+02 -0.17468209323E+03 -0.17783500672E+02  0.17620108107E+03  0.47000000000E+01 0.  1.
         11    1    6    6    0    0  0.14039432378E+02  0.41120277604E+01  0.14575891103E+02  0.20651175154E+02  0.00000000000E+00 0. -1.
        -12    1    6    6    0    0  0.26245690733E+00 -0.16883116414E+03  0.10199002624E+03  0.19724602992E+03  0.00000000000E+00 0.  1.
</event>
<event>
12    1  0.8747122E-002  0.2706466E+03  0.7818608E-02  0.1101087E+00
         21   -1    0    0  501  502  0.00000000000E+00  0.00000000000E+00  0.20871836357E+04  0.20871836357E+04  0.00000000000E+00 0. -1.
         21   -1    0    0  502  503 -0.00000000000E+00 -0.00000000000E+00 -0.48056248757E+02  0.48056248757E+02  0.00000000000E+00 0. -1.
         -6    2    1    2    0  503 -0.18946951381E+03 -0.84184833116E+02  0.46339123851E+03  0.53663864680E+03  0.17396498073E+03 0.  0.
        -24    2    3    3    0    0 -0.11502354703E+03 -0.10176061485E+03  0.40397094492E+03  0.43966457107E+03  0.80788437346E+02 0.  0.
          6    2    1    2  501    0  0.18946951381E+03  0.84184833116E+02  0.15757361484E+04  0.15986012377E+04  0.17203408027E+03 0.  0.
         24    2    5    5    0    0  0.10725509318E+03  0.12080662760E+03  0.10336154672E+04  0.10490402403E+04  0.77631150056E+02 0.  0.
          5    1    5    5  501    0  0.82214420624E+02 -0.36621794487E+02  0.54212068125E+03  0.54956099737E+03  0.47000000000E+01 0. -1.
        -13    1    6    6    0    0  0.14036855989E+02  0.29233690896E+02  0.44092036466E+03  0.44211130950E+03  0.00000000000E+00 0.  1.
         14    1    6    6    0    0  0.93218237193E+02  0.91572936707E+02  0.59269510252E+03  0.60692893079E+03  0.00000000000E+00 0. -1.
         -5    1    3    3    0  503 -0.74445966780E+02  0.17575781734E+02  0.59420293590E+02  0.96974075730E+02  0.47000000000E+01 0.  1.
         13    1    4    4    0    0 -0.10297236685E+03 -0.39985884697E+02  0.24918911562E+03  0.27257548432E+03  0.00000000000E+00 0. -1.
        -14    1    4    4    0    0 -0.12051180181E+02 -0.61774730153E+02  0.15478182930E+03  0.16708908675E+03  0.00000000000E+00 0.  1.
</event>
<event>
12    1  0.8747122E-002  0.3644598E+03  0.7818608E-02  0.1056963E+00
         21   -1    0    0  501  502  0.00000000000E+00  0.00000000000E+00  0.46014803353E+03  0.46014803353E+03  0.00000000000E+00 0. -1.
         21   -1    0    0  502  503 -0.00000000000E+00 -0.00000000000E+00 -0.56820907282E+03  0.56820907282E+03  0.00000000000E+00 0. -1.
         -6    2    1    2    0  503 -0.36357297294E+02 -0.31910096222E+03 -0.41531104352E+03  0.55166693176E+03  0.16942804835E+03 0.  0.
        -24    2    3    3    0    0  0.16060375824E+01 -0.15304684792E+03 -0.12011414176E+03  0.21081728091E+03  0.81182521925E+02 0.  0.
          6    2    1    2  501    0  0.36357297294E+02  0.31910096222E+03  0.30725000423E+03  0.47669017460E+03  0.17228952465E+03 0.  0.
         24    2    5    5    0    0  0.55150011818E+01  0.30480358732E+03  0.31158390208E+03  0.44209921004E+03  0.73698991837E+02 0.  0.
          5    1    5    5  501    0  0.30842296112E+02  0.14297374900E+02 -0.43338978554E+01  0.34590964559E+02  0.47000000000E+01 0. -1.
        -13    1    6    6    0    0 -0.20124152839E+02  0.41924822180E+02  0.70709604499E+02  0.84631674985E+02  0.00000000000E+00 0.  1.
         14    1    6    6    0    0  0.25639154021E+02  0.26287876514E+03  0.24087429758E+03  0.35746753506E+03  0.00000000000E+00 0. -1.
         -5    1    3    3    0  503 -0.37963334876E+02 -0.16605411430E+03 -0.29519690176E+03  0.34084965084E+03  0.47000000000E+01 0.  1.
         11    1    4    4    0    0  0.26755071197E+02 -0.13981047917E+03 -0.11238658772E+03  0.18136578790E+03  0.00000000000E+00 0. -1.
        -12    1    4    4    0    0 -0.25149033615E+02 -0.13236368752E+02 -0.77275540411E+01  0.29451493018E+02  0.00000000000E+00 0.  1.
</event>
<event>
12    1  0.8747122E-002  0.1889172E+03  0.7818608E-02  0.1160637E+00
         21   -1    0    0  501  502  0.00000000000E+00  0.00000000000E+00  0.60254031936E+02  0.60254031936E+02  0.00000000000E+00 0.  1.
         21   -1    0    0  502  503 -0.00000000000E+00 -0.00000000000E+00 -0.57650150978E+03  0.57650150978E+03  0.00000000000E+00 0.  1.
         -6    2    1    2    0  503 -0.76988213827E+02  0.16198716541E+02 -0.24706158594E+03  0.30789271154E+03  0.16603888426E+03 0.  0.
        -24    2    3    3    0    0 -0.80593387614E+02 -0.39206710717E+02 -0.20608944928E+03  0.23872939301E+03  0.80538200187E+02 0.  0.
          6    2    1    2  501    0  0.76988213827E+02 -0.16198716541E+02 -0.26918589191E+03  0.32886283018E+03  0.17175602809E+03 0.  0.
         24    2    5    5    0    0 -0.14270023080E+02  0.19659773060E+02 -0.16816338858E+03  0.18800285269E+03  0.80473642427E+02 0.  0.
          5    1    5    5  501    0  0.91258236907E+02 -0.35858489601E+02 -0.10102250333E+03  0.14085997749E+03  0.47000000000E+01 0. -1.
        -11    1    6    6    0    0 -0.47558079375E+02  0.11322473168E+02 -0.85323418266E+02  0.98336437891E+02  0.00000000000E+00 0.  1.
         12    1    6    6    0    0  0.33288056294E+02  0.83372998912E+01 -0.82839970313E+02  0.89666414798E+02  0.00000000000E+00 0. -1.
         -5    1    3    3    0  503  0.36051737872E+01  0.55405427258E+02 -0.40972136660E+02  0.69163318531E+02  0.47000000000E+01 0.  1.
         13    1    4    4    0    0 -0.38796675054E+02 -0.31722214566E-01 -0.19259192242E+02  0.43313964115E+02  0.00000000000E+00 0. -1.
        -14    1    4    4    0    0 -0.41796712560E+02 -0.39174988503E+02 -0.18683025703E+03  0.19541542889E+03  0.00000000000E+00 0.  1.
</event>
<event>
12    1  0.8747122E-002  0.1864825E+03  0.7818608E-02  0.1161849E+00
         21   -1    0    0  503  502  0.00000000000E+00  0.00000000000E+00  0.33069176992E+02  0.33069176992E+02  0.00000000000E+00 0. -1.
         21   -1    0    0  501  503 -0.00000000000E+00 -0.00000000000E+00 -0.26139505885E+04  0.26139505885E+04  0.00000000000E+00 0. -1.
          6    2    1    2  501    0  0.29558163180E+02  0.64266099287E+02 -0.26476615842E+03  0.32340930118E+03  0.17172256962E+03 0.  0.
         24    2    3    3    0    0  0.54927114549E+02  0.31215023592E+02 -0.26233762225E+03  0.28140995492E+03  0.79869700572E+02 0.  0.
         -6    2    1    2    0  502 -0.29558163180E+02 -0.64266099287E+02 -0.23161152531E+04  0.23236104644E+04  0.17254537882E+03 0.  0.
        -24    2    5    5    0    0  0.22024887346E+01  0.12550864544E+01 -0.18811617216E+04  0.18825793664E+04  0.73001518539E+02 0.  0.
          5    1    3    3  501    0 -0.25368951368E+02  0.33051075696E+02 -0.24285361686E+01  0.41999346258E+02  0.47000000000E+01 0. -1.
        -13    1    4    4    0    0  0.25429998807E+02 -0.19380505585E+02 -0.16289106507E+03  0.16599936119E+03  0.00000000000E+00 0.  1.
         14    1    4    4    0    0  0.29497115742E+02  0.50595529177E+02 -0.99446557177E+02  0.11541059373E+03  0.00000000000E+00 0. -1.
         -5    1    5    5    0  502 -0.31760651915E+02 -0.65521185742E+02 -0.43495353153E+03  0.44103109798E+03  0.47000000000E+01 0.  1.
         13    1    6    6    0    0  0.27847033478E+02  0.22980405932E+02 -0.69040694654E+03  0.69135035124E+03  0.00000000000E+00 0. -1.
        -14    1    6    6    0    0 -0.25644544744E+02 -0.21725319478E+02 -0.11907547750E+04  0.11912290151E+04  0.00000000000E+00 0.  1.
</event>
<event>
12    1  0.8747122E-002  0.2543471E+03  0.7818608E-02  0.1110804E+00
         21   -1    0    0  503  502  0.00000000000E+00  0.00000000000E+00  0.24369495357E+03  0.24369495357E+03  0.00000000000E+00 0.  1.
         21   -1    0    0  501  503 -0.00000000000E+00 -0.00000000000E+00 -0.27362875571E+03  0.27362875571E+03  0.00000000000E+00 0.  1.
          6    2    1    2  501    0  0.17296047820E+03 -0.69532406674E+02 -0.63423991213E+02  0.26078124898E+03  0.17098004141E+03 0.  0.
         24    2    3    3    0    0  0.62093152844E+02 -0.78686068508E+02 -0.75695917931E+02  0.14876319891E+03  0.79709223750E+02 0.  0.
         -6    2    1    2    0  502 -0.17296047820E+03  0.69532406674E+02  0.33490189072E+02  0.25654246031E+03  0.17303860431E+03 0.  0.
        -24    2    5    5    0    0 -0.81922776722E+02  0.34729567213E+02 -0.48129622809E+02  0.12933010078E+03  0.80574997313E+02 0.  0.
          5    1    3    3  501    0  0.11086732535E+03  0.91536618342E+01  0.12271926719E+02  0.11201805007E+03  0.47000000000E+01 0. -1.
        -11    1    4    4    0    0  0.64369986945E+02 -0.91079664926E+02 -0.77804114296E+02  0.13598706109E+03  0.00000000000E+00 0.  1.
         12    1    4    4    0    0 -0.22768341006E+01  0.12393596418E+02  0.21081963649E+01  0.12776137820E+02  0.00000000000E+00 0. -1.
         -5    1    5    5    0  502 -0.91037701475E+02  0.34802839460E+02  0.81619811881E+02  0.12721235952E+03  0.47000000000E+01 0.  1.
         13    1    6    6    0    0 -0.23314225844E+02  0.30194839109E+02 -0.58301166965E+02  0.69672860606E+02  0.00000000000E+00 0. -1.
        -14    1    6    6    0    0 -0.58608550878E+02  0.45347281041E+01  0.10171544155E+02  0.59657240177E+02  0.00000000000E+00 0.  1.
</event>
<event>
12    1  0.8747122E-002  0.1856227E+03  0.7818608E-02  0.1162986E+00
         21   -1    0    0  501  502  0.00000000000E+00  0.00000000000E+00  0.72854891661E+03  0.72854891661E+03  0.00000000000E+00 0. -1.
         21   -1    0    0  502  503 -0.00000000000E+00 -0.00000000000E+00 -0.97950444723E+02  0.97950444723E+02  0.00000000000E+00 0.  1.
         -6    2    1    2    0  503  0.64001014105E+02  0.30935981515E+02  0.17376187677E+02  0.18643419500E+03  0.17147189976E+03 0.  0.
        -24    2    3    3    0    0  0.57244940674E+02  0.67354847111E+02  0.56936456160E+02  0.13203673971E+03  0.79864146720E+02 0.  0.
          6    2    1    2  501    0 -0.64001014105E+02 -0.30935981515E+02  0.61322228421E+03  0.64006516634E+03  0.16908188118E+03 0.  0.
         24    2    5    5    0    0  0.26298891672E+02 -0.37456719010E+02  0.34412425295E+03  0.35610665981E+03  0.79346166820E+02 0.  0.
          5    1    5    5  501    0 -0.90299905777E+02  0.65207374959E+01  0.26909803126E+03  0.28395850653E+03  0.47000000000E+01 0. -1.
        -13    1    6    6    0    0 -0.23539787356E+02 -0.90589168630E+00  0.16378877056E+03  0.16547417802E+03  0.00000000000E+00 0.  1.
         14    1    6    6    0    0  0.49838679028E+02 -0.36550827324E+02  0.18033548239E+03  0.19063248179E+03  0.00000000000E+00 0. -1.
         -5    1    3    3    0  503  0.67560734310E+01 -0.36418865596E+02 -0.39560268483E+02  0.54397455289E+02  0.47000000000E+01 0.  1.
         13    1    4    4    0    0 -0.10707328634E+02  0.17259387028E+02  0.41515875365E+02  0.46217975230E+02  0.00000000000E+00 0. -1.
        -14    1    4    4    0    0  0.67952269307E+02  0.50095460083E+02  0.15420580795E+02  0.85818764480E+02  0.00000000000E+00 0.  1.
</event>
<event>
12    1  0.8747122E-002  0.2079855E+03  0.7818608E-02  0.1143426E+00
         21   -1    0    0  501  502  0.00000000000E+00  0.00000000000E+00  0.41053090069E+03  0.41053090069E+03  0.00000000000E+00 0. -1.
         21   -1    0    0  502  503 -0.00000000000E+00 -0.00000000000E+00 -0.11610820639E+03  0.11610820639E+03  0.00000000000E+00 0. -1.
         -6    2    1    2    0  503 -0.90869533138E+02  0.68694695706E+02  0.22923663094E+03  0.30867763724E+03  0.17249990578E+03 0.  0.
        -24    2    3    3    0    0 -0.51082586707E+02  0.29040435053E+02  0.23073592978E+03  0.25228792726E+03  0.83410739232E+02 0.  0.
          6    2    1    2  501    0  0.90869533138E+02 -0.68694695706E+02  0.65186063362E+02  0.21796146984E+03  0.17401651130E+03 0.  0.
         24    2    5    5    0    0  0.95401375066E+02 -0.33300266882E+01  0.82833106134E+02  0.14994246025E+03  0.80677794161E+02 0.  0.
          5    1    5    5  501    0 -0.45318419287E+01 -0.65364669018E+02 -0.17647042772E+02  0.68019009591E+02  0.47000000000E+01 0. -1.
        -13    1    6    6    0    0  0.18838346867E+02  0.83884851415E+01  0.68028886267E+02  0.71085718414E+02  0.00000000000E+00 0.  1.
         14    1    6    6    0    0  0.76563028199E+02 -0.11718511830E+02  0.14804219867E+02  0.78856741832E+02  0.00000000000E+00 0. -1.
         -5    1    3    3    0  503 -0.39786946431E+02  0.39654260654E+02 -0.14992988357E+01  0.56389709977E+02  0.47000000000E+01 0.  1.
         13    1    4    4    0    0 -0.21690991978E+02  0.50679098694E+02  0.79715206710E+02  0.96919473576E+02  0.00000000000E+00 0. -1.
        -14    1    4    4    0    0 -0.29391594729E+02 -0.21638663641E+02  0.15102072307E+03  0.15536845369E+03  0.00000000000E+00 0.  1.
</event>
<event>
12    1  0.8747122E-002  0.1816574E+03  0.7818608E-02  0.1166461E+00
         21   -1    0    0  503  502  0.00000000000E+00  0.00000000000E+00  0.92733784082E+03  0.92733784082E+03  0.00000000000E+00 0.  1.
         21   -1    0    0  501  503 -0.00000000000E+00 -0.00000000000E+00 -0.36778347562E+02  0.36778347562E+02  0.00000000000E+00 0.  1.
          6    2    1    2  501    0  0.54363522217E+02  0.20630891142E+02  0.35249733661E+03  0.39655238481E+03  0.17209995749E+03 0.  0.
         24    2    3    3    0    0 -0.18626237049E+02  0.56442445316E+02  0.22890758328E+03  0.24854397458E+03  0.76437813156E+02 0.  0.
         -6    2    1    2    0  502 -0.54363522217E+02 -0.20630891142E+02  0.53806215665E+03  0.56756380357E+03  0.17098760332E+03 0.  0.
        -24    2    5    5    0    0  0.17896701669E+02 -0.45745789608E+02  0.37033061306E+03  0.38315052098E+03  0.85126902681E+02 0.  0.
          5    1    3    3  501    0  0.72989759266E+02 -0.35811554174E+02  0.12358975333E+03  0.14800841023E+03  0.47000000000E+01 0. -1.
        -13    1    4    4    0    0 -0.84553507980E+01  0.73732425321E+02  0.20027484663E+03  0.21358365503E+03  0.00000000000E+00 0.  1.
         14    1    4    4    0    0 -0.10170886251E+02 -0.17289980005E+02  0.28632736643E+02  0.34960319555E+02  0.00000000000E+00 0. -1.
         -5    1    5    5    0  502 -0.72260223886E+02  0.25114898466E+02  0.16773154359E+03  0.18441328259E+03  0.47000000000E+01 0.  1.
         11    1    6    6    0    0 -0.55855442124E+00 -0.34678836797E+02  0.43602658866E+02  0.55714679976E+02  0.00000000000E+00 0. -1.
        -12    1    6    6    0    0  0.18455256090E+02 -0.11066952811E+02  0.32672795419E+03  0.32743584100E+03  0.00000000000E+00 0.  1.
</event>
<event>
12    1  0.8747122E-002  0.1914347E+03  0.7818608E-02  0.1157467E+00
         21   -1    0    0  501  502  0.00000000000E+00  0.00000000000E+00  0.10260145355E+03  0.10260145355E+03  0.00000000000E+00 0.  1.
         21   -1    0    0  502  503 -0.00000000000E+00 -0.00000000000E+00 -0.35588738954E+03  0.35588738954E+03  0.00000000000E+00 0.  1.
         -6    2    1    2    0  503  0.81680575214E+02  0.17561275459E+02 -0.14007249068E+03  0.23720782714E+03  0.17224150444E+03 0.  0.
        -24    2    3    3    0    0  0.40851553245E+02  0.30802324587E+02 -0.16289801819E+03  0.18836697208E+03  0.79553247820E+02 0.  0.
          6    2    1    2  501    0 -0.81680575214E+02 -0.17561275459E+02 -0.11321344531E+03  0.22128101595E+03  0.17078609152E+03 0.  0.
         24    2    5    5    0    0 -0.68695926938E+02 -0.69131940101E+02 -0.41859344125E+02  0.13216517954E+03  0.78848427196E+02 0.  0.
          5    1    5    5  501    0 -0.12984648276E+02  0.51570664642E+02 -0.71354101189E+02  0.89115836409E+02  0.47000000000E+01 0. -1.
        -13    1    6    6    0    0 -0.80063333765E+01 -0.61584982254E+02 -0.33132204975E+02  0.70388595808E+02  0.00000000000E+00 0.  1.
         14    1    6    6    0    0 -0.60689593561E+02 -0.75469578473E+01 -0.87271391501E+01  0.61776583728E+02  0.00000000000E+00 0. -1.
         -5    1    3    3    0  503  0.40829021970E+02 -0.13241049127E+02  0.22825527514E+02  0.48840855063E+02  0.47000000000E+01 0.  1.
         11    1    4    4    0    0  0.47696430481E+02  0.17539851470E+02 -0.16558008266E+03  0.17320323219E+03  0.00000000000E+00 0. -1.
        -12    1    4    4    0    0 -0.68448772369E+01  0.13262473117E+02  0.26820644666E+01  0.15163739887E+02  0.00000000000E+00 0.  1.
</event>
<event>
12    1  0.8747122E-002  0.2329629E+03  0.7818608E-02  0.1124803E+00
         21   -1    0    0  503  502  0.00000000000E+00  0.00000000000E+00  0.17623466845E+03  0.17623466845E+03  0.00000000000E+00 0. -1.
         21   -1    0    0  501  503 -0.00000000000E+00 -0.00000000000E+00 -0.44556092054E+03  0.44556092054E+03  0.00000000000E+00 0. -1.
          6    2    1    2  501    0  0.35604963770E+02 -0.15116102790E+03 -0.30827706853E+03  0.38559885878E+03  0.17185563449E+03 0.  0.
         24    2    3    3    0    0 -0.17104322734E+01 -0.13308374742E+03 -0.30802872850E+03  0.34386903103E+03  0.75166505257E+02 0.  0.
         -6    2    1    2    0  502 -0.35604963770E+02  0.15116102790E+03  0.38950816449E+02  0.23619673021E+03  0.17365010642E+03 0.  0.
        -24    2    5    5    0    0  0.20672822696E+02  0.13083916386E+03 -0.15490672310E+02  0.15516505057E+03  0.79309391572E+02 0.  0.
          5    1    3    3  501    0  0.37315396043E+02 -0.18077280482E+02 -0.24834003552E+00  0.41729827752E+02  0.47000000000E+01 0. -1.
        -13    1    4    4    0    0 -0.16352759664E+02  0.23558139029E+01 -0.37408353026E+02  0.40894345377E+02  0.00000000000E+00 0.  1.
         14    1    4    4    0    0  0.14642327390E+02 -0.13543956133E+03 -0.27062037547E+03  0.30297468565E+03  0.00000000000E+00 0. -1.
         -5    1    5    5    0  502 -0.56277786466E+02  0.20321864048E+02  0.54441488759E+02  0.81031679645E+02  0.47000000000E+01 0.  1.
         11    1    6    6    0    0  0.16458399629E+02  0.21645683358E+02 -0.34834722125E+02  0.44191315797E+02  0.00000000000E+00 0. -1.
        -12    1    6    6    0    0  0.42144230677E+01  0.10919348050E+03  0.19344049815E+02  0.11097373477E+03  0.00000000000E+00 0.  1.
</event>
<event>
12    1  0.8747122E-002  0.2157244E+03  0.7818608E-02  0.1137344E+00
         21   -1    0    0  503  502  0.00000000000E+00  0.00000000000E+00  0.73429847993E+03  0.73429847993E+03  0.00000000000E+00 0.  1.
         21   -1    0    0  501  503 -0.00000000000E+00 -0.00000000000E+00 -0.73623260857E+02  0.73623260857E+02  0.00000000000E+00 0.  1.
          6    2    1    2  501    0 -0.36748903341E+02 -0.12312425297E+03  0.17783243715E+03  0.27957361356E+03  0.17328290779E+03 0.  0.
         24    2    3    3    0    0 -0.89459809639E+01 -0.48655479584E+02  0.17636715160E+03  0.19993167885E+03  0.80124389402E+02 0.  0.
         -6    2    1    2    0  502  0.36748903341E+02  0.12312425297E+03  0.48284278193E+03  0.52834812722E+03  0.17176882114E+03 0.  0.
        -24    2    5    5    0    0  0.47658961369E+02  0.17321550368E+02  0.32305165861E+03  0.33633631942E+03  0.78665957858E+02 0.  0.
          5    1    3    3  501    0 -0.27802922377E+02 -0.74468773387E+02  0.14652855463E+01  0.79641934709E+02  0.47000000000E+01 0. -1.
        -11    1    4    4    0    0 -0.43234521759E+02 -0.22953261462E+02  0.11596450199E+03  0.12587232343E+03  0.00000000000E+00 0.  1.
         12    1    4    4    0    0  0.34288540795E+02 -0.25702218122E+02  0.60402649612E+02  0.74059355428E+02  0.00000000000E+00 0. -1.
         -5    1    5    5    0  502 -0.10910058028E+02  0.10580270260E+03  0.15979112332E+03  0.19201180780E+03  0.47000000000E+01 0.  1.
         13    1    6    6    0    0  0.13179412641E+02 -0.29826107271E+02  0.15588069072E+03  0.15925477491E+03  0.00000000000E+00 0. -1.
        -14    1    6    6    0    0  0.34479548728E+02  0.47147657638E+02  0.16717096789E+03  0.17708154451E+03  0.00000000000E+00 0.  1.
</event>
<event>
12    1  0.8747122E-002  0.2986944E+03  0.7818608E-02  0.1085934E+00
         21   -1    0    0  501  502  0.00000000000E+00  0.00000000000E+00  0.14606184460E+03  0.14606184460E+03  0.00000000000E+00 0. -1.
         21   -1    0    0  502  503 -0.00000000000E+00 -0.00000000000E+00 -0.61541809847E+03  0.61541809847E+03  0.00000000000E+00 0. -1.
         -6    2    1    2    0  503 -0.75409810019E+02 -0.23184716719E+03 -0.26966252805E+03  0.40218069010E+03  0.17202232435E+03 0.  0.
        -24    2    3    3    0    0 -0.79690527264E+02 -0.61687076274E+02 -0.12406678501E+03  0.17814276592E+03  0.78653686446E+02 0.  0.
          6    2    1    2  501    0  0.75409810019E+02  0.23184716719E+03 -0.19969372582E+03  0.35929925297E+03  0.17256483035E+03 0.  0.
         24    2    5    5    0    0  0.76058799870E+02  0.65980900407E+02 -0.11646601229E+03  0.17366255956E+03  0.80348816518E+02 0.  0.
          5    1    5    5  501    0 -0.64898985099E+00  0.16586626678E+03 -0.83227713523E+02  0.18563669342E+03  0.47000000000E+01 0. -1.
        -11    1    6    6    0    0  0.17180853494E+02  0.35262445796E+02  0.42086354447E+00  0.39227527789E+02  0.00000000000E+00 0.  1.
         12    1    6    6    0    0  0.58877946376E+02  0.30718454611E+02 -0.11688687584E+03  0.13443503177E+03  0.00000000000E+00 0. -1.
         -5    1    3    3    0  503  0.42807172445E+01 -0.17016009092E+03 -0.14559574304E+03  0.22403792418E+03  0.47000000000E+01 0.  1.
         13    1    4    4    0    0 -0.73559992470E+02 -0.78149919324E+02 -0.11812111409E+03  0.15959661643E+03  0.00000000000E+00 0. -1.
        -14    1    4    4    0    0 -0.61305347939E+01  0.16462843050E+02 -0.59456709223E+01  0.18546149489E+02  0.00000000000E+00 0.  1.
</event>
<event>
12    1  0.8747122E-002  0.1764221E+03  0.7818608E-02  0.1171405E+00
         21   -1    0    0  503  502  0.00000000000E+00  0.00000000000E+00  0.11185190084E+03  0.11185190084E+03  0.00000000000E+00 0.  1.
         21   -1    0    0  501  503 -0.00000000000E+00 -0.00000000000E+00 -0.40061009471E+03  0.40061009471E+03  0.00000000000E+00 0.  1.
          6    2    1    2  501    0 -0.12786745133E+02  0.36496758807E+02 -0.28621297469E+03  0.33602155224E+03  0.17174720502E+03 0.  0.
         24    2    3    3    0    0  0.32256743620E+02 -0.27926983701E+02 -0.10228521007E+03  0.13594444941E+03  0.78728744428E+02 0.  0.
         -6    2    1    2    0  502  0.12786745133E+02 -0.36496758807E+02 -0.25452191836E+01  0.17644044331E+03  0.17213145454E+03 0.  0.
        -24    2    5    5    0    0  0.32863358084E+02  0.29031234347E+02  0.36695403081E+02  0.97327203524E+02  0.78760517178E+02 0.  0.
          5    1    3    3  501    0 -0.45043488753E+02  0.64423742508E+02 -0.18392776462E+03  0.20007710282E+03  0.47000000000E+01 0. -1.
        -11    1    4    4    0    0  0.98893023701E+01 -0.29168213760E+02 -0.10842656914E+03  0.11271603209E+03  0.00000000000E+00 0.  1.
         12    1    4    4    0    0  0.22367441250E+02  0.12412300581E+01  0.61413590661E+01  0.23228417323E+02  0.00000000000E+00 0. -1.
         -5    1    5    5    0  502 -0.20076612951E+02 -0.65527993154E+02 -0.39240622265E+02  0.79113239790E+02  0.47000000000E+01 0.  1.
         11    1    6    6    0    0  0.10011541805E+02 -0.67575348822E+01 -0.21872521170E+02  0.24986044691E+02  0.00000000000E+00 0. -1.
        -12    1    6    6    0    0  0.22851816279E+02  0.35788769230E+02  0.58567924251E+02  0.72341158833E+02  0.00000000000E+00 0.  1.
</event>
<event>
12    1  0.8747122E-002  0.1736994E+03  0.7818608E-02  0.1174232E+00
         21   -1    0    0  503  502  0.00000000000E+00  0.00000000000E+00  0.73596184701E+02  0.73596184701E+02  0.00000000000E+00 0.  1.
         21   -1    0    0  501  503 -0.00000000000E+00 -0.00000000000E+00 -0.42142662297E+03  0.42142662297E+03  0.00000000000E+00 0.  1.
          6    2    1    2  501    0  0.80891408417E+01 -0.32231835575E+01 -0.21810223800E+03  0.27881906215E+03  0.17348100785E+03 0.  0.
         24    2    3    3    0    0  0.53074248509E+02  0.35007817969E+02 -0.82760442425E+02  0.13108700395E+03  0.79322686541E+02 0.  0.
         -6    2    1    2    0  502 -0.80891408417E+01  0.32231835575E+01 -0.12972820027E+03  0.21620374552E+03  0.17273919799E+03 0.  0.
        -24    2    5    5    0    0  0.15047140322E+02  0.53596585848E+02 -0.30654677891E+02  0.10257971637E+03  0.80522534039E+02 0.  0.
          5    1    3    3  501    0 -0.44985107667E+02 -0.38231001527E+02 -0.13534179558E+03  0.14773205820E+03  0.47000000000E+01 0. -1.
        -13    1    4    4    0    0  0.33072217225E+02  0.61654423392E+01 -0.89261415444E+02  0.95390694088E+02  0.00000000000E+00 0.  1.
         14    1    4    4    0    0  0.20002031284E+02  0.28842375630E+02  0.65009730193E+01  0.35696309861E+02  0.00000000000E+00 0. -1.
         -5    1    5    5    0  502 -0.23136281164E+02 -0.50373402290E+02 -0.99073522376E+02  0.11362402915E+03  0.47000000000E+01 0.  1.
         11    1    6    6    0    0  0.89942858098E+01 -0.16476782204E+02 -0.26031099955E+02  0.32093608303E+02  0.00000000000E+00 0. -1.
        -12    1    6    6    0    0  0.60528545126E+01  0.70073368052E+02 -0.46235779356E+01  0.70486108070E+02  0.00000000000E+00 0.  1.
</event>
<event>
12    1  0.8747122E-002  0.2404177E+03  0.7818608E-02  0.1119640E+00
         21   -1    0    0  501  502  0.00000000000E+00  0.00000000000E+00  0.27846100973E+03  0.27846100973E+03  0.00000000000E+00 0.  1.
         21   -1    0    0  502  503 -0.00000000000E+00 -0.00000000000E+00 -0.22574386371E+03  0.22574386371E+03  0.00000000000E+00 0.  1.
         -6    2    1    2    0  503 -0.12977817561E+03  0.10473046097E+03 -0.46472443721E+02  0.24412945299E+03  0.17212976928E+03 0.  0.
        -24    2    3    3    0    0 -0.12960479217E+02  0.47679228523E+01 -0.38786518801E+02  0.90116315046E+02  0.80161393993E+02 0.  0.
          6    2    1    2  501    0  0.12977817561E+03 -0.10473046097E+03  0.99189589743E+02  0.26007542046E+03  0.17317564868E+03 0.  0.
         24    2    5    5    0    0  0.46925703788E+02 -0.85494174590E+02 -0.38655175665E+01  0.12637047686E+03  0.80270041925E+02 0.  0.
          5    1    5    5  501    0  0.82852471817E+02 -0.19236286378E+02  0.10305510731E+03  0.13370494360E+03  0.47000000000E+01 0. -1.
        -13    1    6    6    0    0  0.36018397773E+02 -0.42456797909E+02 -0.40467886385E+02  0.68829895360E+02  0.00000000000E+00 0.  1.
         14    1    6    6    0    0  0.10907306015E+02 -0.43037376681E+02  0.36602368818E+02  0.57540581499E+02  0.00000000000E+00 0. -1.
         -5    1    3    3    0  503 -0.11681769639E+03  0.99962538116E+02 -0.76859249197E+01  0.15401313794E+03  0.47000000000E+01 0.  1.
         11    1    4    4    0    0  0.10547866898E+02  0.32320777944E+02 -0.41673503038E+02  0.53782627664E+02  0.00000000000E+00 0. -1.
        -12    1    4    4    0    0 -0.23508346115E+02 -0.27552855092E+02  0.28869842373E+01  0.36333687382E+02  0.00000000000E+00 0.  1.
</event>
<event>
12    1  0.8747122E-002  0.1885234E+03  0.7818608E-02  0.1160756E+00
         21   -1    0    0  503  502  0.00000000000E+00  0.00000000000E+00  0.20278636416E+02  0.20278636416E+02  0.00000000000E+00 0. -1.
         21   -1    0    0  501  503 -0.00000000000E+00 -0.00000000000E+00 -0.19996039535E+04  0.19996039535E+04  0.00000000000E+00 0. -1.
          6    2    1    2  501    0  0.40447446588E+01 -0.78042739804E+02 -0.13616941384E+04  0.13741199965E+04  0.16699643467E+03 0.  0.
         24    2    3    3    0    0 -0.12537739704E+01 -0.34984281136E+02 -0.31459591407E+03  0.32611289421E+03  0.78444622182E+02 0.  0.
         -6    2    1    2    0  502 -0.40447446588E+01  0.78042739804E+02 -0.61763117867E+03  0.64576259334E+03  0.17156347193E+03 0.  0.
        -24    2    5    5    0    0 -0.45321244008E+02  0.72803742830E+02 -0.26131490840E+03  0.28699446356E+03  0.82011832281E+02 0.  0.
          5    1    3    3  501    0  0.52985186292E+01 -0.43058458668E+02 -0.10470982243E+04  0.10480071023E+04  0.47000000000E+01 0. -1.
        -13    1    4    4    0    0 -0.89543934722E+01  0.24172949580E+02 -0.11119907091E+03  0.11414791292E+03  0.00000000000E+00 0.  1.
         14    1    4    4    0    0  0.77006195018E+01 -0.59157230716E+02 -0.20339684316E+03  0.21196498129E+03  0.00000000000E+00 0. -1.
         -5    1    5    5    0  502  0.41276499349E+02  0.52389969734E+01 -0.35631627027E+03  0.35876812979E+03  0.47000000000E+01 0.  1.
         11    1    6    6    0    0 -0.67204562855E+02  0.60429409299E+02 -0.22799359279E+03  0.24525343042E+03  0.00000000000E+00 0. -1.
        -12    1    6    6    0    0  0.21883318847E+02  0.12374333531E+02 -0.33321315602E+02  0.41741033140E+02  0.00000000000E+00 0.  1.
</event>
<event>
12    1  0.8747122E-002  0.2059643E+03  0.7818608E-02  0.1144842E+00
         21   -1    0    0  501  502  0.00000000000E+00  0.00000000000E+00  0.70094498251E+02  0.70094498251E+02  0.00000000000E+00 0.  1.
         21   -1    0    0  502  503 -0.00000000000E+00 -0.00000000000E+00 -0.60650614487E+03  0.60650614487E+03  0.00000000000E+00 0.  1.
         -6    2    1    2    0  503  0.10949088042E+03 -0.31249051273E+02 -0.28692778253E+03  0.35308326939E+03  0.17139278467E+03 0.  0.
        -24    2    3    3    0    0  0.13084530077E+03 -0.23277465203E+01 -0.27517021097E+03  0.31496787059E+03  0.79750883143E+02 0.  0.
          6    2    1    2  501    0 -0.10949088042E+03  0.31249051273E+02 -0.24948386409E+03  0.32351737373E+03  0.17162906678E+03 0.  0.
         24    2    5    5    0    0 -0.14261460791E+03  0.20581438124E+02 -0.23381654091E+03  0.28506565973E+03  0.76352691967E+02 0.  0.
          5    1    5    5  501    0  0.33123727493E+02  0.10667613150E+02 -0.15667323175E+02  0.38451713991E+02  0.47000000000E+01 0. -1.
        -13    1    6    6    0    0 -0.14204442246E+03  0.17184364995E+02 -0.17454544872E+03  0.22569455914E+03  0.00000000000E+00 0.  1.
         14    1    6    6    0    0 -0.57018545028E+00  0.33970731287E+01 -0.59271092186E+02  0.59371100598E+02  0.00000000000E+00 0. -1.
         -5    1    3    3    0  503 -0.21354420346E+02 -0.28921304753E+02 -0.11757571560E+02  0.38115398803E+02  0.47000000000E+01 0.  1.
         13    1    4    4    0    0 -0.84361808532E+01  0.65260494763E+01 -0.73108446852E+01  0.12930851448E+02  0.00000000000E+00 0. -1.
        -14    1    4    4    0    0  0.13928148162E+03 -0.88537959965E+01 -0.26785936628E+03  0.30203701914E+03  0.00000000000E+00 0.  1.
</event>
<event>
12    1  0.8747122E-002  0.1803964E+03  0.7818608E-02  0.1168043E+00
         21   -1    0    0  503  502  0.00000000000E+00  0.00000000000E+00  0.26375097106E+02  0.26375097106E+02  0.00000000000E+00 0. -1.
         21   -1    0    0  501  503 -0.00000000000E+00 -0.00000000000E+00 -0.19561164259E+04  0.19561164259E+04  0.00000000000E+00 0. -1.
          6    2    1    2  501    0  0.15256592428E+02  0.49351391471E+02 -0.15787148752E+04  0.15889882105E+04  0.17284256486E+03 0.  0.
         24    2    3    3    0    0  0.21411731903E+02  0.71239434128E+02 -0.59888459352E+03  0.60888288799E+03  0.80883222595E+02 0.  0.
         -6    2    1    2    0  502 -0.15256592428E+02 -0.49351391471E+02 -0.35102645354E+03  0.39350331253E+03  0.17016745410E+03 0.  0.
        -24    2    5    5    0    0  0.26809006743E+02  0.23801217028E+02 -0.12915528008E+03  0.15608021682E+03  0.79967036559E+02 0.  0.
          5    1    3    3  501    0 -0.61551394742E+01 -0.21888042658E+02 -0.97983028172E+03  0.98010532246E+03  0.47000000000E+01 0. -1.
        -11    1    4    4    0    0 -0.22763056081E+02  0.39229847720E+02 -0.40298403465E+03  0.40552838354E+03  0.00000000000E+00 0.  1.
         12    1    4    4    0    0  0.44174787984E+02  0.32009586408E+02 -0.19590055886E+03  0.20335450444E+03  0.00000000000E+00 0. -1.
         -5    1    5    5    0  502 -0.42065599171E+02 -0.73152608499E+02 -0.22187117346E+03  0.23742309571E+03  0.47000000000E+01 0.  1.
         13    1    6    6    0    0  0.33386419393E+02  0.46584463434E+02 -0.11492834990E+03  0.12842620778E+03  0.00000000000E+00 0. -1.
        -14    1    6    6    0    0 -0.65774126501E+01 -0.22783246405E+02 -0.14226930182E+02  0.27654009047E+02  0.00000000000E+00 0.  1.
</event>
<event>
12    1  0.8747122E-002  0.1766049E+03  0.7818608E-02  0.1171145E+00
         21   -1    0    0  501  502  0.00000000000E+00  0.00000000000E+00  0.73629781162E+02  0.73629781162E+02  0.00000000000E+00 0. -1.
         21   -1    0    0  502  503 -0.00000000000E+00 -0.00000000000E+00 -0.43360209700E+03  0.43360209700E+03  0.00000000000E+00 0. -1.
         -6    2    1    2    0  503  0.40796041021E+02 -0.77650244492E+01 -0.21876613778E+03  0.28111583424E+03  0.17158926730E+03 0.  0.
        -24    2    3    3    0    0  0.12081178576E+02  0.35069451258E+02 -0.43294383532E+02  0.98162938187E+02  0.79910809662E+02 0.  0.
          6    2    1    2  501    0 -0.40796041021E+02  0.77650244492E+01 -0.14120617806E+03  0.22611604393E+03  0.17165275422E+03 0.  0.
         24    2    5    5    0    0 -0.90749463944E+02 -0.15301589513E+02 -0.10888940735E+03  0.16213263349E+03  0.77204170630E+02 0.  0.
          5    1    5    5  501    0  0.49953422923E+02  0.23066613963E+02 -0.32316770709E+02  0.63983410432E+02  0.47000000000E+01 0. -1.
        -11    1    6    6    0    0 -0.11475731263E+02  0.25886620199E+02 -0.41456659617E+02  0.50204224323E+02  0.00000000000E+00 0.  1.
         12    1    6    6    0    0 -0.79273732681E+02 -0.41188209712E+02 -0.67432747734E+02  0.11192840917E+03  0.00000000000E+00 0. -1.
         -5    1    3    3    0  503  0.28714862445E+02 -0.42834475707E+02 -0.17547175425E+03  0.18295289605E+03  0.47000000000E+01 0.  1.
         13    1    4    4    0    0  0.96189283892E+01  0.60391732717E+02 -0.22013919334E+02  0.64994598302E+02  0.00000000000E+00 0. -1.
        -14    1    4    4    0    0  0.24622501868E+01 -0.25322281459E+02 -0.21280464198E+02  0.33168339886E+02  0.00000000000E+00 0.  1.
</event>
<event>
12    1  0.8747122E-002  0.1826965E+03  0.7818608E-02  0.1165930E+00
         21   -1    0    0  503  502  0.00000000000E+00  0.00000000000E+00  0.50966127191E+02  0.50966127191E+02  0.00000000000E+00 0. -1.
         21   -1    0    0  501  503 -0.00000000000E+00 -0.00000000000E+00 -0.78346860090E+03  0.78346860090E+03  0.00000000000E+00 0. -1.
          6    2    1    2  501    0  0.16413460057E+02  0.59011101435E+02 -0.18793768349E+03  0.26004042171E+03  0.16896371292E+03 0.  0.
         24    2    3    3    0    0 -0.20621086402E+02 -0.12062308937E+02 -0.14881716074E+03  0.17073480826E+03  0.80206601472E+02 0.  0.
         -6    2    1    2    0  502 -0.16413460057E+02 -0.59011101435E+02 -0.54456479021E+03  0.57439430637E+03  0.17212291159E+03 0.  0.
        -24    2    5    5    0    0 -0.49233671256E+02 -0.86826922364E+02 -0.47715057999E+03  0.49428405798E+03  0.81738516997E+02 0.  0.
          5    1    3    3  501    0  0.37034546458E+02  0.71073410372E+02 -0.39120522750E+02  0.89305613449E+02  0.47000000000E+01 0. -1.
        -13    1    4    4    0    0 -0.30623174351E+02 -0.26842232972E+01 -0.11634408017E+02  0.32868576360E+02  0.00000000000E+00 0.  1.
         14    1    4    4    0    0  0.10002087949E+02 -0.93780856400E+01 -0.13718275273E+03  0.13786623190E+03  0.00000000000E+00 0. -1.
         -5    1    5    5    0  502  0.32820211200E+02  0.27815820929E+02 -0.67414210225E+02  0.80110248392E+02  0.47000000000E+01 0.  1.
         13    1    6    6    0    0 -0.42739903044E+02 -0.40476226160E+02 -0.11567547896E+03  0.12979152757E+03  0.00000000000E+00 0. -1.
        -14    1    6    6    0    0 -0.64937682127E+01 -0.46350696205E+02 -0.36147510102E+03  0.36449253041E+03  0.00000000000E+00 0.  1.
</event>
<event>
12    1  0.8747122E-002  0.3195729E+03  0.7818608E-02  0.1075874E+00
         21   -1    0    0  501  502  0.00000000000E+00  0.00000000000E+00  0.79827294170E+03  0.79827294170E+03  0.00000000000E+00 0. -1.
         21   -1    0    0  502  503 -0.00000000000E+00 -0.00000000000E+00 -0.29949675162E+03  0.29949675162E+03  0.00000000000E+00 0.  1.
         -6    2    1    2    0  503 -0.26464288614E+03  0.49457169698E+02 -0.16619528408E+03  0.35999337305E+03  0.17173376887E+03 0.  0.
        -24    2    3    3    0    0 -0.14422034782E+03 -0.22781433516E+02 -0.13732014589E+03  0.21655046756E+03  0.81968165130E+02 0.  0.
          6    2    1    2  501    0  0.26464288614E+03 -0.49457169698E+02  0.66497147416E+03  0.73777632027E+03  0.17217714272E+03 0.  0.
         24    2    5    5    0    0  0.58137172936E+02  0.10043415990E+01  0.22022478874E+03  0.24481315947E+03  0.89741773410E+02 0.  0.
          5    1    5    5  501    0  0.20650571321E+03 -0.50461511297E+02  0.44474668542E+03  0.49296316080E+03  0.47000000000E+01 0. -1.
        -13    1    6    6    0    0  0.24506503557E+02  0.32968972452E+02  0.35319687369E+02  0.54175660374E+02  0.00000000000E+00 0.  1.
         14    1    6    6    0    0  0.33630669379E+02 -0.31964630853E+02  0.18490510137E+03  0.19063749909E+03  0.00000000000E+00 0. -1.
         -5    1    3    3    0  503 -0.12042253832E+03  0.72238603214E+02 -0.28875138190E+02  0.14344290549E+03  0.47000000000E+01 0.  1.
         11    1    4    4    0    0 -0.33630549354E+02 -0.39509393862E+02 -0.23451267403E+02  0.56938282342E+02  0.00000000000E+00 0. -1.
        -12    1    4    4    0    0 -0.11058979847E+03  0.16727960347E+02 -0.11386887849E+03  0.15961218522E+03  0.00000000000E+00 0.  1.
</event>
<event>
12    1  0.8747122E-002  0.2572710E+03  0.7818608E-02  0.1109468E+00
         21   -1    0    0  503  502  0.00000000000E+00  0.00000000000E+00  0.34492789435E+03  0.34492789435E+03  0.00000000000E+00 0. -1.
         21   -1    0    0  501  503 -0.00000000000E+00 -0.00000000000E+00 -0.44042968524E+03  0.44042968524E+03  0.00000000000E+00 0. -1.
          6    2    1    2  501    0 -0.18577165640E+03 -0.32568855929E+02 -0.34483026765E+03  0.43022815536E+03  0.17497575111E+03 0.  0.
         24    2    3    3    0    0 -0.20453536376E+03 -0.32733513997E+02 -0.25290308629E+03  0.33628774606E+03  0.78887762842E+02 0.  0.
         -6    2    1    2    0  502  0.18577165640E+03  0.32568855929E+02  0.24932847677E+03  0.35512942423E+03  0.16846477355E+03 0.  0.
        -24    2    5    5    0    0  0.11832242117E+03 -0.27320435929E+01  0.23789608773E+03  0.27800392677E+03  0.81755582844E+02 0.  0.
          5    1    3    3  501    0  0.18763707366E+02  0.16465806788E+00 -0.91927181363E+02  0.93940409301E+02  0.47000000000E+01 0. -1.
        -11    1    4    4    0    0 -0.18548801842E+02 -0.21317923802E+02 -0.96346484301E+01  0.29855290576E+02  0.00000000000E+00 0.  1.
         12    1    4    4    0    0 -0.18598656192E+03 -0.11415590195E+02 -0.24326843786E+03  0.30643245548E+03  0.00000000000E+00 0. -1.
         -5    1    5    5    0  502  0.67449235227E+02  0.35300899522E+02  0.11432389039E+02  0.77125497463E+02  0.47000000000E+01 0.  1.
         13    1    6    6    0    0  0.44658390186E+02 -0.32182659038E+02  0.14906742233E+03  0.15890623574E+03  0.00000000000E+00 0. -1.
        -14    1    6    6    0    0  0.73664030983E+02  0.29450615446E+02  0.88828665398E+02  0.11909769102E+03  0.00000000000E+00 0.  1.
</event>
<event>
12    1  0.8747122E-002  0.1757920E+03  0.7818608E-02  0.1173640E+00
         21   -1    0    0  501  502  0.00000000000E+00  0.00000000000E+00  0.10822069534E+03  0.10822069534E+03  0.00000000000E+00 0. -1.
         21   -1    0    0  502  503 -0.00000000000E+00 -0.00000000000E+00 -0.50419111567E+03  0.50419111567E+03  0.00000000000E+00 0. -1.
         -6    2    1    2    0  503 -0.54270478778E+01 -0.20636190987E+02 -0.40658899964E+03  0.44296436517E+03  0.17449214584E+03 0.  0.
        -24    2    3    3    0    0 -0.13335517325E-01  0.55739613873E+02 -0.20032637467E+03  0.22289861975E+03  0.80288439798E+02 0.  0.
          6    2    1    2  501    0  0.54270478778E+01  0.20636190987E+02  0.10618579307E+02  0.16944744584E+03  0.16776286075E+03 0.  0.
         24    2    5    5    0    0  0.12076725862E+02 -0.33048915385E+02 -0.38471553744E+02  0.96247445659E+02  0.80903845600E+02 0.  0.
          5    1    5    5  501    0 -0.66496779843E+01  0.53685106373E+02  0.49090133051E+02  0.73200000181E+02  0.47000000000E+01 0. -1.
        -13    1    6    6    0    0  0.70911210264E+01 -0.58108314363E+02 -0.12588463929E+02  0.59877622027E+02  0.00000000000E+00 0.  1.
         14    1    6    6    0    0  0.49856048356E+01  0.25059398978E+02 -0.25883089815E+02  0.36369823632E+02  0.00000000000E+00 0. -1.
         -5    1    3    3    0  503 -0.54137123604E+01 -0.76375804860E+02 -0.20626262497E+03  0.22006574542E+03  0.47000000000E+01 0.  1.
         11    1    4    4    0    0 -0.20609223580E+02 -0.11735890461E+02 -0.28024210532E+02  0.36712771585E+02  0.00000000000E+00 0. -1.
        -12    1    4    4    0    0  0.20595888062E+02  0.67475504335E+02 -0.17230216414E+03  0.18618584817E+03  0.00000000000E+00 0.  1.
</event>
<event>
12    1  0.8747122E-002  0.2060634E+03  0.7818608E-02  0.1144949E+00
         21   -1    0    0  503  502  0.00000000000E+00  0.00000000000E+00  0.12723307301E+03  0.12723307301E+03  0.00000000000E+00 0. -1.
         21   -1    0    0  501  503 -0.00000000000E+00 -0.00000000000E+00 -0.46548394665E+03  0.46548394665E+03  0.00000000000E+00 0.  1.
          6    2    1    2  501    0 -0.43772178630E+02  0.10263951217E+03 -0.32754028140E+03  0.38637550134E+03  0.17190846116E+03 0.  0.
         24    2    3    3    0    0 -0.84020294047E+02  0.48528280346E+02 -0.14608424203E+03  0.19273583488E+03  0.79950562674E+02 0.  0.
         -6    2    1    2    0  502  0.43772178630E+02 -0.10263951217E+03 -0.10710592235E+02  0.20634151832E+03  0.17323750262E+03 0.  0.
        -24    2    5    5    0    0 -0.27358772964E+02 -0.13045083166E+02 -0.30072108305E+02  0.90222044118E+02  0.79479613072E+02 0.  0.
          5    1    3    3  501    0  0.40248115417E+02  0.54111231825E+02 -0.18145603937E+03  0.19363966646E+03  0.47000000000E+01 0. -1.
        -11    1    4    4    0    0 -0.82105019460E+02  0.62006921703E+02 -0.14661129535E+03  0.17911159784E+03  0.00000000000E+00 0.  1.
         12    1    4    4    0    0 -0.19152745872E+01 -0.13478641357E+02  0.52705331490E+00  0.13624237035E+02  0.00000000000E+00 0. -1.
         -5    1    5    5    0  502  0.71130951595E+02 -0.89594429005E+02  0.19361516070E+02  0.11611947420E+03  0.47000000000E+01 0.  1.
         11    1    6    6    0    0  0.15117987558E+02 -0.32955705458E+02 -0.38046372221E+01  0.36456924369E+02  0.00000000000E+00 0. -1.
        -12    1    6    6    0    0 -0.42476760523E+02  0.19910622292E+02 -0.26267471083E+02  0.53765119749E+02  0.00000000000E+00 0.  1.
</event>
<event>
12    1  0.8747122E-002  0.2081501E+03  0.7818608E-02  0.1143081E+00
         21   -1    0    0  503  502  0.00000000000E+00  0.00000000000E+00  0.43511995692E+03  0.43511995692E+03  0.00000000000E+00 0.  1.
         21   -1    0    0  501  503 -0.00000000000E+00 -0.00000000000E+00 -0.21750183707E+03  0.21750183707E+03  0.00000000000E+00 0. -1.
          6    2    1    2  501    0 -0.11284398877E+03  0.31164403548E+02 -0.13159171173E+03  0.24608275999E+03  0.17185854741E+03 0.  0.
         24    2    3    3    0    0 -0.18771717180E+02  0.32786834703E+01 -0.12798405149E+01  0.82894281700E+02  0.80664098679E+02 0.  0.
         -6    2    1    2    0  502  0.11284398877E+03 -0.31164403548E+02  0.34920983158E+03  0.40653903401E+03  0.17210895923E+03 0.  0.
        -24    2    5    5    0    0  0.76871528645E+02 -0.84393763331E+02  0.27601797845E+03  0.30903764942E+03  0.79289375898E+02 0.  0.
          5    1    3    3  501    0 -0.94072271588E+02  0.27885720078E+02 -0.13031187122E+03  0.16318847829E+03  0.47000000000E+01 0. -1.
        -11    1    4    4    0    0 -0.16270289900E+02 -0.34111805319E+02  0.16713736905E+02  0.41324164805E+02  0.00000000000E+00 0.  1.
         12    1    4    4    0    0 -0.25014272796E+01  0.37390488789E+02 -0.17993577420E+02  0.41570116895E+02  0.00000000000E+00 0. -1.
         -5    1    5    5    0  502  0.35972460123E+02  0.53229359783E+02  0.73191853136E+02  0.97501384584E+02  0.47000000000E+01 0.  1.
         11    1    6    6    0    0  0.16825335345E+02 -0.71452369179E+02  0.18692654723E+03  0.20082347231E+03  0.00000000000E+00 0. -1.
        -12    1    6    6    0    0  0.60046193300E+02 -0.12941394152E+02  0.89091431212E+02  0.10821417711E+03  0.00000000000E+00 0.  1.
</event>
<event>
12    1  0.8747122E-002  0.2156825E+03  0.7818608E-02  0.1137183E+00
         21   -1    0    0  503  502  0.00000000000E+00  0.00000000000E+00  0.73062716491E+02  0.73062716491E+02  0.00000000000E+00 0. -1.
         21   -1    0    0  501  503 -0.00000000000E+00 -0.00000000000E+00 -0.10865148646E+04  0.10865148646E+04  0.00000000000E+00 0. -1.
          6    2    1    2  501    0  0.42904385295E+02 -0.12253414727E+03 -0.87988917416E+03  0.90588879300E+03  0.17197134341E+03 0.  0.
         24    2    3    3    0    0  0.39300544586E+02 -0.11829083593E+02 -0.23351045928E+03  0.25007164483E+03  0.79525045922E+02 0.  0.
         -6    2    1    2    0  502 -0.42904385295E+02  0.12253414727E+03 -0.13356297395E+03  0.25368878809E+03  0.17223103572E+03 0.  0.
        -24    2    5    5    0    0  0.27705372780E+02  0.11704437250E+03 -0.10054027163E+03  0.17540427857E+03  0.78685080585E+02 0.  0.
          5    1    3    3  501    0  0.36038407089E+01 -0.11070506368E+03 -0.64637871488E+03  0.65581714818E+03  0.47000000000E+01 0. -1.
        -13    1    4    4    0    0  0.41848715578E+02 -0.71219596068E+01 -0.23880155740E+03  0.24254529705E+03  0.00000000000E+00 0.  1.
         14    1    4    4    0    0 -0.25481709920E+01 -0.47071239860E+01  0.52910981159E+01  0.75263477794E+01  0.00000000000E+00 0. -1.
         -5    1    5    5    0  502 -0.70609758075E+02  0.54897747773E+01 -0.33022702319E+02  0.78284509521E+02  0.47000000000E+01 0.  1.
         11    1    6    6    0    0 -0.21792758574E+02  0.62107948621E+02 -0.27085977292E+02  0.71175640313E+02  0.00000000000E+00 0. -1.
        -12    1    6    6    0    0  0.49498131354E+02  0.54936423875E+02 -0.73454294337E+02  0.10422863825E+03  0.00000000000E+00 0.  1.
</event>
<event>
12    1  0.8747122E-002  0.1867118E+03  0.7818608E-02  0.1161977E+00
         21   -1    0    0  503  502  0.00000000000E+00  0.00000000000E+00  0.22575826705E+03  0.22575826705E+03  0.00000000000E+00 0.  1.
         21   -1    0    0  501  503 -0.00000000000E+00 -0.00000000000E+00 -0.15311322625E+03  0.15311322625E+03  0.00000000000E+00 0.  1.
          6    2    1    2  501    0 -0.12078316868E+02  0.72670203038E+02  0.47671610449E+02  0.19270154090E+03  0.17156473203E+03 0.  0.
         24    2    3    3    0    0 -0.19684639374E+02 -0.11090714325E+02  0.66277732494E+02  0.10643436756E+03  0.80156395884E+02 0.  0.
         -6    2    1    2    0  502  0.12078316868E+02 -0.72670203038E+02  0.24973430353E+02  0.18616995240E+03  0.16914116827E+03 0.  0.
        -24    2    5    5    0    0  0.10991240713E+02 -0.49431040300E+02 -0.43000568860E+02  0.11417137611E+03  0.92853751038E+02 0.  0.
          5    1    3    3  501    0  0.76063225060E+01  0.83760917363E+02 -0.18606122044E+02  0.86267173346E+02  0.47000000000E+01 0. -1.
        -11    1    4    4    0    0  0.26467856291E+02  0.78578812696E+01  0.43656826982E+02  0.51654740894E+02  0.00000000000E+00 0.  1.
         12    1    4    4    0    0 -0.46152495665E+02 -0.18948595594E+02  0.22620905511E+02  0.54779626662E+02  0.00000000000E+00 0. -1.
         -5    1    5    5    0  502  0.10870761543E+01 -0.23239162738E+02  0.67973999213E+02  0.71998576294E+02  0.47000000000E+01 0.  1.
         13    1    6    6    0    0 -0.18548344878E+02  0.20322146185E+02 -0.94639292067E+00  0.27530462815E+02  0.00000000000E+00 0. -1.
        -14    1    6    6    0    0  0.29539585592E+02 -0.69753186485E+02 -0.42054175940E+02  0.86640913290E+02  0.00000000000E+00 0.  1.
</event>
<event>
12    1  0.8747122E-002  0.1797234E+03  0.7818608E-02  0.1168253E+00
         21   -1    0    0  501  502  0.00000000000E+00  0.00000000000E+00  0.15887430016E+04  0.15887430016E+04  0.00000000000E+00 0.  1.
         21   -1    0    0  502  503 -0.00000000000E+00 -0.00000000000E+00 -0.34218775969E+02  0.34218775969E+02  0.00000000000E+00 0.  1.
         -6    2    1    2    0  503 -0.22909860812E+00  0.52766013489E+02  0.25776662294E+03  0.31380907670E+03  0.17102105150E+03 0.  0.
        -24    2    3    3    0    0  0.14497665283E+02  0.32764894618E+02  0.27127707928E+03  0.28514647456E+03  0.80209336073E+02 0.  0.
          6    2    1    2  501    0  0.22909860812E+00 -0.52766013489E+02  0.12967576027E+04  0.13091527009E+04  0.17180282121E+03 0.  0.
         24    2    5    5    0    0 -0.34565018264E+01  0.16433110148E+02  0.10032547170E+04  0.10075434565E+04  0.91333428104E+02 0.  0.
          5    1    5    5  501    0  0.36856004345E+01 -0.69199123637E+02  0.29350288578E+03  0.30160924442E+03  0.47000000000E+01 0. -1.
        -11    1    6    6    0    0  0.18645205264E+02 -0.16240152929E+02  0.80621154421E+03  0.80659062743E+03  0.00000000000E+00 0.  1.
         12    1    6    6    0    0 -0.22101707090E+02  0.32673263076E+02  0.19704317276E+03  0.20095282906E+03  0.00000000000E+00 0. -1.
         -5    1    3    3    0  503 -0.14726763891E+02  0.20001118871E+02 -0.13510456346E+02  0.28662602141E+02  0.47000000000E+01 0.  1.
         13    1    4    4    0    0  0.19766710170E+02 -0.19916548954E+02  0.15311911231E+03  0.15566905379E+03  0.00000000000E+00 0. -1.
        -14    1    4    4    0    0 -0.52690448875E+01  0.52681443572E+02  0.11815796698E+03  0.12947742078E+03  0.00000000000E+00 0.  1.
</event>
<event>
12    1  0.8747122E-002  0.2145770E+03  0.7818608E-02  0.1138280E+00
         21   -1    0    0  501  502  0.00000000000E+00  0.00000000000E+00  0.42549470809E+03  0.42549470809E+03  0.00000000000E+00 0.  1.
         21   -1    0    0  502  503 -0.00000000000E+00 -0.00000000000E+00 -0.17256996982E+03  0.17256996982E+03  0.00000000000E+00 0. -1.
         -6    2    1    2    0  503 -0.12722616733E+03  0.14055068841E+01 -0.57491382893E+02  0.22070349786E+03  0.17092776766E+03 0.  0.
        -24    2    3    3    0    0 -0.13005314369E+03  0.32919021423E+02 -0.13477368534E+01  0.15608699544E+03  0.79773752553E+02 0.  0.
          6    2    1    2  501    0  0.12722616733E+03 -0.14055068841E+01  0.31041612116E+03  0.37736118005E+03  0.17278547055E+03 0.  0.
         24    2    5    5    0    0  0.33829502429E+02  0.32923287400E+02  0.67923673868E+02  0.11520458539E+03  0.80187860276E+02 0.  0.
          5    1    5    5  501    0  0.93396664902E+02 -0.34328794284E+02  0.24249244729E+03  0.26215659466E+03  0.47000000000E+01 0. -1.
        -11    1    6    6    0    0 -0.15136461301E+02 -0.92300404670E+01  0.41997406618E+02  0.45586053464E+02  0.00000000000E+00 0.  1.
         12    1    6    6    0    0  0.48965963730E+02  0.42153327867E+02  0.25926267250E+02  0.69618531928E+02  0.00000000000E+00 0. -1.
         -5    1    3    3    0  503  0.28269763586E+01 -0.31513514539E+02 -0.56143646040E+02  0.64616502417E+02  0.47000000000E+01 0.  1.
         11    1    4    4    0    0 -0.18749480007E+02 -0.22361093210E+02 -0.11570665938E+02  0.31391747328E+02  0.00000000000E+00 0. -1.
        -12    1    4    4    0    0 -0.11130366368E+03  0.55280114633E+02  0.10222929085E+02  0.12469524811E+03  0.00000000000E+00 0.  1.
</event>
<event>
12    1  0.8747122E-002  0.1954920E+03  0.7818608E-02  0.1154005E+00
         21   -1    0    0  503  502  0.00000000000E+00  0.00000000000E+00  0.10753047822E+04  0.10753047822E+04  0.00000000000E+00 0.  1.
         21   -1    0    0  501  503 -0.00000000000E+00 -0.00000000000E+00 -0.43747348465E+02  0.43747348465E+02  0.00000000000E+00 0.  1.
          6    2    1    2  501    0 -0.91112408348E+02 -0.12102275526E+02  0.27049918724E+03  0.33374681410E+03  0.17253750201E+03 0.  0.
         24    2    3    3    0    0 -0.22485425833E+02  0.53969962706E+02  0.14673134824E+03  0.17749134583E+03  0.80961336695E+02 0.  0.
         -6    2    1    2    0  502  0.91112408348E+02  0.12102275526E+02  0.76105824653E+03  0.78530531660E+03  0.17043136342E+03 0.  0.
        -24    2    5    5    0    0  0.88416664213E+02  0.51823769828E+02  0.39946888524E+03  0.42150039588E+03  0.87086071306E+02 0.  0.
          5    1    3    3  501    0 -0.68626982515E+02 -0.66072238232E+02  0.12376783900E+03  0.15625546827E+03  0.47000000000E+01 0. -1.
        -13    1    4    4    0    0 -0.64141423633E+01 -0.10831619527E+02 -0.35225543401E+01  0.13071862641E+02  0.00000000000E+00 0.  1.
         14    1    4    4    0    0 -0.16071283469E+02  0.64801582232E+02  0.15025390258E+03  0.16441948319E+03  0.00000000000E+00 0. -1.
         -5    1    5    5    0  502  0.26957441347E+01 -0.39721494301E+02  0.36158936129E+03  0.36380492072E+03  0.47000000000E+01 0.  1.
         13    1    6    6    0    0 -0.11369138594E+00  0.43096945699E+02  0.95347056795E+02  0.10463470215E+03  0.00000000000E+00 0. -1.
        -14    1    6    6    0    0  0.88530355599E+02  0.87268241290E+01  0.30412182845E+03  0.31686569373E+03  0.00000000000E+00 0.  1.
</event>
<event>
12    1  0.8747122E-002  0.2052623E+03  0.7818608E-02  0.1150682E+00
         21   -1    0    0  501  502  0.00000000000E+00  0.00000000000E+00  0.42157551802E+02  0.42157551802E+02  0.00000000000E+00 0. -1.
         21   -1    0    0  502  503 -0.00000000000E+00 -0.00000000000E+00 -0.11232910590E+04  0.11232910590E+04  0.00000000000E+00 0. -1.
         -6    2    1    2    0  503 -0.67988212855E+02  0.18802868709E+02 -0.78204235431E+03  0.80269785497E+03  0.16660629487E+03 0.  0.
        -24    2    3    3    0    0  0.23348777364E+01  0.35914052003E+02 -0.24269911629E+03  0.25849996077E+03  0.81388561131E+02 0.  0.
          6    2    1    2  501    0  0.67988212855E+02 -0.18802868709E+02 -0.29909115292E+03  0.36275075585E+03  0.19276059805E+03 0.  0.
         24    2    5    5    0    0  0.41980346955E+02 -0.36902209706E+02 -0.47096277729E+02  0.10872811443E+03  0.80496092334E+02 0.  0.
          5    1    5    5  501    0  0.26007865900E+02  0.18099340997E+02 -0.25199487519E+03  0.25402264142E+03  0.47000000000E+01 0. -1.
        -13    1    6    6    0    0  0.53939763696E+02 -0.50918725756E+02 -0.50838767600E+02  0.89926609139E+02  0.00000000000E+00 0.  1.
         14    1    6    6    0    0 -0.11959416740E+02  0.14016516050E+02  0.37424898707E+01  0.18801505296E+02  0.00000000000E+00 0. -1.
         -5    1    3    3    0  503 -0.70323090591E+02 -0.17111183294E+02 -0.53934323802E+03  0.54419789421E+03  0.47000000000E+01 0.  1.
         13    1    4    4    0    0  0.19198935579E+02 -0.18514168941E+02 -0.12395448015E+03  0.12679150889E+03  0.00000000000E+00 0. -1.
        -14    1    4    4    0    0 -0.16864057842E+02  0.54428220945E+02 -0.11874463614E+03  0.13170845187E+03  0.00000000000E+00 0.  1.
</event>
<event>
12    1  0.8747122E-002  0.1804364E+03  0.7818608E-02  0.1167759E+00
         21   -1    0    0  503  502  0.00000000000E+00  0.00000000000E+00  0.12136769195E+04  0.12136769195E+04  0.00000000000E+00 0.  1.
         21   -1    0    0  501  503 -0.00000000000E+00 -0.00000000000E+00 -0.31979743819E+02  0.31979743819E+02  0.00000000000E+00 0.  1.
          6    2    1    2  501    0  0.46570754441E+02  0.63639102970E+01  0.33313327931E+03  0.37812109401E+03  0.17259329486E+03 0.  0.
         24    2    3    3    0    0  0.90957955894E+02 -0.20168617900E+02  0.18840103017E+03  0.22435597233E+03  0.78489051867E+02 0.  0.
         -6    2    1    2    0  502 -0.46570754441E+02 -0.63639102970E+01  0.84856389633E+03  0.86753556927E+03  0.17420661083E+03 0.  0.
        -24    2    5    5    0    0 -0.53243246417E+02 -0.37605187920E+02  0.28592503863E+03  0.30397092012E+03  0.79976240920E+02 0.  0.
          5    1    3    3  501    0 -0.44387201453E+02  0.26532528197E+02  0.14473224914E+03  0.15376512168E+03  0.47000000000E+01 0. -1.
        -11    1    4    4    0    0  0.99671550023E+00 -0.21250579694E+02  0.79318890026E+01  0.22704524709E+02  0.00000000000E+00 0.  1.
         12    1    4    4    0    0  0.89961240394E+02  0.10819617937E+01  0.18046914116E+03  0.20165144762E+03  0.00000000000E+00 0. -1.
         -5    1    5    5    0  502  0.66724919765E+01  0.31241277624E+02  0.56263885770E+03  0.56356464915E+03  0.47000000000E+01 0.  1.
         11    1    6    6    0    0 -0.70805831205E+02 -0.31299983835E+02  0.26431704979E+03  0.27542087345E+03  0.00000000000E+00 0. -1.
        -12    1    6    6    0    0  0.17562584788E+02 -0.63052040859E+01  0.21607988843E+02  0.28550046670E+02  0.00000000000E+00 0.  1.
</event>
<event>
12    1  0.8747122E-002  0.1993058E+03  0.7818608E-02  0.1150484E+00
         21   -1    0    0  501  502  0.00000000000E+00  0.00000000000E+00  0.12938111762E+03  0.12938111762E+03  0.00000000000E+00 0.  1.
         21   -1    0    0  502  503 -0.00000000000E+00 -0.00000000000E+00 -0.32486333378E+03  0.32486333378E+03  0.00000000000E+00 0.  1.
         -6    2    1    2    0  503 -0.83845438532E+02 -0.54409638911E+02 -0.15247795269E+03  0.25035195039E+03  0.17156953878E+03 0.  0.
        -24    2    3    3    0    0  0.35889485087E+01  0.14245266832E+02 -0.38282689080E+02  0.90912568960E+02  0.81140142551E+02 0.  0.
          6    2    1    2  501    0  0.83845438532E+02  0.54409638911E+02 -0.43004263472E+02  0.20389250102E+03  0.17243062061E+03 0.  0.
         24    2    5    5    0    0 -0.13454725927E+02  0.15407185812E+02  0.15876276392E+02  0.83569929045E+02  0.79457321023E+02 0.  0.
          5    1    5    5  501    0  0.97300164458E+02  0.39002453100E+02 -0.58880539864E+02  0.12032257197E+03  0.47000000000E+01 0. -1.
        -13    1    6    6    0    0  0.26028888779E+02  0.28483497852E+02  0.16518645313E+02  0.41972352137E+02  0.00000000000E+00 0.  1.
         14    1    6    6    0    0 -0.39483614706E+02 -0.13076312040E+02 -0.64236892089E+00  0.41597576908E+02  0.00000000000E+00 0. -1.
         -5    1    3    3    0  503 -0.87434387040E+02 -0.68654905743E+02 -0.11419526361E+03  0.15943938143E+03  0.47000000000E+01 0.  1.
         13    1    4    4    0    0 -0.25385520432E+02  0.35890258318E+02 -0.10213420004E+02  0.45131466162E+02  0.00000000000E+00 0. -1.
        -14    1    4    4    0    0  0.28974468941E+02 -0.21644991487E+02 -0.28069269076E+02  0.45781102798E+02  0.00000000000E+00 0.  1.
</event>
<event>
12    1  0.8747122E-002  0.2202505E+03  0.7818608E-02  0.1133716E+00
         21   -1    0    0  503  502  0.00000000000E+00  0.00000000000E+00  0.87709512085E+02  0.87709512085E+02  0.00000000000E+00 0.  1.
         21   -1    0    0  501  503 -0.00000000000E+00 -0.00000000000E+00 -0.55707527177E+03  0.55707527177E+03  0.00000000000E+00 0. -1.
          6    2    1    2  501    0 -0.33603308242E+01 -0.13696095576E+03 -0.26281086186E+03  0.34283246738E+03  0.17232224565E+03 0.  0.
         24    2    3    3    0    0  0.63038263515E+01 -0.84957545371E+02 -0.26553070570E+03  0.28966068749E+03  0.78353273451E+02 0.  0.
         -6    2    1    2    0  502  0.33603308242E+01  0.13696095576E+03 -0.20655489782E+03  0.30195231648E+03  0.17245486478E+03 0.  0.
        -24    2    5    5    0    0  0.49602943332E+02  0.14325403951E+03 -0.14814300714E+03  0.22703889253E+03  0.81351928891E+02 0.  0.
          5    1    3    3  501    0 -0.96641571758E+01 -0.52003410393E+02  0.27198438403E+01  0.53171779892E+02  0.47000000000E+01 0. -1.
        -13    1    4    4    0    0 -0.28979777566E+01  0.10466854284E+02 -0.80889511066E+02  0.81615355872E+02  0.00000000000E+00 0.  1.
         14    1    4    4    0    0  0.92018041081E+01 -0.95424399656E+02 -0.18464119464E+03  0.20804533161E+03  0.00000000000E+00 0. -1.
         -5    1    5    5    0  502 -0.46242612508E+02 -0.62930837452E+01 -0.58411890689E+02  0.74913423954E+02  0.47000000000E+01 0.  1.
         11    1    6    6    0    0  0.42304390769E+02  0.24590873816E+02 -0.21843882434E+02  0.53586637823E+02  0.00000000000E+00 0. -1.
        -12    1    6    6    0    0  0.72985525630E+01  0.11866316569E+03 -0.12629912470E+03  0.17345225471E+03  0.00000000000E+00 0.  1.
</event>
<event>
12    1  0.8747122E-002  0.1736944E+03  0.7818608E-02  0.1174076E+00
         21   -1    0    0  503  502  0.00000000000E+00  0.00000000000E+00  0.40489507236E+03  0.40489507236E+03  0.00000000000E+00 0. -1.
         21   -1    0    0  501  503 -0.00000000000E+00 -0.00000000000E+00 -0.75155958111E+02  0.75155958111E+02  0.00000000000E+00 0. -1.
          6    2    1    2  501    0  0.19676449578E+02  0.10821111384E+02  0.14194780350E+03  0.22431878160E+03  0.17223669104E+03 0.  0.
         24    2    3    3    0    0 -0.32158052855E+02  0.58855986138E+02  0.88857749045E+02  0.13580432675E+03  0.77774983968E+02 0.  0.
         -6    2    1    2    0  502 -0.19676449578E+02 -0.10821111384E+02  0.18779131075E+03  0.25573224887E+03  0.17213119299E+03 0.  0.
        -24    2    5    5    0    0 -0.32411676926E+02 -0.33965605207E+02  0.20407610351E+03  0.22434533942E+03  0.80495938744E+02 0.  0.
          5    1    3    3  501    0  0.51834502433E+02 -0.48034874754E+02  0.53090054453E+02  0.88514454847E+02  0.47000000000E+01 0. -1.
        -13    1    4    4    0    0 -0.25574517511E+02 -0.80315286959E+01  0.53548265647E+02  0.59883037272E+02  0.00000000000E+00 0.  1.
         14    1    4    4    0    0 -0.65835353434E+01  0.66887514834E+02  0.35309483398E+02  0.75921289479E+02  0.00000000000E+00 0. -1.
         -5    1    5    5    0  502  0.12735227348E+02  0.23144493823E+02 -0.16284792763E+02  0.31386909457E+02  0.47000000000E+01 0.  1.
         11    1    6    6    0    0 -0.26199910208E+02  0.21047208181E+02  0.11173662785E+03  0.11668116502E+03  0.00000000000E+00 0. -1.
        -12    1    6    6    0    0 -0.62117667187E+01 -0.55012813388E+02  0.92339475661E+02  0.10766417439E+03  0.00000000000E+00 0.  1.
</event>
<event>
12    1  0.8747122E-002  0.2253510E+03  0.7818608E-02  0.1129968E+00
         21   -1    0    0  501  502  0.00000000000E+00  0.00000000000E+00  0.18931254133E+03  0.18931254133E+03  0.00000000000E+00 0.  1.
         21   -1    0    0  502  503 -0.00000000000E+00 -0.00000000000E+00 -0.33133359164E+03  0.33133359164E+03  0.00000000000E+00 0. -1.
         -6    2    1    2    0  503 -0.14428971836E+02 -0.14551907766E+03 -0.18466733170E+03  0.29129537755E+03  0.17136795614E+03 0.  0.
        -24    2    3    3    0    0  0.50646846739E+02 -0.97812870211E+02 -0.15162247499E+03  0.20397529425E+03  0.80523816835E+02 0.  0.
          6    2    1    2  501    0  0.14428971836E+02  0.14551907766E+03  0.42646281388E+02  0.22935075542E+03  0.17146155985E+03 0.  0.
         24    2    5    5    0    0 -0.26171889671E+02  0.25693597815E+02  0.53440421156E+02  0.10228707442E+03  0.79130513730E+02 0.  0.
          5    1    5    5  501    0  0.40600861508E+02  0.11982547985E+03 -0.10794139768E+02  0.12706368100E+03  0.47000000000E+01 0. -1.
        -13    1    6    6    0    0 -0.17120875448E+02  0.52105395505E+02  0.19206860953E+02  0.58111961974E+02  0.00000000000E+00 0.  1.
         14    1    6    6    0    0 -0.90510142233E+01 -0.26411797690E+02  0.34233560203E+02  0.44175112449E+02  0.00000000000E+00 0. -1.
         -5    1    3    3    0  503 -0.65075818575E+02 -0.47706207450E+02 -0.33044856707E+02  0.87320083299E+02  0.47000000000E+01 0.  1.
         11    1    4    4    0    0 -0.12216201832E+01 -0.67112523493E+02 -0.11583564596E+03  0.13387860188E+03  0.00000000000E+00 0. -1.
        -12    1    4    4    0    0  0.51868466922E+02 -0.30700346718E+02 -0.35786829036E+02  0.70096692375E+02  0.00000000000E+00 0.  1.
</event>
<event>
12    1  0.8747122E-002  0.1816440E+03  0.7818608E-02  0.1166240E+00
         21   -1    0    0  501  502  0.00000000000E+00  0.00000000000E+00  0.65832659605E+03  0.65832659605E+03  0.00000000000E+00 0.  1.
         21   -1    0    0  502  503 -0.00000000000E+00 -0.00000000000E+00 -0.56252256453E+02  0.56252256453E+02  0.00000000000E+00 0.  1.
         -6    2    1    2    0  503 -0.35749484123E+02 -0.29408270178E+02  0.41916815829E+03  0.45680142905E+03  0.17556403017E+03 0.  0.
        -24    2    3    3    0    0 -0.64401997296E+02  0.16718172781E+02  0.15469746128E+03  0.18677281052E+03  0.80781579984E+02 0.  0.
          6    2    1    2  501    0  0.35749484123E+02  0.29408270178E+02  0.18290618131E+03  0.25777742345E+03  0.17564639738E+03 0.  0.
         24    2    5    5    0    0 -0.40160402155E+02  0.13592751556E+02  0.76214291820E+02  0.12580132430E+03  0.90662749368E+02 0.  0.
          5    1    5    5  501    0  0.75909886278E+02  0.15815518622E+02  0.10669188949E+03  0.13197609915E+03  0.47000000000E+01 0. -1.
        -11    1    6    6    0    0  0.20869235394E+02  0.23559498833E+02  0.56516396925E+01  0.31976804130E+02  0.00000000000E+00 0.  1.
         12    1    6    6    0    0 -0.61029637549E+02 -0.99667472762E+01  0.70562652127E+02  0.93824520174E+02  0.00000000000E+00 0. -1.
         -5    1    3    3    0  503  0.28652513174E+02 -0.46126442959E+02  0.26447069700E+03  0.27002861853E+03  0.47000000000E+01 0.  1.
         13    1    4    4    0    0 -0.22956063306E+02  0.47682082475E+02  0.78250626180E+02  0.94465455745E+02  0.00000000000E+00 0. -1.
        -14    1    4    4    0    0 -0.41445933991E+02 -0.30963909694E+02  0.76446835105E+02  0.92307354774E+02  0.00000000000E+00 0.  1.
</event>
<event>
12    1  0.8747122E-002  0.2074472E+03  0.7818608E-02  0.1143653E+00
         21   -1    0    0  503  502  0.00000000000E+00  0.00000000000E+00  0.71245047410E+02  0.71245047410E+02  0.00000000000E+00 0.  1.
         21   -1    0    0  501  503 -0.00000000000E+00 -0.00000000000E+00 -0.61535910909E+03  0.61535910909E+03  0.00000000000E+00 0. -1.
          6    2    1    2  501    0 -0.25160796247E+01  0.11565050886E+03 -0.32024092319E+03  0.38156071405E+03  0.17220034486E+03 0.  0.
         24    2    3    3    0    0 -0.35181211007E+02  0.86747521073E+02 -0.10327155564E+03  0.16020084876E+03  0.78971182836E+02 0.  0.
         -6    2    1    2    0  502  0.25160796247E+01 -0.11565050886E+03 -0.22387313849E+03  0.30504344245E+03  0.17190389404E+03 0.  0.
        -24    2    5    5    0    0 -0.30012140980E+02 -0.14162442707E+03 -0.16459867045E+03  0.23246050971E+03  0.77375443851E+02 0.  0.
          5    1    3    3  501    0  0.32665131382E+02  0.28902987782E+02 -0.21696936754E+03  0.22135986529E+03  0.47000000000E+01 0. -1.
        -13    1    4    4    0    0 -0.36875914586E+02  0.87768874797E+02 -0.11443832377E+03  0.14886013035E+03  0.00000000000E+00 0.  1.
         14    1    4    4    0    0  0.16947035792E+01 -0.10213537233E+01  0.11166768129E+02  0.11340718412E+02  0.00000000000E+00 0. -1.
         -5    1    5    5    0  502  0.32528220604E+02  0.25973918213E+02 -0.59274468043E+02  0.72582932738E+02  0.47000000000E+01 0.  1.
         11    1    6    6    0    0 -0.15569682572E+02 -0.71621092952E+01 -0.57361709005E+02  0.59867156980E+02  0.00000000000E+00 0. -1.
        -12    1    6    6    0    0 -0.14442458407E+02 -0.13446231777E+03 -0.10723696145E+03  0.17259335273E+03  0.00000000000E+00 0.  1.
</event>
<event>
12    1  0.8747122E-002  0.2996708E+03  0.7818608E-02  0.1085494E+00
         21   -1    0    0  503  502  0.00000000000E+00  0.00000000000E+00  0.18270322012E+03  0.18270322012E+03  0.00000000000E+00 0. -1.
         21   -1    0    0  501  503 -0.00000000000E+00 -0.00000000000E+00 -0.49084197462E+03  0.49084197462E+03  0.00000000000E+00 0.  1.
          6    2    1    2  501    0 -0.27866184292E+01 -0.24458149332E+03 -0.14366494259E+03  0.33232847286E+03  0.17313210570E+03 0.  0.
         24    2    3    3    0    0 -0.13098828904E+02 -0.44514138855E+02 -0.15690028704E+02  0.94561871768E+02  0.80886851311E+02 0.  0.
         -6    2    1    2    0  502  0.27866184292E+01  0.24458149332E+03 -0.16447381190E+03  0.34121672188E+03  0.17189922737E+03 0.  0.
        -24    2    5    5    0    0  0.45941122567E+02  0.65074766370E+02 -0.62120082364E+02  0.13006901955E+03  0.81937373965E+02 0.  0.
          5    1    3    3  501    0  0.10312210475E+02 -0.20006735447E+03 -0.12797491389E+03  0.23776660109E+03  0.47000000000E+01 0. -1.
        -11    1    4    4    0    0 -0.13015233957E+02 -0.17633254487E+02 -0.47859976812E+02  0.52639389807E+02  0.00000000000E+00 0.  1.
         12    1    4    4    0    0 -0.83594947663E-01 -0.26880884368E+02  0.32169948108E+02  0.41922481962E+02  0.00000000000E+00 0. -1.
         -5    1    5    5    0  502 -0.43154504138E+02  0.17950672695E+03 -0.10235372954E+03  0.21114770233E+03  0.47000000000E+01 0.  1.
         13    1    6    6    0    0 -0.22819954814E+02  0.59683340160E+01 -0.13690356045E+02  0.27272645586E+02  0.00000000000E+00 0. -1.
        -14    1    6    6    0    0  0.68761077382E+02  0.59106432354E+02 -0.48429726319E+02  0.10279637396E+03  0.00000000000E+00 0.  1.
</event>
<event>
12    1  0.8747122E-002  0.2057453E+03  0.7818608E-02  0.1145148E+00
         21   -1    0    0  501  502  0.00000000000E+00  0.00000000000E+00  0.16030527460E+03  0.16030527460E+03  0.00000000000E+00 0.  1.
         21   -1    0    0  502  503 -0.00000000000E+00 -0.00000000000E+00 -0.40031125852E+03  0.40031125852E+03  0.00000000000E+00 0.  1.
         -6    2    1    2    0  503 -0.10236036936E+03  0.49181958252E+02 -0.28400624244E+03  0.35021897582E+03  0.17057923393E+03 0.  0.
        -24    2    3    3    0    0 -0.98452089073E+02  0.95114460865E+00 -0.88951774030E+02  0.14919703253E+03  0.68217431005E+02 0.  0.
          6    2    1    2  501    0  0.10236036936E+03 -0.49181958252E+02  0.44000258517E+02  0.21039755730E+03  0.17156514545E+03 0.  0.
         24    2    5    5    0    0  0.13540876340E+03 -0.63392882854E+02  0.34746987279E+02  0.17295613965E+03  0.79701206477E+02 0.  0.
          5    1    5    5  501    0 -0.33048394046E+02  0.14210924602E+02  0.92532712381E+01  0.37441417650E+02  0.47000000000E+01 0. -1.
        -13    1    6    6    0    0  0.83176519880E+02 -0.71490929392E+00  0.37676732548E+02  0.91314734464E+02  0.00000000000E+00 0.  1.
         14    1    6    6    0    0  0.52232243521E+02 -0.62677973560E+02 -0.29297452683E+01  0.81641405182E+02  0.00000000000E+00 0. -1.
         -5    1    3    3    0  503 -0.39082802821E+01  0.48230813643E+02 -0.19505446841E+03  0.20102194330E+03  0.47000000000E+01 0.  1.
         11    1    4    4    0    0 -0.38931279860E+02 -0.33059147622E+02 -0.34252965386E+02  0.61496483077E+02  0.00000000000E+00 0. -1.
        -12    1    4    4    0    0 -0.59520809213E+02  0.34010292230E+02 -0.54698808643E+02  0.87700549451E+02  0.00000000000E+00 0.  1.
</event>
<event>
12    1  0.8747122E-002  0.2389023E+03  0.7818608E-02  0.1120633E+00
         21   -1    0    0  501  502  0.00000000000E+00  0.00000000000E+00  0.17983817176E+03  0.17983817176E+03  0.00000000000E+00 0.  1.
         21   -1    0    0  502  503 -0.00000000000E+00 -0.00000000000E+00 -0.33883510630E+03  0.33883510630E+03  0.00000000000E+00 0. -1.
         -6    2    1    2    0  503  0.32718990065E+02 -0.16214543258E+03 -0.14614646873E+03  0.28005911971E+03  0.17237356698E+03 0.  0.
        -24    2    3    3    0    0  0.62553179479E+02 -0.17519554226E+03 -0.14133274680E+03  0.24680786199E+03  0.79578873660E+02 0.  0.
          6    2    1    2  501    0 -0.32718990065E+02  0.16214543258E+03 -0.12850465813E+02  0.23861415835E+03  0.17149317327E+03 0.  0.
         24    2    5    5    0    0 -0.54795925027E+02  0.14157751684E+03  0.41860395285E+02  0.17595796522E+03  0.78499211196E+02 0.  0.
          5    1    5    5  501    0  0.22076934962E+02  0.20567915738E+02 -0.54710861097E+02  0.62656193127E+02  0.47000000000E+01 0. -1.
        -13    1    6    6    0    0 -0.29104696290E+02  0.13964388666E+03  0.24101395369E+02  0.14466642902E+03  0.00000000000E+00 0.  1.
         14    1    6    6    0    0 -0.25691228737E+02  0.19336301781E+01  0.17758999916E+02  0.31291536199E+02  0.00000000000E+00 0. -1.
         -5    1    3    3    0  503 -0.29834189414E+02  0.13050109685E+02 -0.48137219310E+01  0.33251257715E+02  0.47000000000E+01 0.  1.
         11    1    4    4    0    0 -0.16006796616E+02 -0.43345419840E+02 -0.50562487654E+02  0.68495314561E+02  0.00000000000E+00 0. -1.
        -12    1    4    4    0    0  0.78559976096E+02 -0.13185012242E+03 -0.90770259143E+02  0.17831254743E+03  0.00000000000E+00 0.  1.
</event>
<event>
12    1  0.8747122E-002  0.3382223E+03  0.7818608E-02  0.1067644E+00
         21   -1    0    0  501  502  0.00000000000E+00  0.00000000000E+00  0.10632417263E+04  0.10632417263E+04  0.00000000000E+00 0. -1.
         21   -1    0    0  502  503 -0.00000000000E+00 -0.00000000000E+00 -0.13914430226E+03  0.13914430226E+03  0.00000000000E+00 0. -1.
         -6    2    1    2    0  503 -0.25742958283E+03  0.13713770833E+03  0.17412888025E+03  0.37967880856E+03  0.16958298725E+03 0.  0.
        -24    2    3    3    0    0 -0.83005436212E+02  0.92399971610E+02  0.12338915530E+03  0.19253753118E+03  0.80113420050E+02 0.  0.
          6    2    1    2  501    0  0.25742958283E+03 -0.13713770833E+03  0.74996854383E+03  0.82270722005E+03  0.17122386523E+03 0.  0.
         24    2    5    5    0    0  0.22960866507E+03 -0.10463652055E+03  0.47103319883E+03  0.54047088759E+03  0.81040517136E+02 0.  0.
          5    1    5    5  501    0  0.27820917757E+02 -0.32501187782E+02  0.27893534500E+03  0.28223633246E+03  0.47000000000E+01 0. -1.
        -11    1    6    6    0    0  0.49934557274E+02  0.10104310751E+02  0.74334167829E+02  0.90117288090E+02  0.00000000000E+00 0.  1.
         12    1    6    6    0    0  0.17967410780E+03 -0.11474083130E+03  0.39669903100E+03  0.45035359950E+03  0.00000000000E+00 0. -1.
         -5    1    3    3    0  503 -0.17442414662E+03  0.44737736724E+02  0.50739724950E+02  0.18714127738E+03  0.47000000000E+01 0.  1.
         11    1    4    4    0    0 -0.45454340138E+02  0.39075020981E+02  0.86563296995E+01  0.60563077414E+02  0.00000000000E+00 0. -1.
        -12    1    4    4    0    0 -0.37551096074E+02  0.53324950629E+02  0.11473282560E+03  0.13197445376E+03  0.00000000000E+00 0.  1.
</event>
<event>
12    1  0.8747122E-002  0.1760718E+03  0.7818608E-02  0.1173023E+00
         21   -1    0    0  503  502  0.00000000000E+00  0.00000000000E+00  0.20631571445E+03  0.20631571445E+03  0.00000000000E+00 0. -1.
         21   -1    0    0  501  503 -0.00000000000E+00 -0.00000000000E+00 -0.26105124084E+03  0.26105124084E+03  0.00000000000E+00 0. -1.
          6    2    1    2  501    0  0.13416295194E+01  0.34788537877E+02 -0.18293025552E+03  0.25389909566E+03  0.17259556790E+03 0.  0.
         24    2    3    3    0    0  0.35141492751E+02 -0.42024569706E+02 -0.11072201599E+03  0.14308933027E+03  0.72209435954E+02 0.  0.
         -6    2    1    2    0  502 -0.13416295194E+01 -0.34788537877E+02  0.12819472913E+03  0.21346785962E+03  0.16710055709E+03 0.  0.
        -24    2    5    5    0    0  0.22751606124E+02 -0.68041526057E+02  0.13380218870E+03  0.17175720355E+03  0.80313301652E+02 0.  0.
          5    1    3    3  501    0 -0.33799863232E+02  0.76813107584E+02 -0.72208239531E+02  0.11080976540E+03  0.47000000000E+01 0. -1.
        -13    1    4    4    0    0  0.29480943019E+02  0.99406510998E+01 -0.16201487645E+02  0.35077496312E+02  0.00000000000E+00 0.  1.
         14    1    4    4    0    0  0.56605497315E+01 -0.51965220806E+02 -0.94520528341E+02  0.10801183396E+03  0.00000000000E+00 0. -1.
         -5    1    5    5    0  502 -0.24093235644E+02  0.33252988180E+02 -0.56074595761E+01  0.41710656067E+02  0.47000000000E+01 0.  1.
         13    1    6    6    0    0 -0.13227303482E+02 -0.89023304502E+01  0.86400628414E+02  0.87859442493E+02  0.00000000000E+00 0. -1.
        -14    1    6    6    0    0  0.35978909606E+02 -0.59139195607E+02  0.47401560287E+02  0.83897761061E+02  0.00000000000E+00 0.  1.
</event>
<event>
12    1  0.8747122E-002  0.1765289E+03  0.7818608E-02  0.1171286E+00
         21   -1    0    0  501  502  0.00000000000E+00  0.00000000000E+00  0.21261940414E+03  0.21261940414E+03  0.00000000000E+00 0.  1.
         21   -1    0    0  502  503 -0.00000000000E+00 -0.00000000000E+00 -0.18900485509E+03  0.18900485509E+03  0.00000000000E+00 0.  1.
         -6    2    1    2    0  503  0.40724041950E+02 -0.17445499896E+01 -0.83660088118E+02  0.19505632179E+03  0.17142481524E+03 0.  0.
        -24    2    3    3    0    0  0.86551265982E+02  0.24794091246E+02 -0.73007574502E+02  0.14083455506E+03  0.79989982882E+02 0.  0.
          6    2    1    2  501    0 -0.40724041950E+02  0.17445499896E+01  0.10727463717E+03  0.20656793744E+03  0.17175847563E+03 0.  0.
         24    2    5    5    0    0  0.27176192137E+01 -0.58500280440E+02  0.41496913738E+02  0.10724313481E+03  0.79683297169E+02 0.  0.
          5    1    5    5  501    0 -0.43441661163E+02  0.60244830430E+02  0.65777723430E+02  0.99324802631E+02  0.47000000000E+01 0. -1.
        -11    1    6    6    0    0  0.22516106824E+02 -0.14155004837E+02 -0.16731281693E+02  0.31420932761E+02  0.00000000000E+00 0.  1.
         12    1    6    6    0    0 -0.19798487610E+02 -0.44345275603E+02  0.58228195432E+02  0.75822202047E+02  0.00000000000E+00 0. -1.
         -5    1    3    3    0  503 -0.45827224032E+02 -0.26538641235E+02 -0.10652513615E+02  0.54221766731E+02  0.47000000000E+01 0.  1.
         13    1    4    4    0    0  0.27772746224E+02 -0.48505641568E+01 -0.69396274118E+02  0.74904581081E+02  0.00000000000E+00 0. -1.
        -14    1    4    4    0    0  0.58778519758E+02  0.29644655403E+02 -0.36113003845E+01  0.65929973982E+02  0.00000000000E+00 0.  1.
</event>
<event>
12    1  0.8747122E-002  0.1908393E+03  0.7818608E-02  0.1158591E+00
         21   -1    0    0  501  502  0.00000000000E+00  0.00000000000E+00  0.11609387315E+03  0.11609387315E+03  0.00000000000E+00 0.  1.
         21   -1    0    0  502  503 -0.00000000000E+00 -0.00000000000E+00 -0.38800268568E+03  0.38800268568E+03  0.00000000000E+00 0. -1.
         -6    2    1    2    0  503 -0.27095176374E+02 -0.71114078216E+02 -0.24976888611E+03  0.31197725884E+03  0.17074528649E+03 0.  0.
        -24    2    3    3    0    0 -0.68011067587E+02 -0.69538003580E+01 -0.98369951457E+02  0.14246507986E+03  0.77108955218E+02 0.  0.
          6    2    1    2  501    0  0.27095176374E+02  0.71114078216E+02 -0.22139926423E+02  0.19211929999E+03  0.17500939513E+03 0.  0.
         24    2    5    5    0    0  0.37635535989E+02 -0.15497938320E+02  0.36980471901E+02  0.86620237969E+02  0.66924514660E+02 0.  0.
          5    1    5    5  501    0 -0.10540359615E+02  0.86612016536E+02 -0.59120398324E+02  0.10549906202E+03  0.47000000000E+01 0. -1.
        -11    1    6    6    0    0  0.48854119090E+02  0.96686896967E+01  0.30204810223E+02  0.58245506892E+02  0.00000000000E+00 0.  1.
         12    1    6    6    0    0 -0.11218583101E+02 -0.25166628016E+02  0.67756616786E+01  0.28374731077E+02  0.00000000000E+00 0. -1.
         -5    1    3    3    0  503  0.40915891214E+02 -0.64160277858E+02 -0.15139893465E+03  0.16951217898E+03  0.47000000000E+01 0.  1.
         11    1    4    4    0    0 -0.75743388876E+02  0.16347665224E+00 -0.10542058308E+03  0.12980981096E+03  0.00000000000E+00 0. -1.
        -12    1    4    4    0    0  0.77323212888E+01 -0.71172770103E+01  0.70506316268E+01  0.12655268898E+02  0.00000000000E+00 0.  1.
</event>
<event>
12    1  0.8747122E-002  0.2146462E+03  0.7818608E-02  0.1140901E+00
         21   -1    0    0  501  502  0.00000000000E+00  0.00000000000E+00  0.66398827990E+02  0.66398827990E+02  0.00000000000E+00 0. -1.
         21   -1    0    0  502  503 -0.00000000000E+00 -0.00000000000E+00 -0.99513124816E+03  0.99513124816E+03  0.00000000000E+00 0. -1.
         -6    2    1    2    0  503  0.36303591338E+02  0.93916553550E+02 -0.78904217470E+03  0.81771666075E+03  0.18956453793E+03 0.  0.
        -24    2    3    3    0    0  0.45243216918E+02  0.12785686414E+03 -0.44480058827E+03  0.47165854219E+03  0.78866283773E+02 0.  0.
          6    2    1    2  501    0 -0.36303591338E+02 -0.93916553550E+02 -0.13969024546E+03  0.24381341539E+03  0.17260749426E+03 0.  0.
         24    2    5    5    0    0 -0.31352471352E+02 -0.11923306792E+02 -0.79455438534E+01  0.88487427531E+02  0.81496935275E+02 0.  0.
          5    1    5    5  501    0 -0.49511199866E+01 -0.81993246757E+02 -0.13174470161E+03  0.15532598786E+03  0.47000000000E+01 0. -1.
        -13    1    6    6    0    0 -0.25774908126E+02  0.32278631310E+02 -0.13802010191E+02  0.43551709650E+02  0.00000000000E+00 0.  1.
         14    1    6    6    0    0 -0.55775632257E+01 -0.44201938102E+02  0.58564663377E+01  0.44935717881E+02  0.00000000000E+00 0. -1.
         -5    1    3    3    0  503 -0.89396255800E+01 -0.33940310595E+02 -0.34424158644E+03  0.34605811856E+03  0.47000000000E+01 0.  1.
         13    1    4    4    0    0 -0.86041704034E+01 -0.37644408282E+01 -0.72780426349E+02  0.73383875767E+02  0.00000000000E+00 0. -1.
        -14    1    4    4    0    0  0.53847387322E+02  0.13162130497E+03 -0.37202016192E+03  0.39827466643E+03  0.00000000000E+00 0.  1.
</event>
<event>
12    1  0.8747122E-002  0.3109792E+03  0.7818608E-02  0.1079890E+00
         21   -1    0    0  501  502  0.00000000000E+00  0.00000000000E+00  0.89646140576E+02  0.89646140576E+02  0.00000000000E+00 0. -1.
         21   -1    0    0  502  503 -0.00000000000E+00 -0.00000000000E+00 -0.13001365694E+04  0.13001365694E+04  0.00000000000E+00 0.  1.
         -6    2    1    2    0  503 -0.74256796811E+02 -0.24804967620E+03 -0.89212735409E+03  0.94473987002E+03  0.17204503000E+03 0.  0.
        -24    2    3    3    0    0 -0.11684941382E+03 -0.18603641988E+03 -0.62242357991E+03  0.66470060350E+03  0.78437519318E+02 0.  0.
          6    2    1    2  501    0  0.74256796811E+02  0.24804967620E+03 -0.31836307475E+03  0.44504283998E+03  0.17223637338E+03 0.  0.
         24    2    5    5    0    0  0.88047500952E+02  0.24290115077E+03 -0.32922540905E+03  0.42615445357E+03  0.80404706718E+02 0.  0.
          5    1    5    5  501    0 -0.13790704141E+02  0.51485254276E+01  0.10862334298E+02  0.18888386410E+02  0.47000000000E+01 0. -1.
        -11    1    6    6    0    0  0.68328838578E+02  0.17503123458E+03 -0.28935171296E+03  0.34500605365E+03  0.00000000000E+00 0.  1.
         12    1    6    6    0    0  0.19718662373E+02  0.67869916192E+02 -0.39873696084E+02  0.81148399918E+02  0.00000000000E+00 0. -1.
         -5    1    3    3    0  503  0.42592617007E+02 -0.62013256314E+02 -0.26970377418E+03  0.28003926651E+03  0.47000000000E+01 0.  1.
         13    1    4    4    0    0  0.26569491520E+01 -0.53945250084E+01 -0.37859864462E+00  0.60252481938E+01  0.00000000000E+00 0. -1.
        -14    1    4    4    0    0 -0.11950636297E+03 -0.18064189487E+03 -0.62204498127E+03  0.65867535531E+03  0.00000000000E+00 0.  1.
</event>
<event>
12    1  0.8747122E-002  0.3312083E+03  0.7818608E-02  0.1070668E+00
         21   -1    0    0  503  502  0.00000000000E+00  0.00000000000E+00  0.10355199115E+04  0.10355199115E+04  0.00000000000E+00 0.  1.
         21   -1    0    0  501  503 -0.00000000000E+00 -0.00000000000E+00 -0.11501179601E+03  0.11501179601E+03  0.00000000000E+00 0. -1.
          6    2    1    2  501    0 -0.27788046938E+03 -0.48917621688E+02  0.62387162782E+03  0.70633897479E+03  0.17346022695E+03 0.  0.
         24    2    3    3    0    0 -0.17262445501E+03  0.36546574776E+02  0.32789186868E+03  0.38074864131E+03  0.79508463164E+02 0.  0.
         -6    2    1    2    0  502  0.27788046938E+03  0.48917621688E+02  0.29663648765E+03  0.44419273271E+03  0.17234700174E+03 0.  0.
        -24    2    5    5    0    0  0.12908835904E+03 -0.28628432924E+02  0.86294340841E+02  0.17508607837E+03  0.75663927772E+02 0.  0.
          5    1    3    3  501    0 -0.10525601437E+03 -0.85464196464E+02  0.29597975914E+03  0.32559033348E+03  0.47000000000E+01 0. -1.
        -11    1    4    4    0    0  0.26693578370E+01  0.10697522905E+02  0.49789620153E+02  0.50995771811E+02  0.00000000000E+00 0.  1.
         12    1    4    4    0    0 -0.17529381284E+03  0.25849051871E+02  0.27810224853E+03  0.32975286950E+03  0.00000000000E+00 0. -1.
         -5    1    5    5    0  502  0.14879211034E+03  0.77546054613E+02  0.21034214681E+03  0.26910665434E+03  0.47000000000E+01 0.  1.
         13    1    6    6    0    0 -0.69720094724E+01  0.46110573692E+01  0.16726476252E+02  0.18698817448E+02  0.00000000000E+00 0. -1.
        -14    1    6    6    0    0  0.13606036851E+03 -0.33239490294E+02  0.69567864589E+02  0.15638726092E+03  0.00000000000E+00 0.  1.
</event>
<event>
12    1  0.8747122E-002  0.1765241E+03  0.7818608E-02  0.1171518E+00
         21   -1    0    0  501  502  0.00000000000E+00  0.00000000000E+00  0.44113415464E+03  0.44113415464E+03  0.00000000000E+00 0.  1.
         21   -1    0    0  502  503 -0.00000000000E+00 -0.00000000000E+00 -0.70406357648E+02  0.70406357648E+02  0.00000000000E+00 0.  1.
         -6    2    1    2    0  503 -0.45791218886E+02  0.18919344611E+02  0.17041621500E+03  0.24536183201E+03  0.16942834753E+03 0.  0.
        -24    2    3    3    0    0 -0.55364553804E+02  0.70559282994E+02  0.14050135475E+03  0.18473740755E+03  0.79645670491E+02 0.  0.
          6    2    1    2  501    0  0.45791218886E+02 -0.18919344611E+02  0.20031158200E+03  0.26617868028E+03  0.16814155532E+03 0.  0.
         24    2    5    5    0    0  0.15571643278E+02  0.27858300746E+02  0.36777151637E+02  0.93358048501E+02  0.79653030969E+02 0.  0.
          5    1    5    5  501    0  0.30219575608E+02 -0.46777645357E+02  0.16353443036E+03  0.17282063178E+03  0.47000000000E+01 0. -1.
        -13    1    6    6    0    0  0.38913706890E+02  0.40285309225E+02  0.36609324365E+02  0.66913566291E+02  0.00000000000E+00 0.  1.
         14    1    6    6    0    0 -0.23342063612E+02 -0.12427008478E+02  0.16782727174E+00  0.26444482210E+02  0.00000000000E+00 0. -1.
         -5    1    3    3    0  503  0.95733349180E+01 -0.51639938384E+02  0.29914860256E+02  0.60624424466E+02  0.47000000000E+01 0.  1.
         13    1    4    4    0    0 -0.28726323661E+01  0.60807698362E+02  0.10246354064E+03  0.11918307496E+03  0.00000000000E+00 0. -1.
        -14    1    4    4    0    0 -0.52491921438E+02  0.97515846319E+01  0.38037814108E+02  0.65554332589E+02  0.00000000000E+00 0.  1.
</event>
<event>
12    1  0.8747122E-002  0.1934287E+03  0.7818608E-02  0.1155692E+00
         21   -1    0    0  503  502  0.00000000000E+00  0.00000000000E+00  0.21905178702E+03  0.21905178702E+03  0.00000000000E+00 0. -1.
         21   -1    0    0  501  503 -0.00000000000E+00 -0.00000000000E+00 -0.21444295494E+03  0.21444295494E+03  0.00000000000E+00 0. -1.
          6    2    1    2  501    0 -0.85276030220E+02  0.11209965716E+02 -0.96755423785E+02  0.21511577743E+03  0.17180081783E+03 0.  0.
         24    2    3    3    0    0 -0.21327983717E+02  0.57696101552E+02 -0.89352742617E+02  0.13557205886E+03  0.81315112407E+02 0.  0.
         -6    2    1    2    0  502  0.85276030220E+02 -0.11209965716E+02  0.10136425587E+03  0.21837896452E+03  0.17325413449E+03 0.  0.
        -24    2    5    5    0    0  0.59618466388E+02 -0.34748261913E+02 -0.17080167286E+02  0.94833291403E+02  0.62767967972E+02 0.  0.
          5    1    3    3  501    0 -0.63948046502E+02 -0.46486135836E+02 -0.74026811672E+01  0.79543718576E+02  0.47000000000E+01 0. -1.
        -11    1    4    4    0    0  0.31001379393E+02  0.16580610178E+02 -0.26407919951E+02  0.43970221676E+02  0.00000000000E+00 0.  1.
         12    1    4    4    0    0 -0.52329363110E+02  0.41115491375E+02 -0.62944822666E+02  0.91601837181E+02  0.00000000000E+00 0. -1.
         -5    1    5    5    0  502  0.25657563832E+02  0.23538296197E+02  0.11844442316E+03  0.12354567312E+03  0.47000000000E+01 0.  1.
         11    1    6    6    0    0  0.70402198186E+02 -0.38760458817E+02 -0.92094083633E+01  0.80892866678E+02  0.00000000000E+00 0. -1.
        -12    1    6    6    0    0 -0.10783731798E+02  0.40121969035E+01 -0.78707589231E+01  0.13940424725E+02  0.00000000000E+00 0.  1.
</event>
<event>
12    1  0.8747122E-002  0.1846086E+03  0.7818608E-02  0.1163792E+00
         21   -1    0    0  501  502  0.00000000000E+00  0.00000000000E+00  0.40988817060E+02  0.40988817060E+02  0.00000000000E+00 0.  1.
         21   -1    0    0  502  503 -0.00000000000E+00 -0.00000000000E+00 -0.84198115931E+03  0.84198115931E+03  0.00000000000E+00 0.  1.
         -6    2    1    2    0  503  0.61842551349E+02 -0.16783625726E+01 -0.33816181201E+03  0.38527100627E+03  0.17393395043E+03 0.  0.
        -24    2    3    3    0    0  0.12367008992E+02  0.43948861277E+02 -0.79314261605E+02  0.11777555360E+03  0.74134227005E+02 0.  0.
          6    2    1    2  501    0 -0.61842551349E+02  0.16783625726E+01 -0.46283053024E+03  0.49769897010E+03  0.17223486017E+03 0.  0.
         24    2    5    5    0    0 -0.10127247883E+03 -0.29570331828E+02 -0.28833381504E+03  0.31603336054E+03  0.74901112023E+02 0.  0.
          5    1    5    5  501    0  0.39429927480E+02  0.31248694401E+02 -0.17449671520E+03  0.18166560956E+03  0.47000000000E+01 0. -1.
        -13    1    6    6    0    0 -0.79937672074E+02 -0.54287726337E+02 -0.22093189463E+03  0.24113915217E+03  0.00000000000E+00 0.  1.
         14    1    6    6    0    0 -0.21334806755E+02  0.24717394509E+02 -0.67401920415E+02  0.74894208362E+02  0.00000000000E+00 0. -1.
         -5    1    3    3    0  503  0.49475542357E+02 -0.45627223850E+02 -0.25884755041E+03  0.26749545267E+03  0.47000000000E+01 0.  1.
         13    1    4    4    0    0 -0.15816383721E+02  0.54630000851E+02 -0.53764809920E+02  0.78263974936E+02  0.00000000000E+00 0. -1.
        -14    1    4    4    0    0  0.28183392713E+02 -0.10681139574E+02 -0.25549451685E+02  0.39511578668E+02  0.00000000000E+00 0.  1.
</event>
<event>
12    1  0.8747122E-002  0.1788274E+03  0.7818608E-02  0.1169082E+00
         21   -1    0    0  501  502  0.00000000000E+00  0.00000000000E+00  0.41716292531E+03  0.41716292531E+03  0.00000000000E+00 0.  1.
         21   -1    0    0  502  503 -0.00000000000E+00 -0.00000000000E+00 -0.14281891009E+03  0.14281891009E+03  0.00000000000E+00 0.  1.
         -6    2    1    2    0  503 -0.10283002843E+02  0.45186954415E+02 -0.53864226101E+02  0.18621733981E+03  0.17212769038E+03 0.  0.
        -24    2    3    3    0    0 -0.10586574668E+02  0.10068619198E+03 -0.38322124857E+02  0.12839083692E+03  0.69035041329E+02 0.  0.
          6    2    1    2  501    0  0.10283002843E+02 -0.45186954415E+02  0.32820824132E+03  0.37376449559E+03  0.17271840520E+03 0.  0.
         24    2    5    5    0    0  0.56380457665E+02 -0.73725836061E+02  0.24091588915E+03  0.27089813639E+03  0.82043157828E+02 0.  0.
          5    1    5    5  501    0 -0.46097454822E+02  0.28538881646E+02  0.87292352170E+02  0.10286635920E+03  0.47000000000E+01 0. -1.
        -11    1    6    6    0    0  0.68634124197E+02 -0.25920571262E+02  0.16173282768E+03  0.17759511978E+03  0.00000000000E+00 0.  1.
         12    1    6    6    0    0 -0.12253666532E+02 -0.47805264799E+02  0.79183061470E+02  0.93303016616E+02  0.00000000000E+00 0. -1.
         -5    1    3    3    0  503  0.30357182576E+00 -0.55499237566E+02 -0.15542101244E+02  0.57826502897E+02  0.47000000000E+01 0.  1.
         13    1    4    4    0    0  0.11825363968E+02 -0.21715493115E+01  0.68496481412E+01  0.13837360263E+02  0.00000000000E+00 0. -1.
        -14    1    4    4    0    0 -0.22411938637E+02  0.10285774129E+03 -0.45171772998E+02  0.11455347665E+03  0.00000000000E+00 0.  1.
</event>
<event>
12    1  0.8747122E-002  0.2126870E+03  0.7818608E-02  0.1139665E+00
         21   -1    0    0  503  502  0.00000000000E+00  0.00000000000E+00  0.13944880023E+03  0.13944880023E+03  0.00000000000E+00 0.  1.
         21   -1    0    0  501  503 -0.00000000000E+00 -0.00000000000E+00 -0.57430889874E+03  0.57430889874E+03  0.00000000000E+00 0.  1.
          6    2    1    2  501    0  0.10952913739E+03 -0.59974402321E+02 -0.45392764922E+03  0.50128442323E+03  0.17216910692E+03 0.  0.
         24    2    3    3    0    0  0.60274448089E+02 -0.28987242468E+02 -0.10496458427E+03  0.14747156423E+03  0.79101384238E+02 0.  0.
         -6    2    1    2    0  502 -0.10952913739E+03  0.59974402321E+02  0.19067550714E+02  0.21247327574E+03  0.17084425815E+03 0.  0.
        -24    2    5    5    0    0 -0.73185270512E+02  0.84843465845E+02 -0.36476876356E+02  0.14143370678E+03  0.78220415411E+02 0.  0.
          5    1    3    3  501    0  0.49254689300E+02 -0.30987159853E+02 -0.34896306495E+03  0.35381285900E+03  0.47000000000E+01 0. -1.
        -11    1    4    4    0    0  0.77090571260E+02 -0.32830430548E+02 -0.72910783337E+02  0.11107103886E+03  0.00000000000E+00 0.  1.
         12    1    4    4    0    0 -0.16816123171E+02  0.38431880799E+01 -0.32053800932E+02  0.36400525371E+02  0.00000000000E+00 0. -1.
         -5    1    5    5    0  502 -0.36343866878E+02 -0.24869063525E+02  0.55544427070E+02  0.71039568965E+02  0.47000000000E+01 0.  1.
         11    1    6    6    0    0  0.86603652873E+01  0.18807172419E+02  0.13786330931E+02  0.24875180036E+02  0.00000000000E+00 0. -1.
        -12    1    6    6    0    0 -0.81845635799E+02  0.66036293427E+02 -0.50263207287E+02  0.11655852674E+03  0.00000000000E+00 0.  1.
</event>
<event>
12    1  0.8747122E-002  0.4941915E+03  0.7818608E-02  0.1015349E+00
         21   -1    0    0  501  502  0.00000000000E+00  0.00000000000E+00  0.57888581999E+03  0.57888581999E+03  0.00000000000E+00 0. -1.
         21   -1    0    0  502  503 -0.00000000000E+00 -0.00000000000E+00 -0.59884220579E+03  0.59884220579E+03  0.00000000000E+00 0.  1.
         -6    2    1    2    0  503 -0.39459371169E+03  0.24275530851E+03 -0.33057758144E+03  0.59402367485E+03  0.17014185794E+03 0.  0.
        -24    2    3    3    0    0 -0.17705522741E+03  0.88857081235E+02 -0.73243536017E+02  0.22355025147E+03  0.73252746877E+02 0.  0.
          6    2    1    2  501    0  0.39459371169E+03 -0.24275530851E+03  0.31062119564E+03  0.58370435093E+03  0.17202007152E+03 0.  0.
         24    2    5    5    0    0  0.10315925636E+03 -0.10891592373E+03  0.14031034281E+03  0.22055851348E+03  0.80340244919E+02 0.  0.
          5    1    5    5  501    0  0.29143445532E+03 -0.13383938478E+03  0.17031085282E+03  0.36314583745E+03  0.47000000000E+01 0. -1.
        -13    1    6    6    0    0  0.86705485114E+02 -0.44843812902E+02  0.53179905291E+02  0.11116164371E+03  0.00000000000E+00 0.  1.
         14    1    6    6    0    0  0.16453771250E+02 -0.64072110826E+02  0.87130437522E+02  0.10939686978E+03  0.00000000000E+00 0. -1.
         -5    1    3    3    0  503 -0.21753848428E+03  0.15389822727E+03 -0.25733404542E+03  0.37047342338E+03  0.47000000000E+01 0.  1.
         11    1    4    4    0    0  0.18190033876E+01  0.22557783777E+01  0.82582648885E+01  0.87519282665E+01  0.00000000000E+00 0. -1.
        -12    1    4    4    0    0 -0.17887423080E+03  0.86601302857E+02 -0.81501800905E+02  0.21479832320E+03  0.00000000000E+00 0.  1.
</event>
<event>
12    1  0.8747122E-002  0.1828851E+03  0.7818608E-02  0.1165212E+00
         21   -1    0    0  503  502  0.00000000000E+00  0.00000000000E+00  0.42251076069E+02  0.42251076069E+02  0.00000000000E+00 0.  1.
         21   -1    0    0  501  503 -0.00000000000E+00 -0.00000000000E+00 -0.30942471134E+04  0.30942471134E+04  0.00000000000E+00 0.  1.
          6    2    1    2  501    0  0.35139096389E+02 -0.50755284283E+02 -0.28789938730E+04  0.28847508661E+04  0.17137964638E+03 0.  0.
         24    2    3    3    0    0  0.40945686178E+02 -0.21511844917E+01 -0.26054775144E+04  0.26068491506E+04  0.73947543375E+02 0.  0.
         -6    2    1    2    0  502 -0.35139096389E+02  0.50755284283E+02 -0.17300216425E+03  0.25174732338E+03  0.17215141886E+03 0.  0.
        -24    2    5    5    0    0 -0.11839731666E+02  0.38882104473E+02 -0.19658021881E+03  0.21622483117E+03  0.80357936107E+02 0.  0.
          5    1    3    3  501    0 -0.58065897888E+01 -0.48604099791E+02 -0.27351635864E+03  0.27790171544E+03  0.47000000000E+01 0. -1.
        -13    1    4    4    0    0  0.37390376159E+02 -0.32939303529E+02 -0.19534715834E+04  0.19541070250E+04  0.00000000000E+00 0.  1.
         14    1    4    4    0    0  0.35553100192E+01  0.30788119038E+02 -0.65200593099E+03  0.65274212561E+03  0.00000000000E+00 0. -1.
         -5    1    5    5    0  502 -0.23299364723E+02  0.11873179810E+02  0.23578054561E+02  0.35522492201E+02  0.47000000000E+01 0.  1.
         11    1    6    6    0    0 -0.24012298965E+02  0.60541459946E+02 -0.13822081382E+03  0.15279676779E+03  0.00000000000E+00 0. -1.
        -12    1    6    6    0    0  0.12172567299E+02 -0.21659355472E+02 -0.58359404986E+02  0.63428063383E+02  0.00000000000E+00 0.  1.
</event>
<event>
12    1  0.8747122E-002  0.1794789E+03  0.7818608E-02  0.1169488E+00
         21   -1    0    0  503  502  0.00000000000E+00  0.00000000000E+00  0.18414604737E+03  0.18414604737E+03  0.00000000000E+00 0. -1.
         21   -1    0    0  501  503 -0.00000000000E+00 -0.00000000000E+00 -0.17286550123E+03  0.17286550123E+03  0.00000000000E+00 0. -1.
          6    2    1    2  501    0 -0.15834804588E+02  0.26707337475E+02  0.27473723630E+02  0.18156954262E+03  0.17677293460E+03 0.  0.
         24    2    3    3    0    0  0.10906324656E+02  0.54860524062E+01 -0.51734686017E+02  0.95189608076E+02  0.78965429524E+02 0.  0.
         -6    2    1    2    0  502  0.15834804588E+02 -0.26707337475E+02 -0.16193177490E+02  0.17544200599E+03  0.17191176678E+03 0.  0.
        -24    2    5    5    0    0 -0.38228929569E+02 -0.52564524190E+02 -0.40305068580E+02  0.11067353567E+03  0.79997829246E+02 0.  0.
          5    1    3    3  501    0 -0.26741129244E+02  0.21221285069E+02  0.79208409646E+02  0.86379934545E+02  0.47000000000E+01 0. -1.
        -11    1    4    4    0    0  0.30184882293E+01  0.31131906053E+02 -0.59531654437E+02  0.67248232138E+02  0.00000000000E+00 0.  1.
         12    1    4    4    0    0  0.78878364269E+01 -0.25645853647E+02  0.77969684199E+01  0.27941375938E+02  0.00000000000E+00 0. -1.
         -5    1    5    5    0  502  0.54063734157E+02  0.25857186715E+02  0.24111891090E+02  0.64768470321E+02  0.47000000000E+01 0.  1.
         11    1    6    6    0    0  0.24957593154E+02 -0.17930082880E+02 -0.15873944717E+02  0.34588313763E+02  0.00000000000E+00 0. -1.
        -12    1    6    6    0    0 -0.63186522723E+02 -0.34634441310E+02 -0.24431123863E+02  0.76085221902E+02  0.00000000000E+00 0.  1.
</event>
<event>
12    1  0.8747122E-002  0.2513024E+03  0.7818608E-02  0.1113136E+00
         21   -1    0    0  503  502  0.00000000000E+00  0.00000000000E+00  0.89143073753E+02  0.89143073753E+02  0.00000000000E+00 0. -1.
         21   -1    0    0  501  503 -0.00000000000E+00 -0.00000000000E+00 -0.95249430249E+03  0.95249430249E+03  0.00000000000E+00 0.  1.
          6    2    1    2  501    0 -0.18122837701E+03  0.40488029470E+01 -0.69886060633E+03  0.74128744859E+03  0.16805004290E+03 0.  0.
         24    2    3    3    0    0 -0.14298268826E+03  0.47054501825E+02 -0.34983239724E+03  0.38751491774E+03  0.71602583948E+02 0.  0.
         -6    2    1    2    0  502  0.18122837701E+03 -0.40488029470E+01 -0.16449062240E+03  0.30034992765E+03  0.17404825980E+03 0.  0.
        -24    2    5    5    0    0  0.14097074761E+03  0.30572045797E+02 -0.45804866146E+02  0.17024351493E+03  0.77957468838E+02 0.  0.
          5    1    3    3  501    0 -0.38245688755E+02 -0.43005698878E+02 -0.34902820910E+03  0.35377253086E+03  0.47000000000E+01 0. -1.
        -13    1    4    4    0    0 -0.99936477081E+02  0.23239680185E+02 -0.30178318931E+03  0.31874829496E+03  0.00000000000E+00 0.  1.
         14    1    4    4    0    0 -0.43046211174E+02  0.23814821640E+02 -0.48049207926E+02  0.68766622780E+02  0.00000000000E+00 0. -1.
         -5    1    5    5    0  502  0.40257629406E+02 -0.34620848744E+02 -0.11868575626E+03  0.13010641272E+03  0.47000000000E+01 0.  1.
         13    1    6    6    0    0  0.38368688200E+02  0.46105155941E+02 -0.20969422943E+02  0.63541784182E+02  0.00000000000E+00 0. -1.
        -14    1    6    6    0    0  0.10260205941E+03 -0.15533110143E+02 -0.24835443203E+02  0.10670173075E+03  0.00000000000E+00 0.  1.
</event>
<event>
12    1  0.8747122E-002  0.1970820E+03  0.7818608E-02  0.1152667E+00
         21   -1    0    0  503  502  0.00000000000E+00  0.00000000000E+00  0.18384517504E+03  0.18384517504E+03  0.00000000000E+00 0. -1.
         21   -1    0    0  501  503 -0.00000000000E+00 -0.00000000000E+00 -0.25297575214E+03  0.25297575214E+03  0.00000000000E+00 0.  1.
          6    2    1    2  501    0 -0.21837223942E+02  0.92685180985E+02 -0.12539027400E+03  0.23186613361E+03  0.17021097490E+03 0.  0.
         24    2    3    3    0    0 -0.68548244837E+02  0.23673473924E+02 -0.95546475437E+02  0.14322484809E+03  0.78261950557E+02 0.  0.
         -6    2    1    2    0  502  0.21837223942E+02 -0.92685180985E+02  0.56259696908E+02  0.20495479357E+03  0.17255117151E+03 0.  0.
        -24    2    5    5    0    0  0.65245019762E+02  0.93551565540E+01  0.31442729340E+02  0.91225118015E+02  0.54671248117E+02 0.  0.
          5    1    3    3  501    0  0.46711020895E+02  0.69011707061E+02 -0.29843798567E+02  0.88641285513E+02  0.47000000000E+01 0. -1.
        -11    1    4    4    0    0 -0.26594487982E+02 -0.27263208670E+02 -0.50812407684E+02  0.63501575671E+02  0.00000000000E+00 0.  1.
         12    1    4    4    0    0 -0.41953756855E+02  0.50936682595E+02 -0.44734067753E+02  0.79723272422E+02  0.00000000000E+00 0. -1.
         -5    1    5    5    0  502 -0.43407795820E+02 -0.10204033754E+03  0.24816967568E+02  0.11372967556E+03  0.47000000000E+01 0.  1.
         13    1    6    6    0    0  0.22188130232E+02 -0.20081942837E+02 -0.74338470851E+00  0.29935767438E+02  0.00000000000E+00 0. -1.
        -14    1    6    6    0    0  0.43056889530E+02  0.29437099391E+02  0.32186114049E+02  0.61289350577E+02  0.00000000000E+00 0.  1.
</event>
<event>
12    1  0.8747122E-002  0.1899885E+03  0.7818608E-02  0.1158605E+00
         21   -1    0    0  501  502  0.00000000000E+00  0.00000000000E+00  0.10485545195E+04  0.10485545195E+04  0.00000000000E+00 0.  1.
         21   -1    0    0  502  503 -0.00000000000E+00 -0.00000000000E+00 -0.48021806533E+02  0.48021806533E+02  0.00000000000E+00 0.  1.
         -6    2    1    2    0  503 -0.75876021542E+02  0.19662850644E+02  0.20792293845E+03  0.28165151786E+03  0.17306597250E+03 0.  0.
        -24    2    3    3    0    0  0.24472873913E+01 -0.31689576289E+02  0.59856589008E+02  0.10638786986E+03  0.82008226075E+02 0.  0.
          6    2    1    2  501    0  0.75876021542E+02 -0.19662850644E+02  0.79260977454E+03  0.81492480820E+03  0.17241922740E+03 0.  0.
         24    2    5    5    0    0  0.48486103589E+01 -0.53284297858E+01  0.17868631783E+03  0.19672219621E+03  0.81969025354E+02 0.  0.
          5    1    5    5  501    0  0.71027411183E+02 -0.14334420858E+02  0.61392345672E+03  0.61820261199E+03  0.47000000000E+01 0. -1.
        -11    1    6    6    0    0  0.27656622070E+02  0.65183078968E+01  0.16533716671E+03  0.16776100792E+03  0.00000000000E+00 0.  1.
         12    1    6    6    0    0 -0.22808011711E+02 -0.11846737683E+02  0.13349151121E+02  0.28961188297E+02  0.00000000000E+00 0. -1.
         -5    1    3    3    0  503 -0.78323308933E+02  0.51352426933E+02  0.14806634944E+03  0.17526364800E+03  0.47000000000E+01 0.  1.
         11    1    4    4    0    0 -0.14769975965E+02 -0.41093179425E+02  0.28362803183E+00  0.43667860379E+02  0.00000000000E+00 0. -1.
        -12    1    4    4    0    0  0.17217263356E+02  0.94036031354E+01  0.59572960976E+02  0.62720009477E+02  0.00000000000E+00 0.  1.
</event>
<event>
12    1  0.8747122E-002  0.1805659E+03  0.7818608E-02  0.1167403E+00
         21   -1    0    0  501  502  0.00000000000E+00  0.00000000000E+00  0.23903790805E+03  0.23903790805E+03  0.00000000000E+00 0. -1.
         21   -1    0    0  502  503 -0.00000000000E+00 -0.00000000000E+00 -0.25525383217E+03  0.25525383217E+03  0.00000000000E+00 0. -1.
         -6    2    1    2    0  503 -0.18012756916E+02  0.54108559915E+02 -0.17708812050E+03  0.25291156039E+03  0.17132384331E+03 0.  0.
        -24    2    3    3    0    0 -0.34048310926E+02  0.79721684710E+02 -0.18712400746E+03  0.22072491438E+03  0.78671844829E+02 0.  0.
          6    2    1    2  501    0  0.18012756916E+02 -0.54108559915E+02  0.16087219637E+03  0.24138017983E+03  0.17068196150E+03 0.  0.
         24    2    5    5    0    0 -0.80262845538E+01  0.17119374330E+02  0.22606504016E+02  0.83611545491E+02  0.78245397912E+02 0.  0.
          5    1    5    5  501    0  0.26039041470E+02 -0.71227934245E+02  0.13826569236E+03  0.15776863434E+03  0.47000000000E+01 0. -1.
        -13    1    6    6    0    0  0.32962323060E+02  0.21307176102E+02  0.12443583550E+02  0.41174667776E+02  0.00000000000E+00 0.  1.
         14    1    6    6    0    0 -0.40988607613E+02 -0.41878017723E+01  0.10162920466E+02  0.42436877715E+02  0.00000000000E+00 0. -1.
         -5    1    3    3    0  503  0.16035554010E+02 -0.25613124795E+02  0.10035886964E+02  0.32186646009E+02  0.47000000000E+01 0.  1.
         11    1    4    4    0    0 -0.26896296694E+02  0.15577059696E+02 -0.13272450238E+03  0.13631525629E+03  0.00000000000E+00 0. -1.
        -12    1    4    4    0    0 -0.71520142322E+01  0.64144625015E+02 -0.54399505081E+02  0.84409658090E+02  0.00000000000E+00 0.  1.
</event>
<event>
12    1  0.8747122E-002  0.2881805E+03  0.7818608E-02  0.1091450E+00
         21   -1    0    0  503  502  0.00000000000E+00  0.00000000000E+00  0.33650009196E+03  0.33650009196E+03  0.00000000000E+00 0. -1.
         21   -1    0    0  501  503 -0.00000000000E+00 -0.00000000000E+00 -0.27750339832E+03  0.27750339832E+03  0.00000000000E+00 0.  1.
          6    2    1    2  501    0 -0.77586016389E+02 -0.21639518896E+03  0.13323898150E+03  0.31749114761E+03  0.17378588803E+03 0.  0.
         24    2    3    3    0    0 -0.33775403231E+01 -0.39991540472E+02  0.79038695334E+02  0.11853158856E+03  0.78688569931E+02 0.  0.
         -6    2    1    2    0  502  0.77586016389E+02  0.21639518896E+03 -0.74242287863E+02  0.29651234266E+03  0.17193366250E+03 0.  0.
        -24    2    5    5    0    0  0.11720079730E+03  0.17003665095E+03 -0.35162391073E+02  0.22393291551E+03  0.79126906610E+02 0.  0.
          5    1    3    3  501    0 -0.74208476066E+02 -0.17640364849E+03  0.54200286166E+02  0.19895955906E+03  0.47000000000E+01 0. -1.
        -13    1    4    4    0    0 -0.75230507382E+01  0.68657160438E+01 -0.12192580781E+02  0.15886893193E+02  0.00000000000E+00 0.  1.
         14    1    4    4    0    0  0.41455104150E+01 -0.46857256516E+02  0.91231276115E+02  0.10264469536E+03  0.00000000000E+00 0. -1.
         -5    1    5    5    0  502 -0.39614780907E+02  0.46358538011E+02 -0.39079896790E+02  0.72579427153E+02  0.47000000000E+01 0.  1.
         11    1    6    6    0    0  0.12346692911E+03  0.12535552890E+03 -0.30517870311E+02  0.17857612275E+03  0.00000000000E+00 0. -1.
        -12    1    6    6    0    0 -0.62661318183E+01  0.44681122053E+02 -0.46445207616E+01  0.45356792754E+02  0.00000000000E+00 0.  1.
</event>
<event>
12    1  0.8747122E-002  0.2262483E+03  0.7818608E-02  0.1129779E+00
         21   -1    0    0  501  502  0.00000000000E+00  0.00000000000E+00  0.13506217245E+03  0.13506217245E+03  0.00000000000E+00 0. -1.
         21   -1    0    0  502  503 -0.00000000000E+00 -0.00000000000E+00 -0.41942246995E+03  0.41942246995E+03  0.00000000000E+00 0. -1.
         -6    2    1    2    0  503 -0.96710003871E+02 -0.10523591536E+03 -0.23348706254E+03  0.32512230550E+03  0.17538780580E+03 0.  0.
        -24    2    3    3    0    0 -0.20591933145E+02 -0.71288835420E+01 -0.16337689395E+03  0.18244618232E+03  0.78228839152E+02 0.  0.
          6    2    1    2  501    0  0.96710003871E+02  0.10523591536E+03 -0.50873234952E+02  0.22936233690E+03  0.17202201262E+03 0.  0.
         24    2    5    5    0    0 -0.77814953340E+01  0.15397984871E+02 -0.17743905231E+02  0.87556238132E+02  0.83985707446E+02 0.  0.
          5    1    5    5  501    0  0.10449149920E+03  0.89837930493E+02 -0.33129329721E+02  0.14180609877E+03  0.47000000000E+01 0. -1.
        -13    1    6    6    0    0  0.68704818552E+01  0.19352707610E+02  0.30619001988E+02  0.36868063355E+02  0.00000000000E+00 0.  1.
         14    1    6    6    0    0 -0.14651977189E+02 -0.39547227393E+01 -0.48362907219E+02  0.50688174777E+02  0.00000000000E+00 0. -1.
         -5    1    3    3    0  503 -0.76118070726E+02 -0.98107031822E+02 -0.70110168590E+02  0.14267612317E+03  0.47000000000E+01 0.  1.
         11    1    4    4    0    0 -0.33456318849E+02 -0.57676245368E+01 -0.16583847973E+03  0.16927785479E+03  0.00000000000E+00 0. -1.
        -12    1    4    4    0    0  0.12864385704E+02 -0.13612590053E+01  0.24615857707E+01  0.13168327537E+02  0.00000000000E+00 0.  1.
</event>
<event>
12    1  0.8747122E-002  0.1916795E+03  0.7818608E-02  0.1157617E+00
         21   -1    0    0  501  502  0.00000000000E+00  0.00000000000E+00  0.50925465278E+03  0.50925465278E+03  0.00000000000E+00 0. -1.
         21   -1    0    0  502  503 -0.00000000000E+00 -0.00000000000E+00 -0.59817006070E+03  0.59817006070E+03  0.00000000000E+00 0. -1.
         -6    2    1    2    0  503 -0.49596194094E+02  0.62820634261E+02 -0.56428848621E+03  0.59595514744E+03  0.17416896261E+03 0.  0.
        -24    2    3    3    0    0 -0.10648029715E+02  0.82778733139E+02 -0.22111342404E+03  0.24996887818E+03  0.81410039755E+02 0.  0.
          6    2    1    2  501    0  0.49596194094E+02 -0.62820634261E+02  0.47537307829E+03  0.51146956604E+03  0.17092495098E+03 0.  0.
         24    2    5    5    0    0  0.51845759428E+02 -0.54768772473E+02  0.15159884153E+03  0.18755331234E+03  0.80662475837E+02 0.  0.
          5    1    5    5  501    0 -0.22495653343E+01 -0.80518617875E+01  0.32377423675E+03  0.32391625370E+03  0.47000000000E+01 0. -1.
        -11    1    6    6    0    0 -0.13462671775E+02 -0.41702835798E+02  0.60708767819E+02  0.74872722235E+02  0.00000000000E+00 0.  1.
         12    1    6    6    0    0  0.65308431203E+02 -0.13065936676E+02  0.90890073714E+02  0.11268059011E+03  0.00000000000E+00 0. -1.
         -5    1    3    3    0  503 -0.38948164378E+02 -0.19958098878E+02 -0.34317506217E+03  0.34598626926E+03  0.47000000000E+01 0.  1.
         11    1    4    4    0    0  0.31044779876E+02  0.44862210306E+02 -0.14745888463E+03  0.15722760231E+03  0.00000000000E+00 0. -1.
        -12    1    4    4    0    0 -0.41692809591E+02  0.37916522834E+02 -0.73654539407E+02  0.92741275874E+02  0.00000000000E+00 0.  1.
</event>
<event>
12    1  0.8747122E-002  0.2034579E+03  0.7818608E-02  0.1147658E+00
         21   -1    0    0  501  502  0.00000000000E+00  0.00000000000E+00  0.51577562807E+03  0.51577562807E+03  0.00000000000E+00 0.  1.
         21   -1    0    0  502  503 -0.00000000000E+00 -0.00000000000E+00 -0.87513103208E+02  0.87513103208E+02  0.00000000000E+00 0.  1.
         -6    2    1    2    0  503  0.13886866398E+02  0.10031800126E+03  0.11679590936E+03  0.23125841190E+03  0.17199599471E+03 0.  0.
        -24    2    3    3    0    0 -0.15242125987E+02  0.16294706572E+02  0.11080119810E+03  0.14200350273E+03  0.85966559901E+02 0.  0.
          6    2    1    2  501    0 -0.13886866398E+02 -0.10031800126E+03  0.31146661551E+03  0.37203031938E+03  0.17646121252E+03 0.  0.
         24    2    5    5    0    0  0.54314535149E+02 -0.94737623935E+02  0.18851938022E+03  0.23124436678E+03  0.77518477357E+02 0.  0.
          5    1    5    5  501    0 -0.68201401547E+02 -0.55803773270E+01  0.12294723529E+03  0.14078595260E+03  0.47000000000E+01 0. -1.
        -13    1    6    6    0    0  0.36380001281E+02 -0.10208485299E+03  0.17992651420E+03  0.21004373881E+03  0.00000000000E+00 0.  1.
         14    1    6    6    0    0  0.17934533868E+02  0.73472290502E+01  0.85928660184E+01  0.21200627966E+02  0.00000000000E+00 0. -1.
         -5    1    3    3    0  503  0.29128992385E+02  0.84023294690E+02  0.59947112603E+01  0.89254909171E+02  0.47000000000E+01 0.  1.
         13    1    4    4    0    0  0.33982253366E+01  0.20711913352E+01  0.11753983308E+03  0.11760718570E+03  0.00000000000E+00 0. -1.
        -14    1    4    4    0    0 -0.18640351324E+02  0.14223515237E+02 -0.67386349807E+01  0.24396317029E+02  0.00000000000E+00 0.  1.
</event>
<event>
12    1  0.8747122E-002  0.2004952E+03  0.7818608E-02  0.1149409E+00
         21   -1    0    0  501  502  0.00000000000E+00  0.00000000000E+00  0.13185319464E+03  0.13185319464E+03  0.00000000000E+00 0.  1.
         21   -1    0    0  502  503 -0.00000000000E+00 -0.00000000000E+00 -0.35175432377E+03  0.35175432377E+03  0.00000000000E+00 0. -1.
         -6    2    1    2    0  503  0.94573254640E+02 -0.38649057985E+02 -0.19872138741E+03  0.28199671629E+03  0.17202938124E+03 0.  0.
        -24    2    3    3    0    0 -0.10586917567E+02 -0.26207736992E+02 -0.13158890273E+03  0.15652835859E+03  0.79915952213E+02 0.  0.
          6    2    1    2  501    0 -0.94573254640E+02  0.38649057985E+02 -0.21179741718E+02  0.20161080211E+03  0.17251227172E+03 0.  0.
         24    2    5    5    0    0 -0.84905167376E+02 -0.36493946091E+02 -0.25427948433E+02  0.12558396321E+03  0.81142194365E+02 0.  0.
          5    1    5    5  501    0 -0.96680872638E+01  0.75143004076E+02  0.42482067147E+01  0.76026838901E+02  0.47000000000E+01 0. -1.
        -11    1    6    6    0    0 -0.71440414769E+02 -0.35602598783E+01  0.13558351039E+02  0.72802727941E+02  0.00000000000E+00 0.  1.
         12    1    6    6    0    0 -0.13464752607E+02 -0.32933686213E+02 -0.38986299472E+02  0.52781235272E+02  0.00000000000E+00 0. -1.
         -5    1    3    3    0  503  0.10516017221E+03 -0.12441320993E+02 -0.67132484675E+02  0.12546835771E+03  0.47000000000E+01 0.  1.
         11    1    4    4    0    0  0.91363626163E+01 -0.42513470348E+02 -0.12145426813E+03  0.12900390510E+03  0.00000000000E+00 0. -1.
        -12    1    4    4    0    0 -0.19723280183E+02  0.16305733356E+02 -0.10134634599E+02  0.27524453490E+02  0.00000000000E+00 0.  1.
</event>
<event>
12    1  0.8747122E-002  0.2102537E+03  0.7818608E-02  0.1141870E+00
         21   -1    0    0  501  502  0.00000000000E+00  0.00000000000E+00  0.51758241841E+03  0.51758241841E+03  0.00000000000E+00 0.  1.
         21   -1    0    0  502  503 -0.00000000000E+00 -0.00000000000E+00 -0.84400927548E+02  0.84400927548E+02  0.00000000000E+00 0.  1.
         -6    2    1    2    0  503  0.55588904307E+02  0.10795622220E+03  0.21969504426E+03  0.30234507729E+03  0.16852881385E+03 0.  0.
        -24    2    3    3    0    0  0.26235936669E+02  0.11513291401E+03  0.90038111929E+02  0.16913054461E+03  0.80959046814E+02 0.  0.
          6    2    1    2  501    0 -0.55588904307E+02 -0.10795622220E+03  0.21348644660E+03  0.29963826867E+03  0.17164485712E+03 0.  0.
         24    2    5    5    0    0  0.37071237546E+02 -0.66932985931E+02  0.10793829653E+03  0.15324390476E+03  0.77322165179E+02 0.  0.
          5    1    5    5  501    0 -0.92660141853E+02 -0.41023236264E+02  0.10554815007E+03  0.14639436391E+03  0.47000000000E+01 0. -1.
        -11    1    6    6    0    0 -0.21509758353E+02 -0.21815045571E+02  0.52661079226E+02  0.60924175685E+02  0.00000000000E+00 0.  1.
         12    1    6    6    0    0  0.58580995899E+02 -0.45117940361E+02  0.55277217309E+02  0.92319729074E+02  0.00000000000E+00 0. -1.
         -5    1    3    3    0  503  0.29352967638E+02 -0.71766918107E+01  0.12965693233E+03  0.13321453268E+03  0.47000000000E+01 0.  1.
         11    1    4    4    0    0 -0.27119657163E+02  0.25624932549E+02  0.35571097399E+02  0.51550130387E+02  0.00000000000E+00 0. -1.
        -12    1    4    4    0    0  0.53355593833E+02  0.89507981457E+02  0.54467014530E+02  0.11758041423E+03  0.00000000000E+00 0.  1.
</event>
<event>
12    1  0.8747122E-002  0.2102212E+03  0.7818608E-02  0.1143057E+00
         21   -1    0    0  501  502  0.00000000000E+00  0.00000000000E+00  0.22316226036E+03  0.22316226036E+03  0.00000000000E+00 0.  1.
         21   -1    0    0  502  503 -0.00000000000E+00 -0.00000000000E+00 -0.20465465155E+03  0.20465465155E+03  0.00000000000E+00 0.  1.
         -6    2    1    2    0  503  0.10730768479E+03  0.21435540430E+02  0.65654276016E+02  0.21237375563E+03  0.16975778778E+03 0.  0.
        -24    2    3    3    0    0  0.62866487478E+01 -0.24514579998E+02  0.27676263971E+01  0.84727823492E+02  0.80812485006E+02 0.  0.
          6    2    1    2  501    0 -0.10730768479E+03 -0.21435540430E+02 -0.47146667199E+02  0.21544315628E+03  0.17949519145E+03 0.  0.
         24    2    5    5    0    0 -0.95924130699E+02  0.25163412250E+02  0.24001999914E+02  0.12950555958E+03  0.79755612944E+02 0.  0.
          5    1    5    5  501    0 -0.11383554091E+02 -0.46598952681E+02 -0.71148667113E+02  0.85937596701E+02  0.47000000000E+01 0. -1.
        -11    1    6    6    0    0 -0.49350589810E+02 -0.23411387560E+02 -0.76204357185E+01  0.55151108989E+02  0.00000000000E+00 0.  1.
         12    1    6    6    0    0 -0.46573540889E+02  0.48574799811E+02  0.31622435633E+02  0.74354450592E+02  0.00000000000E+00 0. -1.
         -5    1    3    3    0  503  0.10102103604E+03  0.45950120428E+02  0.62886649619E+02  0.12764593214E+03  0.47000000000E+01 0.  1.
         11    1    4    4    0    0  0.12684379938E+02  0.14280593849E+02 -0.28625950877E+02  0.34413281138E+02  0.00000000000E+00 0. -1.
        -12    1    4    4    0    0 -0.63977311905E+01 -0.38795173847E+02  0.31393577274E+02  0.50314542354E+02  0.00000000000E+00 0.  1.
</event>
<event>
12    1  0.8747122E-002  0.2296215E+03  0.7818608E-02  0.1126994E+00
         21   -1    0    0  501  502  0.00000000000E+00  0.00000000000E+00  0.37968513313E+03  0.37968513313E+03  0.00000000000E+00 0.  1.
         21   -1    0    0  502  503 -0.00000000000E+00 -0.00000000000E+00 -0.29376172647E+03  0.29376172647E+03  0.00000000000E+00 0.  1.
         -6    2    1    2    0  503 -0.25385096963E+02 -0.14915204132E+03 -0.20180549920E+03  0.30532463462E+03  0.17206666854E+03 0.  0.
        -24    2    3    3    0    0 -0.90459326355E+01 -0.22332855820E+01 -0.58879467167E+02  0.99650062274E+02  0.79853157705E+02 0.  0.
          6    2    1    2  501    0  0.25385096963E+02  0.14915204132E+03  0.28772890586E+03  0.36812222497E+03  0.17272902093E+03 0.  0.
         24    2    5    5    0    0  0.34367407661E+02  0.12480126123E+03  0.10920267106E+03  0.18765796560E+03  0.80832018251E+02 0.  0.
          5    1    5    5  501    0 -0.89823106984E+01  0.24350780095E+02  0.17852623480E+03  0.18046425937E+03  0.47000000000E+01 0. -1.
        -11    1    6    6    0    0  0.51038252715E+01  0.94780103432E+02  0.11055625766E+03  0.14571205560E+03  0.00000000000E+00 0.  1.
         12    1    6    6    0    0  0.29263582390E+02  0.30021157795E+02 -0.13535865969E+01  0.41945910007E+02  0.00000000000E+00 0. -1.
         -5    1    3    3    0  503 -0.16339164327E+02 -0.14691875574E+03 -0.14292603203E+03  0.20567457235E+03  0.47000000000E+01 0.  1.
         11    1    4    4    0    0  0.25912736318E+02 -0.27098605508E+02 -0.27204309244E+02  0.46323630745E+02  0.00000000000E+00 0. -1.
        -12    1    4    4    0    0 -0.34958668954E+02  0.24865319926E+02 -0.31675157924E+02  0.53326431528E+02  0.00000000000E+00 0.  1.
</event>
<event>
12    1  0.8747122E-002  0.1830435E+03  0.7818608E-02  0.1165671E+00
         21   -1    0    0  501  502  0.00000000000E+00  0.00000000000E+00  0.14774310113E+03  0.14774310113E+03  0.00000000000E+00 0.  1.
         21   -1    0    0  502  503 -0.00000000000E+00 -0.00000000000E+00 -0.28384484701E+03  0.28384484701E+03  0.00000000000E+00 0.  1.
         -6    2    1    2    0  503  0.39607881117E+01  0.50299036278E+02 -0.16768430545E+03  0.24583974771E+03  0.17254991848E+03 0.  0.
        -24    2    3    3    0    0  0.47543226287E+02 -0.17423595918E+02 -0.63479582300E+02  0.11405773773E+03  0.80097254050E+02 0.  0.
          6    2    1    2  501    0 -0.39607881117E+01 -0.50299036278E+02  0.31582559569E+02  0.18574820042E+03  0.17595242254E+03 0.  0.
         24    2    5    5    0    0  0.38317097791E+02 -0.17786455943E+02  0.74660782071E+02  0.11702912905E+03  0.79605443714E+02 0.  0.
          5    1    5    5  501    0 -0.42277885903E+02 -0.32512580334E+02 -0.43078222502E+02  0.68719071373E+02  0.47000000000E+01 0. -1.
        -13    1    6    6    0    0  0.90566764150E+01 -0.46505848750E+02  0.28505808120E+02  0.55293746954E+02  0.00000000000E+00 0.  1.
         14    1    6    6    0    0  0.29260421376E+02  0.28719392807E+02  0.46154973951E+02  0.61735382097E+02  0.00000000000E+00 0. -1.
         -5    1    3    3    0  503 -0.43582438175E+02  0.67722632196E+02 -0.10420472315E+03  0.13178200998E+03  0.47000000000E+01 0.  1.
         13    1    4    4    0    0 -0.21489350028E+02 -0.12582909415E+02 -0.11082894911E+02  0.27257151971E+02  0.00000000000E+00 0. -1.
        -14    1    4    4    0    0  0.69032576315E+02 -0.48406865033E+01 -0.52396687388E+02  0.86800585757E+02  0.00000000000E+00 0.  1.
</event>
<event>
12    1  0.8747122E-002  0.2793047E+03  0.7818608E-02  0.1096423E+00
         21   -1    0    0  501  502  0.00000000000E+00  0.00000000000E+00  0.19402693518E+03  0.19402693518E+03  0.00000000000E+00 0. -1.
         21   -1    0    0  502  503 -0.00000000000E+00 -0.00000000000E+00 -0.41594188384E+03  0.41594188384E+03  0.00000000000E+00 0. -1.
         -6    2    1    2    0  503  0.64228151980E+02  0.20734997066E+03 -0.47781654643E+02  0.28082825530E+03  0.17164543866E+03 0.  0.
        -24    2    3    3    0    0  0.27657435518E+02  0.10230124008E+03  0.40812333675E+02  0.13854811661E+03  0.79369116002E+02 0.  0.
          6    2    1    2  501    0 -0.64228151980E+02 -0.20734997066E+03 -0.17413329401E+03  0.32914056372E+03  0.17576074864E+03 0.  0.
         24    2    5    5    0    0 -0.66881049721E+02 -0.14154516057E+03 -0.19214200168E+03  0.26070289536E+03  0.80866207704E+02 0.  0.
          5    1    5    5  501    0  0.26528977414E+01 -0.65804810097E+02  0.18008707671E+02  0.68437668358E+02  0.47000000000E+01 0. -1.
        -11    1    6    6    0    0 -0.52855611870E+02 -0.24684923565E+02 -0.69097014233E+02  0.90429301299E+02  0.00000000000E+00 0.  1.
         12    1    6    6    0    0 -0.14025437851E+02 -0.11686023700E+03 -0.12304498745E+03  0.17027359406E+03  0.00000000000E+00 0. -1.
         -5    1    3    3    0  503  0.36570716462E+02  0.10504873059E+03 -0.88593988318E+02  0.14228013869E+03  0.47000000000E+01 0.  1.
         11    1    4    4    0    0  0.46416226823E+02  0.99620952414E+02  0.22473321395E+02  0.11217776271E+03  0.00000000000E+00 0. -1.
        -12    1    4    4    0    0 -0.18758791306E+02  0.26802876621E+01  0.18339012280E+02  0.26370353896E+02  0.00000000000E+00 0.  1.
</event>
<event>
12    1  0.8747122E-002  0.1795153E+03  0.7818608E-02  0.1168395E+00
         21   -1    0    0  501  502  0.00000000000E+00  0.00000000000E+00  0.31138382299E+03  0.31138382299E+03  0.00000000000E+00 0. -1.
         21   -1    0    0  502  503 -0.00000000000E+00 -0.00000000000E+00 -0.16724967503E+03  0.16724967503E+03  0.00000000000E+00 0. -1.
         -6    2    1    2    0  503  0.48152613219E+02 -0.21644657170E+02 -0.76090234992E+02  0.19451289955E+03  0.17105080791E+03 0.  0.
        -24    2    3    3    0    0  0.18954996181E+01 -0.73254566240E+02 -0.53457247173E+02  0.12145370841E+03  0.80768196812E+02 0.  0.
          6    2    1    2  501    0 -0.48152613219E+02  0.21644657170E+02  0.22022438296E+03  0.28412059847E+03  0.17157671836E+03 0.  0.
         24    2    5    5    0    0  0.27473849937E+02 -0.20091151961E+02  0.85769676640E+02  0.12424127603E+03  0.83192490172E+02 0.  0.
          5    1    5    5  501    0 -0.75626463155E+02  0.41735809132E+02  0.13445470632E+03  0.15987932244E+03  0.47000000000E+01 0. -1.
        -11    1    6    6    0    0  0.29006738312E+01 -0.49608185908E+02  0.60386477579E+02  0.78204300982E+02  0.00000000000E+00 0.  1.
         12    1    6    6    0    0  0.24573176105E+02  0.29517033947E+02  0.25383199061E+02  0.46036975047E+02  0.00000000000E+00 0. -1.
         -5    1    3    3    0  503  0.46257113601E+02  0.51609909069E+02 -0.22632987818E+02  0.73059191143E+02  0.47000000000E+01 0.  1.
         13    1    4    4    0    0  0.17606580702E+02  0.12190369476E+02 -0.50567558775E+01  0.22003808124E+02  0.00000000000E+00 0. -1.
        -14    1    4    4    0    0 -0.15711081084E+02 -0.85444935715E+02 -0.48400491296E+02  0.99449900281E+02  0.00000000000E+00 0.  1.
</event>
<event>
12    1  0.8747122E-002  0.1774315E+03  0.7818608E-02  0.1170995E+00
         21   -1    0    0  503  502  0.00000000000E+00  0.00000000000E+00  0.60173807183E+02  0.60173807183E+02  0.00000000000E+00 0. -1.
         21   -1    0    0  501  503 -0.00000000000E+00 -0.00000000000E+00 -0.51717045468E+03  0.51717045468E+03  0.00000000000E+00 0. -1.
          6    2    1    2  501    0  0.20124302731E+00 -0.33296756272E+02 -0.24491154917E+03  0.30082657553E+03  0.17148249809E+03 0.  0.
         24    2    3    3    0    0 -0.56098661231E+02  0.95902112031E+01 -0.10316719777E+03  0.14232571638E+03  0.79838004135E+02 0.  0.
         -6    2    1    2    0  502 -0.20124302731E+00  0.33296756272E+02 -0.21208509833E+03  0.27651768634E+03  0.17427916526E+03 0.  0.
        -24    2    5    5    0    0 -0.23951476241E+02 -0.37465658154E+02 -0.10342043677E+03  0.14460297318E+03  0.90757282669E+02 0.  0.
          5    1    3    3  501    0  0.56299904258E+02 -0.42886967475E+02 -0.14174435139E+03  0.15850085915E+03  0.47000000000E+01 0. -1.
        -13    1    4    4    0    0 -0.23774260205E+02 -0.67157626687E+01 -0.10320577851E+03  0.10612139103E+03  0.00000000000E+00 0.  1.
         14    1    4    4    0    0 -0.32324401026E+02  0.16305973872E+02  0.38580737108E-01  0.36204325350E+02  0.00000000000E+00 0. -1.
         -5    1    5    5    0  502  0.23750233214E+02  0.70762414426E+02 -0.10866466157E+03  0.13191471315E+03  0.47000000000E+01 0.  1.
         11    1    6    6    0    0 -0.29399116911E+02 -0.13964537436E+02  0.55300500448E+01  0.33013600749E+02  0.00000000000E+00 0. -1.
        -12    1    6    6    0    0  0.54476406695E+01 -0.23501120718E+02 -0.10895048681E+03  0.11158937243E+03  0.00000000000E+00 0.  1.
</event>
<event>
12    1  0.8747122E-002  0.1724239E+03  0.7818608E-02  0.1175784E+00
         21   -1    0    0  503  502  0.00000000000E+00  0.00000000000E+00  0.28485250335E+03  0.28485250335E+03  0.00000000000E+00 0.  1.
         21   -1    0    0  501  503 -0.00000000000E+00 -0.00000000000E+00 -0.57432091263E+03  0.57432091263E+03  0.00000000000E+00 0.  1.
          6    2    1    2  501    0 -0.88685734137E+01  0.34649545209E+01 -0.53388806283E+03  0.56104051641E+03  0.17216079670E+03 0.  0.
         24    2    3    3    0    0 -0.29173128030E+02 -0.42276614860E+01 -0.53180676352E+03  0.53872744656E+03  0.80869545789E+02 0.  0.
         -6    2    1    2    0  502  0.88685734137E+01 -0.34649545209E+01  0.24441965355E+03  0.29813289956E+03  0.17044530283E+03 0.  0.
        -24    2    5    5    0    0  0.15364245398E+02 -0.12816866613E+01  0.40371515408E+02  0.93915630234E+02  0.83382153897E+02 0.  0.
          5    1    3    3  501    0  0.20304554616E+02  0.76926160070E+01 -0.20812993076E+01  0.22313069847E+02  0.47000000000E+01 0. -1.
        -11    1    4    4    0    0 -0.15770393663E+02 -0.42075850868E+02 -0.23985335283E+03  0.24402605068E+03  0.00000000000E+00 0.  1.
         12    1    4    4    0    0 -0.13402734367E+02  0.37848189382E+02 -0.29195341069E+03  0.29470139589E+03  0.00000000000E+00 0. -1.
         -5    1    5    5    0  502 -0.64956719838E+01 -0.21832678597E+01  0.20404813814E+03  0.20421726933E+03  0.47000000000E+01 0.  1.
         11    1    6    6    0    0  0.32478865768E+02  0.26070407572E+02 -0.74036154415E+00  0.41654423628E+02  0.00000000000E+00 0. -1.
        -12    1    6    6    0    0 -0.17114620371E+02 -0.27352094233E+02  0.41111876953E+02  0.52261206606E+02  0.00000000000E+00 0.  1.
</event>
<event>
12    1  0.8747122E-002  0.2483880E+03  0.7818608E-02  0.1114782E+00
         21   -1    0    0  501  502  0.00000000000E+00  0.00000000000E+00  0.54550105723E+02  0.54550105723E+02  0.00000000000E+00 0. -1.
         21   -1    0    0  502  503 -0.00000000000E+00 -0.00000000000E+00 -0.13889472395E+04  0.13889472395E+04  0.00000000000E+00 0.  1.
         -6    2    1    2    0  503 -0.48836007405E+02  0.16818355096E+03 -0.98280592517E+03  0.10130174255E+04  0.17212250116E+03 0.  0.
        -24    2    3    3    0    0 -0.72797902127E+02  0.10564318688E+03 -0.42283498885E+03  0.44903603480E+03  0.79899407191E+02 0.  0.
          6    2    1    2  501    0  0.48836007405E+02 -0.16818355096E+03 -0.35159120859E+03  0.43047991969E+03  0.17614176356E+03 0.  0.
         24    2    5    5    0    0  0.72549573171E+02 -0.63905227361E+02 -0.25657800206E+03  0.28735095201E+03  0.85970808014E+02 0.  0.
          5    1    5    5  501    0 -0.23713565766E+02 -0.10427832360E+03 -0.95013206529E+02  0.14312896768E+03  0.47000000000E+01 0. -1.
        -13    1    6    6    0    0  0.81573943950E+01 -0.64395922627E+02 -0.13359313932E+03  0.14852779137E+03  0.00000000000E+00 0.  1.
         14    1    6    6    0    0  0.64392178776E+02  0.49069526533E+00 -0.12298486274E+03  0.13882316065E+03  0.00000000000E+00 0. -1.
         -5    1    3    3    0  503  0.23961894722E+02  0.62540364080E+02 -0.55997093632E+03  0.56398139071E+03  0.47000000000E+01 0.  1.
         13    1    4    4    0    0 -0.30234410242E+00  0.67015739411E+02 -0.15448094344E+03  0.16839110020E+03  0.00000000000E+00 0. -1.
        -14    1    4    4    0    0 -0.72495558024E+02  0.38627447472E+02 -0.26835404541E+03  0.28064493460E+03  0.00000000000E+00 0.  1.
</event>
<event>
12    1  0.8747122E-002  0.1862664E+03  0.7818608E-02  0.1162554E+00
         21   -1    0    0  503  502  0.00000000000E+00  0.00000000000E+00  0.20704069796E+04  0.20704069796E+04  0.00000000000E+00 0.  1.
         21   -1    0    0  501  503 -0.00000000000E+00 -0.00000000000E+00 -0.22399458305E+03  0.22399458305E+03  0.00000000000E+00 0.  1.
          6    2    1    2  501    0 -0.66701228030E+02  0.21682259926E+02 -0.18147910464E+03  0.25797353534E+03  0.16940042886E+03 0.  0.
         24    2    3    3    0    0 -0.95383587298E+02 -0.25529590478E+02 -0.14314221190E+03  0.19056846211E+03  0.77954199419E+02 0.  0.
         -6    2    1    2    0  502  0.66701228030E+02 -0.21682259926E+02  0.20278915012E+04  0.20364280273E+04  0.17255722412E+03 0.  0.
        -24    2    5    5    0    0  0.41504812415E+02 -0.70741929216E+00  0.50951501493E+03  0.51769037803E+03  0.81698391503E+02 0.  0.
          5    1    3    3  501    0  0.28682359268E+02  0.47211850404E+02 -0.38336892737E+02  0.67405073225E+02  0.47000000000E+01 0. -1.
        -13    1    4    4    0    0 -0.96112418829E+02 -0.14235393661E+02 -0.14895743031E+03  0.17784420016E+03  0.00000000000E+00 0.  1.
         14    1    4    4    0    0  0.72883153049E+00 -0.11294196816E+02  0.58152184060E+01  0.12724261952E+02  0.00000000000E+00 0. -1.
         -5    1    5    5    0  502  0.25196415615E+02 -0.20974840634E+02  0.15183764863E+04  0.15187376493E+04  0.47000000000E+01 0.  1.
         13    1    6    6    0    0 -0.23691356363E+02 -0.10942611645E+01  0.86998949834E+02  0.90173693758E+02  0.00000000000E+00 0. -1.
        -14    1    6    6    0    0  0.65196168778E+02  0.38684187231E+00  0.42251606509E+03  0.42751668427E+03  0.00000000000E+00 0.  1.
</event>
<event>
12    1  0.8747122E-002  0.2023902E+03  0.7818608E-02  0.1147947E+00
         21   -1    0    0  503  502  0.00000000000E+00  0.00000000000E+00  0.85482178110E+02  0.85482178110E+02  0.00000000000E+00 0. -1.
         21   -1    0    0  501  503 -0.00000000000E+00 -0.00000000000E+00 -0.15875132450E+04  0.15875132450E+04  0.00000000000E+00 0. -1.
          6    2    1    2  501    0 -0.23553229487E+01 -0.10309878529E+03 -0.14501431140E+04  0.14640596641E+04  0.17297613117E+03 0.  0.
         24    2    3    3    0    0  0.36570010933E+02 -0.68628227739E+02 -0.49426020131E+03  0.50675217239E+03  0.80358062948E+02 0.  0.
         -6    2    1    2    0  502  0.23553229487E+01  0.10309878529E+03 -0.51887952847E+02  0.20893575895E+03  0.17414615884E+03 0.  0.
        -24    2    5    5    0    0 -0.18965903402E+02  0.57618591206E+02 -0.10201303861E+03  0.13781855308E+03  0.70054878355E+02 0.  0.
          5    1    3    3  501    0 -0.38925333881E+02 -0.34470557555E+02 -0.95588291268E+03  0.95730749172E+03  0.47000000000E+01 0. -1.
        -13    1    4    4    0    0  0.30807045805E+02 -0.57013858819E+01 -0.31739653143E+03  0.31893908202E+03  0.00000000000E+00 0.  1.
         14    1    4    4    0    0  0.57629651279E+01 -0.62926841857E+02 -0.17686366988E+03  0.18781309038E+03  0.00000000000E+00 0. -1.
         -5    1    5    5    0  502  0.21321226350E+02  0.45480194088E+02  0.50125085765E+02  0.71117205867E+02  0.47000000000E+01 0.  1.
         13    1    6    6    0    0  0.13744891894E+02  0.53473810616E+02 -0.42100137511E+02  0.69431923878E+02  0.00000000000E+00 0. -1.
        -14    1    6    6    0    0 -0.32710795296E+02  0.41447805899E+01 -0.59912901102E+02  0.68386629201E+02  0.00000000000E+00 0.  1.
</event>
<event>
12    1  0.8747122E-002  0.1795582E+03  0.7818608E-02  0.1168924E+00
         21   -1    0    0  503  502  0.00000000000E+00  0.00000000000E+00  0.12328535271E+04  0.12328535271E+04  0.00000000000E+00 0.  1.
         21   -1    0    0  501  503 -0.00000000000E+00 -0.00000000000E+00 -0.26669355432E+02  0.26669355432E+02  0.00000000000E+00 0.  1.
          6    2    1    2  501    0 -0.11942480111E+02  0.38944806485E+02  0.72520420612E+03  0.74710260358E+03  0.17487663913E+03 0.  0.
         24    2    3    3    0    0 -0.36855116448E+02  0.34446905293E+02  0.71059344606E+03  0.71749796080E+03  0.85530048983E+02 0.  0.
         -6    2    1    2    0  502  0.11942480111E+02 -0.38944806485E+02  0.48097996553E+03  0.51242027894E+03  0.17196945729E+03 0.  0.
        -24    2    5    5    0    0  0.34395625330E+02 -0.77102254080E+02  0.42541086657E+03  0.44121529810E+03  0.81047623364E+02 0.  0.
          5    1    3    3  501    0  0.24912636337E+02  0.44979011916E+01  0.14610760063E+02  0.29604642778E+02  0.47000000000E+01 0. -1.
        -11    1    4    4    0    0  0.18915389588E+02  0.21534914567E+01  0.39145296422E+03  0.39191561934E+03  0.00000000000E+00 0.  1.
         12    1    4    4    0    0 -0.55770506035E+02  0.32293413837E+02  0.31914048185E+03  0.32558234146E+03  0.00000000000E+00 0. -1.
         -5    1    5    5    0  502 -0.22453145220E+02  0.38157447595E+02  0.55569098964E+02  0.71204980843E+02  0.47000000000E+01 0.  1.
         11    1    6    6    0    0  0.19258371294E+02 -0.56818423094E+00  0.23000875377E+03  0.23081428576E+03  0.00000000000E+00 0. -1.
        -12    1    6    6    0    0  0.15137254036E+02 -0.76534069849E+02  0.19540211280E+03  0.21040101234E+03  0.00000000000E+00 0.  1.
</event>
<event>
12    1  0.8747122E-002  0.1804577E+03  0.7818608E-02  0.1167596E+00
         21   -1    0    0  501  502  0.00000000000E+00  0.00000000000E+00  0.91249886591E+02  0.91249886591E+02  0.00000000000E+00 0. -1.
         21   -1    0    0  502  503 -0.00000000000E+00 -0.00000000000E+00 -0.10335507898E+04  0.10335507898E+04  0.00000000000E+00 0. -1.
         -6    2    1    2    0  503 -0.18813831515E+02  0.46954143786E+02 -0.92729287435E+03  0.94468887371E+03  0.17322338592E+03 0.  0.
        -24    2    3    3    0    0  0.39858782107E+02  0.28692731220E+02 -0.76822872466E+03  0.77410326912E+03  0.81538350099E+02 0.  0.
          6    2    1    2  501    0  0.18813831515E+02 -0.46954143786E+02 -0.15008028895E+02  0.18011180271E+03  0.17221024554E+03 0.  0.
         24    2    5    5    0    0  0.39565234893E+02 -0.93296562802E+02 -0.85401996072E+01  0.12870982456E+03  0.78889970752E+02 0.  0.
          5    1    5    5  501    0 -0.20751403378E+02  0.46342419016E+02 -0.64678292879E+01  0.51401978154E+02  0.47000000000E+01 0. -1.
        -13    1    6    6    0    0  0.50489380063E+02 -0.26738805136E+02 -0.19516751130E+02  0.60374206197E+02  0.00000000000E+00 0.  1.
         14    1    6    6    0    0 -0.10924145170E+02 -0.66557757666E+02  0.10976551523E+02  0.68335618359E+02  0.00000000000E+00 0. -1.
         -5    1    3    3    0  503 -0.58672613622E+02  0.18261412566E+02 -0.15906414969E+03  0.17058560459E+03  0.47000000000E+01 0.  1.
         11    1    4    4    0    0  0.51109581452E+02  0.35048083128E+02 -0.33512772764E+03  0.34080955280E+03  0.00000000000E+00 0. -1.
        -12    1    4    4    0    0 -0.11250799345E+02 -0.63553519082E+01 -0.43310099702E+03  0.43329371632E+03  0.00000000000E+00 0.  1.
</event>
<event>
12    1  0.8747122E-002  0.2338169E+03  0.7818608E-02  0.1124007E+00
         21   -1    0    0  501  502  0.00000000000E+00  0.00000000000E+00  0.14596796466E+03  0.14596796466E+03  0.00000000000E+00 0. -1.
         21   -1    0    0  502  503 -0.00000000000E+00 -0.00000000000E+00 -0.37566090164E+03  0.37566090164E+03  0.00000000000E+00 0. -1.
         -6    2    1    2    0  503  0.11420540773E+03 -0.11023740974E+03 -0.13058794147E+03  0.26781252542E+03  0.17168336160E+03 0.  0.
        -24    2    3    3    0    0  0.13374238364E+03 -0.58554592003E+02 -0.13182118979E+03  0.21234705888E+03  0.79992386573E+02 0.  0.
          6    2    1    2  501    0 -0.11420540773E+03  0.11023740974E+03 -0.99104995507E+02  0.25381634089E+03  0.17148111589E+03 0.  0.
         24    2    5    5    0    0  0.51792372415E+01  0.77541094855E+02 -0.54024566319E+02  0.12199799028E+03  0.76976684630E+02 0.  0.
          5    1    5    5  501    0 -0.11938464497E+03  0.32696314883E+02 -0.45080429187E+02  0.13181835061E+03  0.47000000000E+01 0. -1.
        -11    1    6    6    0    0 -0.85164568976E+01 -0.12639938095E+02 -0.18837882853E+02  0.24231465154E+02  0.00000000000E+00 0.  1.
         12    1    6    6    0    0  0.13695694139E+02  0.90181032950E+02 -0.35186683467E+02  0.97766525126E+02  0.00000000000E+00 0. -1.
         -5    1    3    3    0  503 -0.19536975916E+02 -0.51682817735E+02  0.12332483153E+01  0.55465466538E+02  0.47000000000E+01 0.  1.
         11    1    4    4    0    0  0.55418196805E+02 -0.31625109659E+02 -0.93345051322E+01  0.64486099929E+02  0.00000000000E+00 0. -1.
        -12    1    4    4    0    0  0.78324186837E+02 -0.26929482345E+02 -0.12248668466E+03  0.14786095895E+03  0.00000000000E+00 0.  1.
</event>
<event>
12    1  0.8747122E-002  0.1943252E+03  0.7818608E-02  0.1154693E+00
         21   -1    0    0  503  502  0.00000000000E+00  0.00000000000E+00  0.30838124948E+03  0.30838124948E+03  0.00000000000E+00 0.  1.
         21   -1    0    0  501  503 -0.00000000000E+00 -0.00000000000E+00 -0.15872454627E+03  0.15872454627E+03  0.00000000000E+00 0.  1.
          6    2    1    2  501    0  0.85434579594E+02  0.27386003631E+02 -0.37206373521E+02  0.19751336247E+03  0.17198300363E+03 0.  0.
         24    2    3    3    0    0  0.12614014533E+02  0.56218984869E+02  0.21742448170E+02  0.99374536913E+02  0.77992800386E+02 0.  0.
         -6    2    1    2    0  502 -0.85434579594E+02 -0.27386003631E+02  0.18686307673E+03  0.26959243328E+03  0.17237520138E+03 0.  0.
        -24    2    5    5    0    0 -0.90884595102E+02  0.39609216809E+02  0.11286250901E+03  0.16951128494E+03  0.78531713958E+02 0.  0.
          5    1    3    3  501    0  0.72820565061E+02 -0.28832981238E+02 -0.58948821691E+02  0.98138825556E+02  0.47000000000E+01 0. -1.
        -13    1    4    4    0    0  0.31435807638E+02 -0.46066459532E+01  0.15637582181E+02  0.35411370565E+02  0.00000000000E+00 0.  1.
         14    1    4    4    0    0 -0.18821793105E+02  0.60825630822E+02  0.61048659884E+01  0.63963166349E+02  0.00000000000E+00 0. -1.
         -5    1    5    5    0  502  0.54500155085E+01 -0.66995220441E+02  0.74000567714E+02  0.10008114834E+03  0.47000000000E+01 0.  1.
         11    1    6    6    0    0 -0.30078322728E+02  0.55305614593E+02  0.47465862015E+02  0.78844305821E+02  0.00000000000E+00 0. -1.
        -12    1    6    6    0    0 -0.60806272374E+02 -0.15696397783E+02  0.65396646999E+02  0.90666979116E+02  0.00000000000E+00 0.  1.
</event>
<event>
12    1  0.8747122E-002  0.2023249E+03  0.7818608E-02  0.1150753E+00
         21   -1    0    0  503  502  0.00000000000E+00  0.00000000000E+00  0.39573579897E+02  0.39573579897E+02  0.00000000000E+00 0. -1.
         21   -1    0    0  501  503 -0.00000000000E+00 -0.00000000000E+00 -0.98628554913E+03  0.98628554913E+03  0.00000000000E+00 0. -1.
          6    2    1    2  501    0 -0.51743138384E+02  0.51061779038E+02 -0.41506992166E+03  0.46175578084E+03  0.18881393915E+03 0.  0.
         24    2    3    3    0    0 -0.63040635520E+02  0.10538481924E+03 -0.31024256493E+03  0.34305661969E+03  0.79732762171E+02 0.  0.
         -6    2    1    2    0  502  0.51743138384E+02 -0.51061779038E+02 -0.53164204757E+03  0.56410334819E+03  0.17402489203E+03 0.  0.
        -24    2    5    5    0    0  0.56920809698E+02  0.30251453531E+02 -0.35687933326E+03  0.37122321343E+03  0.79301240005E+02 0.  0.
          5    1    3    3  501    0  0.11297497136E+02 -0.54323040201E+02 -0.10482735673E+03  0.11869916115E+03  0.47000000000E+01 0. -1.
        -11    1    4    4    0    0 -0.55425539084E+02  0.46400475033E+02 -0.24185298292E+03  0.25242396838E+03  0.00000000000E+00 0.  1.
         12    1    4    4    0    0 -0.76150964356E+01  0.58984344206E+02 -0.68389582014E+02  0.90632651308E+02  0.00000000000E+00 0. -1.
         -5    1    5    5    0  502 -0.51776713137E+01 -0.81313232569E+02 -0.17476271431E+03  0.19288013476E+03  0.47000000000E+01 0.  1.
         11    1    6    6    0    0 -0.20119021173E+02  0.92762410291E+01 -0.87393369877E+02  0.90157777030E+02  0.00000000000E+00 0. -1.
        -12    1    6    6    0    0  0.77039830870E+02  0.20975212502E+02 -0.26948596338E+03  0.28106543640E+03  0.00000000000E+00 0.  1.
</event>
<event>
12    1  0.8747122E-002  0.2564808E+03  0.7818608E-02  0.1109837E+00
         21   -1    0    0  503  502  0.00000000000E+00  0.00000000000E+00  0.16096144365E+03  0.16096144365E+03  0.00000000000E+00 0.  1.
         21   -1    0    0  501  503 -0.00000000000E+00 -0.00000000000E+00 -0.46228731289E+03  0.46228731289E+03  0.00000000000E+00 0. -1.
          6    2    1    2  501    0 -0.21516951659E+02 -0.18619321777E+03 -0.26141056439E+03  0.36368061949E+03  0.16969742564E+03 0.  0.
         24    2    3    3    0    0 -0.46531809577E+02 -0.62945810585E+02 -0.60494100281E+02  0.12660429835E+03  0.79004606324E+02 0.  0.
         -6    2    1    2    0  502  0.21516951659E+02  0.18619321777E+03 -0.39915304851E+02  0.25956813705E+03  0.17507567694E+03 0.  0.
        -24    2    5    5    0    0  0.37086109007E+02  0.74775064100E+02 -0.79454921567E+02  0.14022881026E+03  0.79902096171E+02 0.  0.
          5    1    3    3  501    0  0.25014857918E+02 -0.12324740719E+03 -0.20091646411E+03  0.23707632114E+03  0.47000000000E+01 0. -1.
        -11    1    4    4    0    0  0.98439606000E+01  0.11550452732E+02 -0.19168536210E+02  0.24448912021E+02  0.00000000000E+00 0.  1.
         12    1    4    4    0    0 -0.56375770177E+02 -0.74496263316E+02 -0.41325564071E+02  0.10215538633E+03  0.00000000000E+00 0. -1.
         -5    1    5    5    0  502 -0.15569157348E+02  0.11141815367E+03  0.39539616716E+02  0.11933932679E+03  0.47000000000E+01 0.  1.
         13    1    6    6    0    0  0.14272290178E+02 -0.15401065518E+02 -0.63949603709E+01  0.21949637905E+02  0.00000000000E+00 0. -1.
        -14    1    6    6    0    0  0.22813818829E+02  0.90176129618E+02 -0.73059961196E+02  0.11827917235E+03  0.00000000000E+00 0.  1.
</event>
<event>
12    1  0.8747122E-002  0.2432358E+03  0.7818608E-02  0.1117710E+00
         21   -1    0    0  503  502  0.00000000000E+00  0.00000000000E+00  0.80134890742E+03  0.80134890742E+03  0.00000000000E+00 0.  1.
         21   -1    0    0  501  503 -0.00000000000E+00 -0.00000000000E+00 -0.74488812513E+02  0.74488812513E+02  0.00000000000E+00 0. -1.
          6    2    1    2  501    0  0.13717191627E+03 -0.10328136255E+03  0.31895546641E+03  0.40091686321E+03  0.17180968304E+03 0.  0.
         24    2    3    3    0    0  0.23113078410E+02 -0.60445668275E+02  0.22358427051E+03  0.24611999565E+03  0.79982704583E+02 0.  0.
         -6    2    1    2    0  502 -0.13717191627E+03  0.10328136255E+03  0.40790462849E+03  0.47492085672E+03  0.17228017803E+03 0.  0.
        -24    2    5    5    0    0 -0.13118772366E+03  0.45247568503E+02  0.37468084708E+03  0.40761824560E+03  0.80680454176E+02 0.  0.
          5    1    3    3  501    0  0.11405883786E+03 -0.42835694272E+02  0.95371195899E+02  0.15479686756E+03  0.47000000000E+01 0. -1.
        -13    1    4    4    0    0  0.90693804690E+01 -0.74698931777E+02  0.20659129728E+03  0.21986847929E+03  0.00000000000E+00 0.  1.
         14    1    4    4    0    0  0.14043697941E+02  0.14253263502E+02  0.16992973230E+02  0.26251516366E+02  0.00000000000E+00 0. -1.
         -5    1    5    5    0  502 -0.59841926107E+01  0.58033794044E+02  0.33223781416E+02  0.67302611123E+02  0.47000000000E+01 0.  1.
         11    1    6    6    0    0  0.96445718656E+01 -0.40244452622E+01  0.36919781943E+02  0.38370356069E+02  0.00000000000E+00 0. -1.
        -12    1    6    6    0    0 -0.14083229552E+03  0.49272013765E+02  0.33776106514E+03  0.36924788953E+03  0.00000000000E+00 0.  1.
</event>
<event>
12    1  0.8747122E-002  0.1827277E+03  0.7818608E-02  0.1165569E+00
         21   -1    0    0  501  502  0.00000000000E+00  0.00000000000E+00  0.76407001701E+03  0.76407001701E+03  0.00000000000E+00 0.  1.
         21   -1    0    0  502  503 -0.00000000000E+00 -0.00000000000E+00 -0.43698632193E+02  0.43698632193E+02  0.00000000000E+00 0.  1.
         -6    2    1    2    0  503  0.30012611036E+02  0.45831248774E+02  0.32410572258E+03  0.37206710965E+03  0.17432198510E+03 0.  0.
        -24    2    3    3    0    0 -0.29484417133E+01 -0.25525422890E+02  0.25048067843E+03  0.26426663324E+03  0.80224950313E+02 0.  0.
          6    2    1    2  501    0 -0.30012611036E+02 -0.45831248774E+02  0.39626566224E+03  0.43570153955E+03  0.17265021376E+03 0.  0.
         24    2    5    5    0    0  0.41455938040E+02 -0.27185669250E+02  0.29902076051E+03  0.31349649851E+03  0.80056130017E+02 0.  0.
          5    1    5    5  501    0 -0.71468549075E+02 -0.18645579524E+02  0.97244901731E+02  0.12220504104E+03  0.47000000000E+01 0. -1.
        -11    1    6    6    0    0 -0.21981031280E+02 -0.11724123522E+02  0.47471192382E+02  0.53610958904E+02  0.00000000000E+00 0.  1.
         12    1    6    6    0    0  0.63436969320E+02 -0.15461545728E+02  0.25154956812E+03  0.25988553961E+03  0.00000000000E+00 0. -1.
         -5    1    3    3    0  503  0.32961052749E+02  0.71356671664E+02  0.73625044144E+02  0.10780047641E+03  0.47000000000E+01 0.  1.
         13    1    4    4    0    0 -0.29031207938E+01  0.54192687561E+01 -0.43708598833E+01  0.75432751716E+01  0.00000000000E+00 0. -1.
        -14    1    4    4    0    0 -0.45320919460E-01 -0.30944691646E+02  0.25485153832E+03  0.25672335807E+03  0.00000000000E+00 0.  1.
</event>
