<event>
12    1  0.1081556E+000  0.6444118E+03  0.7818608E-02  0.9817322E-01
         -1   -1    0    0    0  501 -0.00000000000E+00  0.00000000000E+00  0.22944453770E+03  0.22944453770E+03  0.00000000000E+00 0.  1.
          1   -1    0    0  502    0  0.00000000000E+00 -0.00000000000E+00 -0.18154031574E+04  0.18154031574E+04  0.00000000000E+00 0. -1.
          6    2    1    2  502    0  0.50577883066E+03  0.36094107847E+03 -0.73597825110E+03  0.97790677503E+03  0.16895853601E+03 0.  0.
         24    2    3    3    0    0  0.43342222388E+03  0.29157902541E+03 -0.68529034749E+03  0.86548824220E+03  0.81079496943E+02 0.  0.
         -6    2    1    2    0  501 -0.50577883066E+03 -0.36094107847E+03 -0.84998036862E+03  0.10669409201E+04  0.17264301960E+03 0.  0.
        -24    2    5    5    0    0 -0.42499063282E+03 -0.36017470801E+03 -0.76510012876E+03  0.94966319264E+03  0.78352499282E+02 0.  0.
          5    1    3    3  502    0  0.72356606783E+02  0.69362053066E+02 -0.50687903609E+02  0.11241853283E+03  0.47000000000E+01 0. -1.
        -11    1    4    4    0    0  0.23740290882E+03  0.17638600930E+03 -0.32472406015E+03  0.43922418038E+03  0.00000000000E+00 0.  1.
         12    1    4    4    0    0  0.19601931506E+03  0.11519301611E+03 -0.36056628733E+03  0.42626406182E+03  0.00000000000E+00 0. -1.
         -5    1    5    5    0  501 -0.80788197844E+02 -0.76637046181E+00 -0.84880239858E+02  0.11727772744E+03  0.47000000000E+01 0.  1.
         13    1    6    6    0    0 -0.36072833086E+03 -0.32185435279E+03 -0.61798588896E+03  0.78461564606E+03  0.00000000000E+00 0. -1.
        -14    1    6    6    0    0 -0.64262301961E+02 -0.38320355223E+02 -0.14711423981E+03  0.16504754658E+03  0.00000000000E+00 0.  1.
</event>
<event>
12    1  0.1081556E+000  0.2212399E+03  0.7818608E-02  0.1132962E+00
          2   -1    0    0  502    0  0.00000000000E+00  0.00000000000E+00  0.18002778954E+04  0.18002778954E+04  0.00000000000E+00 0. -1.
         -2   -1    0    0    0  501 -0.00000000000E+00 -0.00000000000E+00 -0.10194808351E+04  0.10194808351E+04  0.00000000000E+00 0.  1.
          6    2    1    2  502    0 -0.13712888709E+03 -0.30014888369E+02 -0.10005641525E+04  0.10246838538E+04  0.17071365429E+03 0.  0.
         24    2    3    3    0    0 -0.61641538678E+02  0.23246763447E+02 -0.75820653095E+03  0.76527211534E+03  0.80150955324E+02 0.  0.
         -6    2    1    2    0  501  0.13712888709E+03  0.30014888369E+02  0.17813612127E+04  0.17950748767E+04  0.17129161541E+03 0.  0.
        -24    2    5    5    0    0  0.54526028157E+02  0.30229711845E+02  0.46302760818E+03  0.47414760340E+03  0.80836010805E+02 0.  0.
          5    1    3    3  502    0 -0.75487348413E+02 -0.53261651816E+02 -0.24235762153E+03  0.25941173844E+03  0.47000000000E+01 0. -1.
        -11    1    4    4    0    0 -0.55161468368E+02  0.12760551289E+02 -0.22808224049E+03  0.23500452695E+03  0.00000000000E+00 0.  1.
         12    1    4    4    0    0 -0.64800703101E+01  0.10486212158E+02 -0.53012429047E+03  0.53026758839E+03  0.00000000000E+00 0. -1.
         -5    1    5    5    0  501  0.82602858934E+02 -0.21482347634E+00  0.13183336046E+04  0.13209272733E+04  0.47000000000E+01 0.  1.
         11    1    6    6    0    0  0.70671103809E+02  0.49611144222E+01  0.35698655345E+03  0.36394837122E+03  0.00000000000E+00 0. -1.
        -12    1    6    6    0    0 -0.16145075651E+02  0.25268597423E+02  0.10604105473E+03  0.11019923218E+03  0.00000000000E+00 0.  1.
</event>
<event>
12    1  0.1081556E+000  0.1933959E+03  0.7818608E-02  0.1155434E+00
         -1   -1    0    0    0  501 -0.00000000000E+00  0.00000000000E+00  0.55953633667E+02  0.55953633667E+02  0.00000000000E+00 0.  1.
          1   -1    0    0  502    0  0.00000000000E+00 -0.00000000000E+00 -0.16822637124E+04  0.16822637124E+04  0.00000000000E+00 0. -1.
          6    2    1    2  502    0 -0.64700874562E+02 -0.58435622558E+02 -0.13817322207E+03  0.23754416195E+03  0.17243684185E+03 0.  0.
         24    2    3    3    0    0 -0.48606220419E+02 -0.38430908196E+02 -0.16892894341E+03  0.19720521199E+03  0.80705689675E+02 0.  0.
         -6    2    1    2    0  501  0.64700874562E+02  0.58435622558E+02 -0.14881368566E+04  0.15006731841E+04  0.17282296201E+03 0.  0.
        -24    2    5    5    0    0  0.83356854109E+02  0.97120338474E+02 -0.12390550328E+04  0.12478720809E+04  0.74475705073E+02 0.  0.
          5    1    3    3  502    0 -0.16094654143E+02 -0.20004714362E+02  0.30755721344E+02  0.40338949963E+02  0.47000000000E+01 0. -1.
        -13    1    4    4    0    0 -0.14371344159E+02  0.20140258216E+02 -0.14861751997E+02  0.28862383934E+02  0.00000000000E+00 0.  1.
         14    1    4    4    0    0 -0.34234876260E+02 -0.58571166413E+02 -0.15406719142E+03  0.16834282806E+03  0.00000000000E+00 0. -1.
         -5    1    5    5    0  501 -0.18655979546E+02 -0.38684715916E+02 -0.24908182381E+03  0.25280110319E+03  0.47000000000E+01 0.  1.
         13    1    6    6    0    0  0.29236496242E+02  0.19676634334E+02 -0.67817962787E+03  0.67909465490E+03  0.00000000000E+00 0. -1.
        -14    1    6    6    0    0  0.54120357866E+02  0.77443704140E+02 -0.56087540495E+03  0.56877742600E+03  0.00000000000E+00 0.  1.
</event>
<event>
12    1  0.1081556E+000  0.2416164E+03  0.7818608E-02  0.1118721E+00
          1   -1    0    0  502    0  0.00000000000E+00  0.00000000000E+00  0.20612796630E+03  0.20612796630E+03  0.00000000000E+00 0. -1.
         -1   -1    0    0    0  501 -0.00000000000E+00 -0.00000000000E+00 -0.30000819875E+03  0.30000819875E+03  0.00000000000E+00 0.  1.
          6    2    1    2  502    0 -0.76100062510E+02  0.15351950966E+03 -0.10687263346E+03  0.26449190550E+03  0.17080617357E+03 0.  0.
         24    2    3    3    0    0 -0.67912399256E+02  0.13493825693E+03 -0.14355247863E+03  0.22230420795E+03  0.77404260845E+02 0.  0.
         -6    2    1    2    0  501  0.76100062510E+02 -0.15351950966E+03  0.12992401007E+02  0.24164425956E+03  0.16989316153E+03 0.  0.
        -24    2    5    5    0    0  0.83205815026E+02 -0.15722396685E+03  0.51445592515E+02  0.20208477702E+03  0.80926044671E+02 0.  0.
          5    1    3    3  502    0 -0.81876632542E+01  0.18581252733E+02  0.36679845169E+02  0.42187697547E+02  0.47000000000E+01 0. -1.
        -11    1    4    4    0    0 -0.52553665838E+02  0.38595830968E+02 -0.27693250507E+02  0.70840963324E+02  0.00000000000E+00 0.  1.
         12    1    4    4    0    0 -0.15358733419E+02  0.96342425958E+02 -0.11585922812E+03  0.15146324463E+03  0.00000000000E+00 0. -1.
         -5    1    5    5    0  501 -0.71057525160E+01  0.37044571924E+01 -0.38453191508E+02  0.39559482542E+02  0.47000000000E+01 0.  1.
         13    1    6    6    0    0  0.62910159690E+02 -0.16168356752E+03  0.38858179262E+02  0.17778982618E+03  0.00000000000E+00 0. -1.
        -14    1    6    6    0    0  0.20295655336E+02  0.44596006690E+01  0.12587413253E+02  0.24294950835E+02  0.00000000000E+00 0.  1.
</event>
<event>
12    1  0.1081556E+000  0.6193522E+03  0.7818608E-02  0.9866050E-01
         -2   -1    0    0    0  501 -0.00000000000E+00  0.00000000000E+00  0.15747752900E+03  0.15747752900E+03  0.00000000000E+00 0.  1.
          2   -1    0    0  502    0  0.00000000000E+00 -0.00000000000E+00 -0.33168151324E+04  0.33168151324E+04  0.00000000000E+00 0. -1.
          6    2    1    2  502    0 -0.56055721049E+03 -0.19949250299E+03 -0.68468966912E+03  0.92335217438E+03  0.17250405777E+03 0.  0.
         24    2    3    3    0    0 -0.42576274931E+03 -0.14544543825E+03 -0.60672063407E+03  0.75845253096E+03  0.68644152775E+02 0.  0.
         -6    2    1    2    0  501  0.56055721049E+03  0.19949250299E+03 -0.24746479343E+04  0.25509404871E+04  0.17144481540E+03 0.  0.
        -24    2    5    5    0    0  0.38788033614E+03  0.17944574527E+03 -0.19645706248E+04  0.20120340693E+04  0.78047584821E+02 0.  0.
          5    1    3    3  502    0 -0.13479446118E+03 -0.54047064744E+02 -0.77969035052E+02  0.16489964341E+03  0.47000000000E+01 0. -1.
        -11    1    4    4    0    0 -0.19003336631E+03 -0.38047913137E+02 -0.29761682354E+03  0.35515644111E+03  0.00000000000E+00 0.  1.
         12    1    4    4    0    0 -0.23572938300E+03 -0.10739752511E+03 -0.30910381053E+03  0.40329608985E+03  0.00000000000E+00 0. -1.
         -5    1    5    5    0  501  0.17267687435E+03  0.20046757714E+02 -0.51007730951E+03  0.53890641776E+03  0.47000000000E+01 0.  1.
         13    1    6    6    0    0  0.26871199669E+03  0.85398396785E+02 -0.13298160432E+04  0.13593784360E+04  0.00000000000E+00 0. -1.
        -14    1    6    6    0    0  0.11916833945E+03  0.94047348489E+02 -0.63475458157E+03  0.65265563333E+03  0.00000000000E+00 0.  1.
</event>
<event>
12    1  0.1081556E+000  0.4070225E+03  0.7818608E-02  0.1041375E+00
         -2   -1    0    0    0  501 -0.00000000000E+00  0.00000000000E+00  0.46094110131E+03  0.46094110131E+03  0.00000000000E+00 0.  1.
          2   -1    0    0  502    0  0.00000000000E+00 -0.00000000000E+00 -0.42718327691E+03  0.42718327691E+03  0.00000000000E+00 0. -1.
          6    2    1    2  502    0 -0.18969084635E+03  0.31609470061E+03  0.19375614610E+03  0.45088489903E+03  0.17279256662E+03 0.  0.
         24    2    3    3    0    0 -0.39887951201E+02  0.59378005212E+02  0.64712576291E+02  0.12681900758E+03  0.82331931834E+02 0.  0.
         -6    2    1    2    0  501  0.18969084635E+03 -0.31609470061E+03 -0.15999832170E+03  0.43723947919E+03  0.17228006929E+03 0.  0.
        -24    2    5    5    0    0  0.19909636630E+03 -0.25617957069E+03 -0.92941703587E+02  0.34670237833E+03  0.79353912097E+02 0.  0.
          5    1    3    3  502    0 -0.14980289515E+03  0.25671669540E+03  0.12904356981E+03  0.32406589145E+03  0.47000000000E+01 0. -1.
        -13    1    4    4    0    0 -0.29623636029E+02  0.78922801010E+02  0.61856176802E+02  0.10455885873E+03  0.00000000000E+00 0.  1.
         14    1    4    4    0    0 -0.10264315172E+02 -0.19544795798E+02  0.28563994896E+01  0.22260148849E+02  0.00000000000E+00 0. -1.
         -5    1    5    5    0  501 -0.94055199493E+01 -0.59915129923E+02 -0.67056618116E+02  0.90537100862E+02  0.47000000000E+01 0.  1.
         11    1    6    6    0    0  0.61221013404E+02 -0.11246992938E+03 -0.27608331243E+01  0.12808247224E+03  0.00000000000E+00 0. -1.
        -12    1    6    6    0    0  0.13787535290E+03 -0.14370964131E+03 -0.90180870462E+02  0.21861990609E+03  0.00000000000E+00 0.  1.
</event>
<event>
12    1  0.1081556E+000  0.9491365E+03  0.7818608E-02  0.9366160E-01
          2   -1    0    0  502    0  0.00000000000E+00  0.00000000000E+00  0.34394341064E+04  0.34394341064E+04  0.00000000000E+00 0. -1.
         -2   -1    0    0    0  501 -0.00000000000E+00 -0.00000000000E+00 -0.30585597691E+03  0.30585597691E+03  0.00000000000E+00 0.  1.
          6    2    1    2  502    0  0.70630597530E+03 -0.60912953057E+03  0.85785391885E+03  0.12797890017E+04  0.17899616485E+03 0.  0.
         24    2    3    3    0    0  0.34612127473E+03 -0.32464192267E+03  0.52863993057E+03  0.71492604695E+03  0.80416177700E+02 0.  0.
         -6    2    1    2    0  501 -0.70630597530E+03  0.60912953057E+03  0.22757242106E+04  0.24655010816E+04  0.17282356556E+03 0.  0.
        -24    2    5    5    0    0 -0.54592304131E+03  0.50159495855E+03  0.19377620146E+04  0.20762365114E+04  0.78784239962E+02 0.  0.
          5    1    3    3  502    0  0.36018470057E+03 -0.28448760790E+03  0.32921398827E+03  0.56486295475E+03  0.47000000000E+01 0. -1.
        -13    1    4    4    0    0  0.13468315606E+03 -0.94069932061E+02  0.13869896764E+03  0.21500257735E+03  0.00000000000E+00 0.  1.
         14    1    4    4    0    0  0.21143811867E+03 -0.23057199061E+03  0.38994096294E+03  0.49992346960E+03  0.00000000000E+00 0. -1.
         -5    1    5    5    0  501 -0.16038293399E+03  0.10753457202E+03  0.33796219604E+03  0.38926457024E+03  0.47000000000E+01 0.  1.
         13    1    6    6    0    0 -0.10363478422E+03  0.90603216104E+02  0.45158175870E+03  0.47209659611E+03  0.00000000000E+00 0. -1.
        -14    1    6    6    0    0 -0.44228825709E+03  0.41099174245E+03  0.14861802559E+04  0.16041399153E+04  0.00000000000E+00 0.  1.
</event>
<event>
12    1  0.1081556E+000  0.4109377E+03  0.7818608E-02  0.1040057E+00
          2   -1    0    0  502    0  0.00000000000E+00  0.00000000000E+00  0.25417591224E+04  0.25417591224E+04  0.00000000000E+00 0. -1.
         -2   -1    0    0    0  501 -0.00000000000E+00 -0.00000000000E+00 -0.66776308009E+02  0.66776308009E+02  0.00000000000E+00 0.  1.
          6    2    1    2  502    0 -0.32012690571E+03  0.18916965136E+03  0.11477715769E+04  0.12194610508E+04  0.17731122019E+03 0.  0.
         24    2    3    3    0    0 -0.24046370661E+03  0.14820301902E+03  0.64621187249E+03  0.70994292807E+03  0.81499987238E+02 0.  0.
         -6    2    1    2    0  501  0.32012690571E+03 -0.18916965136E+03  0.13272112375E+04  0.13890743796E+04  0.17254440166E+03 0.  0.
        -24    2    5    5    0    0  0.29072482865E+03 -0.11054243895E+03  0.11210503747E+04  0.11664286701E+04  0.84031796706E+02 0.  0.
          5    1    3    3  502    0 -0.79663199093E+02  0.40966632337E+02  0.50155970443E+03  0.50951812270E+03  0.47000000000E+01 0. -1.
        -11    1    4    4    0    0 -0.20376329794E+03  0.14054573686E+03  0.60777798238E+03  0.65625198027E+03  0.00000000000E+00 0.  1.
         12    1    4    4    0    0 -0.36700408671E+02  0.76572821651E+01  0.38433890109E+02  0.53690947800E+02  0.00000000000E+00 0. -1.
         -5    1    5    5    0  501  0.29402077053E+02 -0.78627212406E+02  0.20616086273E+03  0.22264570957E+03  0.47000000000E+01 0.  1.
         11    1    6    6    0    0  0.23012531448E+03 -0.12158366847E+03  0.88549122452E+03  0.92294905466E+03  0.00000000000E+00 0. -1.
        -12    1    6    6    0    0  0.60599514172E+02  0.11041229516E+02  0.23555915022E+03  0.24347961541E+03  0.00000000000E+00 0.  1.
</event>
<event>
12    1  0.1081556E+000  0.4692650E+03  0.7818608E-02  0.1022128E+00
         -2   -1    0    0    0  501 -0.00000000000E+00  0.00000000000E+00  0.40177680766E+03  0.40177680766E+03  0.00000000000E+00 0.  1.
          2   -1    0    0  502    0  0.00000000000E+00 -0.00000000000E+00 -0.55052552530E+03  0.55052552530E+03  0.00000000000E+00 0. -1.
          6    2    1    2  502    0 -0.42593214412E+03 -0.97981614631E+02 -0.10612105197E+03  0.48158627194E+03  0.17217744176E+03 0.  0.
         24    2    3    3    0    0 -0.33912695674E+03 -0.82811052442E+02 -0.20933330565E+02  0.35893096471E+03  0.80798947436E+02 0.  0.
         -6    2    1    2    0  501  0.42593214412E+03  0.97981614631E+02 -0.42627665669E+02  0.47071606102E+03  0.16952257672E+03 0.  0.
        -24    2    5    5    0    0  0.35352683246E+03  0.36879676758E+02  0.53402956002E+01  0.36441934763E+03  0.80197321300E+02 0.  0.
          5    1    3    3  502    0 -0.86805187382E+02 -0.15170562189E+02 -0.85187721404E+02  0.12265530723E+03  0.47000000000E+01 0. -1.
        -11    1    4    4    0    0 -0.10608073400E+03 -0.46340048610E+02 -0.39510944019E+02  0.12231777029E+03  0.00000000000E+00 0.  1.
         12    1    4    4    0    0 -0.23304622274E+03 -0.36471003832E+02  0.18577613453E+02  0.23661319442E+03  0.00000000000E+00 0. -1.
         -5    1    5    5    0  501  0.72405311662E+02  0.61101937874E+02 -0.47967961270E+02  0.10629671339E+03  0.47000000000E+01 0.  1.
         13    1    6    6    0    0  0.14577430020E+03  0.10090960822E+02 -0.36945337260E+02  0.15072137219E+03  0.00000000000E+00 0. -1.
        -14    1    6    6    0    0  0.20775253225E+03  0.26788715935E+02  0.42285632860E+02  0.21369797544E+03  0.00000000000E+00 0.  1.
</event>
<event>
12    1  0.1081556E+000  0.2256531E+03  0.7818608E-02  0.1129737E+00
          2   -1    0    0  502    0  0.00000000000E+00  0.00000000000E+00  0.20931583838E+04  0.20931583838E+04  0.00000000000E+00 0.  1.
         -2   -1    0    0    0  501 -0.00000000000E+00 -0.00000000000E+00 -0.24360549782E+02  0.24360549782E+02  0.00000000000E+00 0. -1.
          6    2    1    2  502    0 -0.12772771505E+02 -0.14555928628E+03  0.99385658827E+03  0.10191033323E+04  0.17166838466E+03 0.  0.
         24    2    3    3    0    0 -0.56288624167E+02 -0.91432325512E+02  0.82536540956E+03  0.83679939755E+03  0.86469029569E+02 0.  0.
         -6    2    1    2    0  501  0.12772771505E+02  0.14555928628E+03  0.10749412457E+04  0.10984156013E+04  0.17224256695E+03 0.  0.
        -24    2    5    5    0    0  0.14367367090E+02  0.79062907404E+02  0.22648064740E+03  0.24733876101E+03  0.58528749239E+02 0.  0.
          5    1    3    3  502    0  0.43515852662E+02 -0.54126960769E+02  0.16849117870E+03  0.18230393472E+03  0.47000000000E+01 0. -1.
        -11    1    4    4    0    0  0.20460134453E+02 -0.39280132728E+02  0.30987826434E+03  0.31302729056E+03  0.00000000000E+00 0.  1.
         12    1    4    4    0    0 -0.76748758620E+02 -0.52152192784E+02  0.51548714523E+03  0.52377210698E+03  0.00000000000E+00 0. -1.
         -5    1    5    5    0  501 -0.15945955844E+01  0.66496378877E+02  0.84846059834E+03  0.85107684029E+03  0.47000000000E+01 0.  1.
         11    1    6    6    0    0  0.51593429723E+01  0.63504578926E+01 -0.10920078221E+01  0.82546724002E+01  0.00000000000E+00 0. -1.
        -12    1    6    6    0    0  0.92080241176E+01  0.72712449511E+02  0.22757265522E+03  0.23908408861E+03  0.00000000000E+00 0.  1.
</event>
<event>
12    1  0.1081556E+000  0.1850770E+03  0.7818608E-02  0.1162978E+00
          1   -1    0    0  502    0  0.00000000000E+00  0.00000000000E+00  0.17380025981E+04  0.17380025981E+04  0.00000000000E+00 0. -1.
         -1   -1    0    0    0  501 -0.00000000000E+00 -0.00000000000E+00 -0.25885671492E+02  0.25885671492E+02  0.00000000000E+00 0.  1.
          6    2    1    2  502    0  0.66644293818E+02  0.39051498898E+01  0.12850151715E+04  0.12981995260E+04  0.17205030093E+03 0.  0.
         24    2    3    3    0    0  0.61726108008E+02  0.64724413668E+02  0.72607572661E+03  0.73591973397E+03  0.79953310970E+02 0.  0.
         -6    2    1    2    0  501 -0.66644293818E+02 -0.39051498898E+01  0.42710175508E+03  0.46568874363E+03  0.17318598286E+03 0.  0.
        -24    2    5    5    0    0 -0.11327612858E+03 -0.86635009246E+01  0.32413366327E+03  0.35245585156E+03  0.79094614709E+02 0.  0.
          5    1    3    3  502    0  0.49181858105E+01 -0.60819263778E+02  0.55893944493E+03  0.56227979200E+03  0.47000000000E+01 0. -1.
        -13    1    4    4    0    0  0.65883170957E+02  0.26791648478E+02  0.30794994860E+03  0.31605625367E+03  0.00000000000E+00 0.  1.
         14    1    4    4    0    0 -0.41570629489E+01  0.37932765189E+02  0.41812577802E+03  0.41986348030E+03  0.00000000000E+00 0. -1.
         -5    1    5    5    0  501  0.46631834758E+02  0.47583510348E+01  0.10296809180E+03  0.11323289207E+03  0.47000000000E+01 0.  1.
         13    1    6    6    0    0 -0.49432923343E+01  0.80984587287E+01  0.12319646651E+03  0.12356128250E+03  0.00000000000E+00 0. -1.
        -14    1    6    6    0    0 -0.10833283624E+03 -0.16761959653E+02  0.20093719676E+03  0.22889456905E+03  0.00000000000E+00 0.  1.
</event>
<event>
12    1  0.1081556E+000  0.2274685E+03  0.7818608E-02  0.1128434E+00
          1   -1    0    0  502    0  0.00000000000E+00  0.00000000000E+00  0.12283893973E+03  0.12283893973E+03  0.00000000000E+00 0. -1.
         -1   -1    0    0    0  501 -0.00000000000E+00 -0.00000000000E+00 -0.63996641228E+03  0.63996641228E+03  0.00000000000E+00 0.  1.
          6    2    1    2  502    0  0.99322554226E+02 -0.10841231442E+03 -0.36535098497E+02  0.23163937144E+03  0.17522495622E+03 0.  0.
         24    2    3    3    0    0  0.13025298368E+03 -0.81859927184E+02 -0.60795850548E+02  0.18396972885E+03  0.80509864316E+02 0.  0.
         -6    2    1    2    0  501 -0.99322554226E+02  0.10841231442E+03 -0.48059237405E+03  0.53116598057E+03  0.17190133573E+03 0.  0.
        -24    2    5    5    0    0 -0.73230073174E+02 -0.51364443353E+01 -0.26183050093E+03  0.28326885410E+03  0.79353675453E+02 0.  0.
          5    1    3    3  502    0 -0.30930429457E+02 -0.26552387239E+02  0.24260752051E+02  0.47669642589E+02  0.47000000000E+01 0. -1.
        -11    1    4    4    0    0  0.66944865917E+02  0.32418953281E+01 -0.30669578821E+02  0.73707177554E+02  0.00000000000E+00 0.  1.
         12    1    4    4    0    0  0.63308117766E+02 -0.85101822512E+02 -0.30126271727E+02  0.11026255130E+03  0.00000000000E+00 0. -1.
         -5    1    5    5    0  501 -0.26092481051E+02  0.11354875876E+03 -0.21876187312E+03  0.24789712647E+03  0.47000000000E+01 0.  1.
         13    1    6    6    0    0 -0.78765587732E+02 -0.10448381971E+02 -0.13829319631E+03  0.15949355674E+03  0.00000000000E+00 0. -1.
        -14    1    6    6    0    0  0.55355145581E+01  0.53119376361E+01 -0.12353730463E+03  0.12377529736E+03  0.00000000000E+00 0.  1.
</event>
<event>
12    1  0.1081556E+000  0.3331767E+03  0.7818608E-02  0.1069740E+00
         -2   -1    0    0    0  501 -0.00000000000E+00  0.00000000000E+00  0.96028100588E+02  0.96028100588E+02  0.00000000000E+00 0.  1.
          2   -1    0    0  502    0  0.00000000000E+00 -0.00000000000E+00 -0.22425404447E+04  0.22425404447E+04  0.00000000000E+00 0. -1.
          6    2    1    2  502    0 -0.23002771156E+03  0.16862558945E+03 -0.25963158477E+03  0.42252806213E+03  0.17255163279E+03 0.  0.
         24    2    3    3    0    0 -0.12777938488E+03  0.17441827748E+03 -0.16835261559E+03  0.28526111142E+03  0.79259017104E+02 0.  0.
         -6    2    1    2    0  501  0.23002771156E+03 -0.16862558945E+03 -0.18868807593E+04  0.19160404831E+04  0.17188599598E+03 0.  0.
        -24    2    5    5    0    0  0.20528103425E+03 -0.80861273953E+02 -0.11665875416E+04  0.11899830594E+04  0.80338911600E+02 0.  0.
          5    1    3    3  502    0 -0.10224832668E+03 -0.57926880358E+01 -0.91278969171E+02  0.13726695071E+03  0.47000000000E+01 0. -1.
        -13    1    4    4    0    0 -0.11575419184E+03  0.11875995060E+03 -0.90867068869E+02  0.18910257269E+03  0.00000000000E+00 0.  1.
         14    1    4    4    0    0 -0.12025193041E+02  0.55658326879E+02 -0.77485546726E+02  0.96158538727E+02  0.00000000000E+00 0. -1.
         -5    1    5    5    0  501  0.24746677303E+02 -0.87764315492E+02 -0.72029321772E+03  0.72605742377E+03  0.47000000000E+01 0.  1.
         13    1    6    6    0    0  0.13028220918E+03 -0.89938462675E+02 -0.83803429111E+03  0.85285629163E+03  0.00000000000E+00 0. -1.
        -14    1    6    6    0    0  0.74998825078E+02  0.90771887221E+01 -0.32855325048E+03  0.33712676773E+03  0.00000000000E+00 0.  1.
</event>
<event>
12    1  0.1081556E+000  0.3159493E+03  0.7818608E-02  0.1077529E+00
          3   -1    0    0  502    0  0.00000000000E+00  0.00000000000E+00  0.94786863457E+02  0.94786863457E+02  0.00000000000E+00 0. -1.
         -3   -1    0    0    0  501 -0.00000000000E+00 -0.00000000000E+00 -0.10547368151E+04  0.10547368151E+04  0.00000000000E+00 0.  1.
          6    2    1    2  502    0  0.93267013172E+02  0.24816461983E+03 -0.50221321591E+03  0.59329044584E+03  0.17172951000E+03 0.  0.
         24    2    3    3    0    0  0.92914866309E+01  0.16297839264E+03 -0.38651085634E+03  0.42680408492E+03  0.78248301231E+02 0.  0.
         -6    2    1    2    0  501 -0.93267013172E+02 -0.24816461983E+03 -0.45773673574E+03  0.55623323273E+03  0.17201184745E+03 0.  0.
        -24    2    5    5    0    0 -0.12415046958E+03 -0.15035024242E+03 -0.34132166798E+03  0.40100437488E+03  0.79281102073E+02 0.  0.
          5    1    3    3  502    0  0.83975526541E+02  0.85186227190E+02 -0.11570235957E+03  0.16648636092E+03  0.47000000000E+01 0. -1.
        -11    1    4    4    0    0 -0.27532908498E+02  0.24284847098E+02 -0.63423824065E+02  0.73282987848E+02  0.00000000000E+00 0.  1.
         12    1    4    4    0    0  0.36824395129E+02  0.13869354554E+03 -0.32308703227E+03  0.35352109707E+03  0.00000000000E+00 0. -1.
         -5    1    5    5    0  501  0.30883456407E+02 -0.97814377408E+02 -0.11641506776E+03  0.15522885785E+03  0.47000000000E+01 0.  1.
         11    1    6    6    0    0 -0.69464299677E+02 -0.13025948864E+03 -0.20378258601E+03  0.25163498499E+03  0.00000000000E+00 0. -1.
        -12    1    6    6    0    0 -0.54686169901E+02 -0.20090753781E+02 -0.13753908197E+03  0.14936938989E+03  0.00000000000E+00 0.  1.
</event>
<event>
12    1  0.1081556E+000  0.3671371E+03  0.7818608E-02  0.1055793E+00
          1   -1    0    0  502    0  0.00000000000E+00  0.00000000000E+00  0.34592765162E+03  0.34592765162E+03  0.00000000000E+00 0. -1.
         -1   -1    0    0    0  501 -0.00000000000E+00 -0.00000000000E+00 -0.44494355804E+03  0.44494355804E+03  0.00000000000E+00 0.  1.
          6    2    1    2  502    0 -0.17695552313E+03  0.27180735263E+03 -0.18889482767E+03  0.41275973920E+03  0.17174647673E+03 0.  0.
         24    2    3    3    0    0 -0.20294213583E+03  0.22770182177E+03 -0.16178961564E+03  0.35464447088E+03  0.81013522744E+02 0.  0.
         -6    2    1    2    0  501  0.17695552313E+03 -0.27180735263E+03  0.89878921253E+02  0.37811147046E+03  0.17232982765E+03 0.  0.
        -24    2    5    5    0    0  0.86478205339E+02 -0.21305397105E+03  0.98680006311E+01  0.24371674474E+03  0.80187278627E+02 0.  0.
          5    1    3    3  502    0  0.25986612697E+02  0.44105530862E+02 -0.27105212034E+02  0.58115268316E+02  0.47000000000E+01 0. -1.
        -11    1    4    4    0    0 -0.10066443023E+03  0.13934470956E+03 -0.49389775522E+02  0.17885643830E+03  0.00000000000E+00 0.  1.
         12    1    4    4    0    0 -0.10227770560E+03  0.88357112210E+02 -0.11239984012E+03  0.17578803258E+03  0.00000000000E+00 0. -1.
         -5    1    5    5    0  501  0.90477317791E+02 -0.58753381585E+02  0.80010920622E+02  0.13439472572E+03  0.47000000000E+01 0.  1.
         13    1    6    6    0    0  0.39260113002E+01 -0.11511109853E+03 -0.80042109314E+00  0.11518081109E+03  0.00000000000E+00 0. -1.
        -14    1    6    6    0    0  0.82552194039E+02 -0.97942872517E+02  0.10668421724E+02  0.12853593365E+03  0.00000000000E+00 0.  1.
</event>
<event>
12    1  0.1081556E+000  0.1841463E+03  0.7818608E-02  0.1163850E+00
          1   -1    0    0  502    0  0.00000000000E+00  0.00000000000E+00  0.31759139181E+04  0.31759139181E+04  0.00000000000E+00 0. -1.
         -1   -1    0    0    0  501 -0.00000000000E+00 -0.00000000000E+00 -0.35123552582E+02  0.35123552582E+02  0.00000000000E+00 0.  1.
          6    2    1    2  502    0  0.49455061046E+01 -0.70201926170E+02  0.23248704072E+03  0.29694723747E+03  0.17080594039E+03 0.  0.
         24    2    3    3    0    0 -0.37619319500E+02 -0.12869021901E+01  0.61715753057E+02  0.10788119716E+03  0.80079018530E+02 0.  0.
         -6    2    1    2    0  501 -0.49455061046E+01  0.70201926170E+02  0.29083033248E+04  0.29140902332E+04  0.16953138288E+03 0.  0.
        -24    2    5    5    0    0 -0.23395326481E+01  0.98491422789E+02  0.14158513165E+04  0.14213604607E+04  0.76971260720E+02 0.  0.
          5    1    3    3  502    0  0.42564825605E+02 -0.68915023980E+02  0.17077128766E+03  0.18906604031E+03  0.47000000000E+01 0. -1.
        -13    1    4    4    0    0  0.15757576144E+01  0.25361931428E+02 -0.51438172336E+01  0.25926230608E+02  0.00000000000E+00 0.  1.
         14    1    4    4    0    0 -0.39195077115E+02 -0.26648833618E+02  0.66859570291E+02  0.81954966553E+02  0.00000000000E+00 0. -1.
         -5    1    5    5    0  501 -0.26059734565E+01 -0.28289496619E+02  0.14924520083E+04  0.14927297725E+04  0.47000000000E+01 0.  1.
         11    1    6    6    0    0 -0.33210206086E+02  0.36054747236E+02  0.37645330170E+03  0.37963133557E+03  0.00000000000E+00 0. -1.
        -12    1    6    6    0    0  0.30870673438E+02  0.62436675553E+02  0.10393980148E+04  0.10417291251E+04  0.00000000000E+00 0.  1.
</event>
<event>
12    1  0.1081556E+000  0.3346298E+03  0.7818608E-02  0.1069107E+00
          2   -1    0    0  502    0  0.00000000000E+00  0.00000000000E+00  0.26290224605E+04  0.26290224605E+04  0.00000000000E+00 0. -1.
         -2   -1    0    0    0  501 -0.00000000000E+00 -0.00000000000E+00 -0.43999343637E+02  0.43999343637E+02  0.00000000000E+00 0.  1.
          6    2    1    2  502    0 -0.28580753724E+03  0.27296758623E+02  0.10529919975E+04  0.11048398059E+04  0.17160357971E+03 0.  0.
         24    2    3    3    0    0 -0.12859236427E+03 -0.24912530320E+02  0.67346466836E+03  0.69070757579E+03  0.79785120243E+02 0.  0.
         -6    2    1    2    0  501  0.28580753724E+03 -0.27296758623E+02  0.15320311194E+04  0.15681819983E+04  0.17217539740E+03 0.  0.
        -24    2    5    5    0    0  0.27710795010E+03  0.36153543678E+01  0.11854774909E+04  0.12201119637E+04  0.80712054119E+02 0.  0.
          5    1    3    3  502    0 -0.15721517297E+03  0.52209288943E+02  0.37952732912E+03  0.41413223010E+03  0.47000000000E+01 0. -1.
        -13    1    4    4    0    0 -0.10247793545E+03 -0.50394812877E+02  0.44891045568E+03  0.46320833503E+03  0.00000000000E+00 0.  1.
         14    1    4    4    0    0 -0.26114428821E+02  0.25482282556E+02  0.22455421268E+03  0.22749924076E+03  0.00000000000E+00 0. -1.
         -5    1    5    5    0  501  0.86995871419E+01 -0.30912112990E+02  0.34655362851E+03  0.34807003459E+03  0.47000000000E+01 0.  1.
         13    1    6    6    0    0  0.11478934376E+03 -0.31546553064E+02  0.40364853267E+03  0.42083716136E+03  0.00000000000E+00 0. -1.
        -14    1    6    6    0    0  0.16231860634E+03  0.35161907432E+02  0.78182895823E+03  0.79927480232E+03  0.00000000000E+00 0.  1.
</event>
<event>
12    1  0.1081556E+000  0.1731291E+03  0.7818608E-02  0.1174623E+00
          1   -1    0    0  502    0  0.00000000000E+00  0.00000000000E+00  0.16941103121E+04  0.16941103121E+04  0.00000000000E+00 0. -1.
         -1   -1    0    0    0  501 -0.00000000000E+00 -0.00000000000E+00 -0.25227615187E+03  0.25227615187E+03  0.00000000000E+00 0.  1.
          6    2    1    2  502    0 -0.23242205586E+01  0.28475214073E+02 -0.21788556426E+03  0.27753276274E+03  0.16951128418E+03 0.  0.
         24    2    3    3    0    0 -0.31151002438E+02  0.56845991790E+02 -0.70306253513E+02  0.12443923792E+03  0.79626019089E+02 0.  0.
         -6    2    1    2    0  501  0.23242205586E+01 -0.28475214073E+02  0.16597197245E+04  0.16688537012E+04  0.17200834992E+03 0.  0.
        -24    2    5    5    0    0  0.39963554752E+02 -0.67845633901E+02  0.13213012720E+04  0.13260477964E+04  0.79784654368E+02 0.  0.
          5    1    3    3  502    0  0.28826781879E+02 -0.28370777717E+02 -0.14757931075E+03  0.15309352482E+03  0.47000000000E+01 0. -1.
        -11    1    4    4    0    0  0.20372350240E+02  0.39155666643E+02 -0.48991232640E+02  0.65941942344E+02  0.00000000000E+00 0.  1.
         12    1    4    4    0    0 -0.51523352678E+02  0.17690325147E+02 -0.21315020873E+02  0.58497295577E+02  0.00000000000E+00 0. -1.
         -5    1    5    5    0  501 -0.37639334194E+02  0.39370419828E+02  0.33841845245E+03  0.34280590485E+03  0.47000000000E+01 0.  1.
         13    1    6    6    0    0  0.44921602868E+02 -0.66884681601E+02  0.13168598887E+04  0.13193223554E+04  0.00000000000E+00 0. -1.
        -14    1    6    6    0    0 -0.49580481160E+01 -0.96095229981E+00  0.44413833660E+01  0.67254410001E+01  0.00000000000E+00 0.  1.
</event>
<event>
12    1  0.1081556E+000  0.1430092E+04  0.7818608E-02  0.8932320E-01
          2   -1    0    0  502    0  0.00000000000E+00  0.00000000000E+00  0.66915649365E+03  0.66915649365E+03  0.00000000000E+00 0. -1.
         -2   -1    0    0    0  501 -0.00000000000E+00 -0.00000000000E+00 -0.33547416559E+04  0.33547416559E+04  0.00000000000E+00 0.  1.
          6    2    1    2  502    0 -0.13523093373E+04  0.43245888230E+03 -0.19429340649E+04  0.24125554390E+04  0.17224905601E+03 0.  0.
         24    2    3    3    0    0 -0.12106948368E+04  0.33991959734E+03 -0.17270252699E+04  0.21382255577E+04  0.89804968943E+02 0.  0.
         -6    2    1    2    0  501  0.13523093373E+04 -0.43245888230E+03 -0.74265109739E+03  0.16113427106E+04  0.17068523617E+03 0.  0.
        -24    2    5    5    0    0  0.85053366695E+03 -0.31290392814E+03 -0.53664150206E+03  0.10558841129E+04  0.74771459673E+02 0.  0.
          5    1    3    3  502    0 -0.14161450052E+03  0.92539284957E+02 -0.21590879501E+03  0.27432988131E+03  0.47000000000E+01 0. -1.
        -11    1    4    4    0    0 -0.29376469189E+03  0.73694346488E+02 -0.35447556446E+03  0.46624186502E+03  0.00000000000E+00 0.  1.
         12    1    4    4    0    0 -0.91693014487E+03  0.26622525085E+03 -0.13725497054E+04  0.16719836927E+04  0.00000000000E+00 0. -1.
         -5    1    5    5    0  501  0.50177567032E+03 -0.11955495416E+03 -0.20600959533E+03  0.55545859770E+03  0.47000000000E+01 0.  1.
         11    1    6    6    0    0  0.40210026842E+03 -0.18505616029E+03 -0.27703460333E+03  0.52218634583E+03  0.00000000000E+00 0. -1.
        -12    1    6    6    0    0  0.44843339854E+03 -0.12784776785E+03 -0.25960689873E+03  0.53369776703E+03  0.00000000000E+00 0.  1.
</event>
<event>
12    1  0.1081556E+000  0.1473459E+04  0.7818608E-02  0.8902296E-01
         -1   -1    0    0    0  501 -0.00000000000E+00  0.00000000000E+00  0.22332138650E+04  0.22332138650E+04  0.00000000000E+00 0.  1.
          1   -1    0    0  502    0  0.00000000000E+00 -0.00000000000E+00 -0.10610464312E+04  0.10610464312E+04  0.00000000000E+00 0. -1.
          6    2    1    2  502    0 -0.52402183007E+02 -0.14624922106E+04  0.10627590511E+04  0.18167137921E+04  0.17135561582E+03 0.  0.
         24    2    3    3    0    0  0.11179423265E+02 -0.39210945501E+03  0.26415735856E+03  0.47972141468E+03  0.80490505051E+02 0.  0.
         -6    2    1    2    0  501  0.52402183007E+02  0.14624922106E+04  0.10940838272E+03  0.14775465041E+04  0.17188374811E+03 0.  0.
        -24    2    5    5    0    0  0.82317886637E+02  0.11143731977E+04  0.38025815287E+02  0.11208963150E+04  0.79741634083E+02 0.  0.
          5    1    3    3  502    0 -0.63581606273E+02 -0.10703827556E+04  0.79860169252E+03  0.13369923775E+04  0.47000000000E+01 0. -1.
        -11    1    4    4    0    0 -0.22313682654E+02 -0.25420448846E+03  0.13944791353E+03  0.29079811377E+03  0.00000000000E+00 0.  1.
         12    1    4    4    0    0  0.33493105919E+02 -0.13790496655E+03  0.12470944503E+03  0.18892330090E+03  0.00000000000E+00 0. -1.
         -5    1    5    5    0  501 -0.29915703630E+02  0.34811901292E+03  0.71382567430E+02  0.35665018914E+03  0.47000000000E+01 0.  1.
         11    1    6    6    0    0  0.37120375004E+01  0.55616675901E+03  0.33054973396E+02  0.55716054626E+03  0.00000000000E+00 0. -1.
        -12    1    6    6    0    0  0.78605849136E+02  0.55820643866E+03  0.49708418916E+01  0.56373576873E+03  0.00000000000E+00 0.  1.
</event>
<event>
12    1  0.1650929E+000  0.5440801E+03  0.7818608E-02  0.1002874E+00
          1   -1    0    0  502    0  0.00000000000E+00  0.00000000000E+00  0.16004366728E+04  0.16004366728E+04  0.00000000000E+00 0. -1.
         -1   -1    0    0    0  501 -0.00000000000E+00 -0.00000000000E+00 -0.20019109534E+03  0.20019109534E+03  0.00000000000E+00 0.  1.
          6    2    1    2  502    0  0.28722609517E+03 -0.42742862330E+03  0.45066788016E+03  0.70573828206E+03  0.17254253620E+03 0.  0.
         24    2    3    3    0    0  0.11150683689E+03 -0.18488775400E+03  0.11973346989E+03  0.25937183517E+03  0.79500873044E+02 0.  0.
         -6    2    1    2    0  501 -0.28722609517E+03  0.42742862330E+03  0.94957769728E+03  0.10948894861E+04  0.17858086617E+03 0.  0.
        -24    2    5    5    0    0 -0.87526153994E+02  0.11616471059E+03  0.40677665767E+03  0.43806352094E+03  0.72645244407E+02 0.  0.
          5    1    3    3  502    0  0.17571925828E+03 -0.24254086930E+03  0.33093441027E+03  0.44636644690E+03  0.47000000000E+01 0. -1.
        -11    1    4    4    0    0  0.11122364911E+03 -0.16482503614E+03  0.12925765672E+03  0.23716141018E+03  0.00000000000E+00 0.  1.
         12    1    4    4    0    0  0.28318778050E+00 -0.20062717860E+02 -0.95241868300E+01  0.22210424985E+02  0.00000000000E+00 0. -1.
         -5    1    5    5    0  501 -0.19969994118E+03  0.31126391271E+03  0.54280103961E+03  0.65682596513E+03  0.47000000000E+01 0.  1.
         13    1    6    6    0    0 -0.55053934971E+02  0.60545136824E+02  0.12784250684E+03  0.15179050005E+03  0.00000000000E+00 0. -1.
        -14    1    6    6    0    0 -0.32472219023E+02  0.55619573770E+02  0.27893415083E+03  0.28627302089E+03  0.00000000000E+00 0.  1.
</event>
<event>
12    1  0.1081556E+000  0.1030354E+04  0.7818608E-02  0.9275866E-01
          1   -1    0    0  502    0  0.00000000000E+00  0.00000000000E+00  0.16037937486E+04  0.16037937486E+04  0.00000000000E+00 0. -1.
         -1   -1    0    0    0  501 -0.00000000000E+00 -0.00000000000E+00 -0.71923888470E+03  0.71923888470E+03  0.00000000000E+00 0.  1.
          6    2    1    2  502    0 -0.79600527775E+02  0.10130714421E+04  0.11459014400E+03  0.10370287706E+04  0.17218530419E+03 0.  0.
         24    2    3    3    0    0 -0.10671597511E+03  0.70071583521E+03  0.42887387996E+02  0.71536955978E+03  0.86736946864E+02 0.  0.
         -6    2    1    2    0  501  0.79600527775E+02 -0.10130714421E+04  0.76996471985E+03  0.12860038627E+04  0.16825657240E+03 0.  0.
        -24    2    5    5    0    0 -0.53889916582E+01 -0.42063813022E+03  0.30679362304E+03  0.52920137697E+03  0.94690508604E+02 0.  0.
          5    1    3    3  502    0  0.27115447339E+02  0.31235560692E+03  0.71702756005E+02  0.32165921078E+03  0.47000000000E+01 0. -1.
        -13    1    4    4    0    0 -0.35861033327E+01  0.17070281641E+03  0.40202096661E+02  0.17540957854E+03  0.00000000000E+00 0.  1.
         14    1    4    4    0    0 -0.10312987178E+03  0.53001301881E+03  0.26852913345E+01  0.53995998125E+03  0.00000000000E+00 0. -1.
         -5    1    5    5    0  501  0.84989519433E+02 -0.59243331191E+03  0.46317109681E+03  0.75680248573E+03  0.47000000000E+01 0.  1.
         11    1    6    6    0    0  0.23339652822E+02 -0.17180942860E+03  0.17423176200E+03  0.24580465016E+03  0.00000000000E+00 0. -1.
        -12    1    6    6    0    0 -0.28728644480E+02 -0.24882870162E+03  0.13256186104E+03  0.28339672681E+03  0.00000000000E+00 0.  1.
</event>
<event>
12    1  0.1081556E+000  0.2877859E+03  0.7818608E-02  0.1091511E+00
         -2   -1    0    0    0  501 -0.00000000000E+00  0.00000000000E+00  0.55512461341E+02  0.55512461341E+02  0.00000000000E+00 0.  1.
          2   -1    0    0  502    0  0.00000000000E+00 -0.00000000000E+00 -0.36153839545E+04  0.36153839545E+04  0.00000000000E+00 0. -1.
          6    2    1    2  502    0  0.10189540882E+03  0.20729660993E+03 -0.37404476614E+03  0.47212450722E+03  0.17215546582E+03 0.  0.
         24    2    3    3    0    0  0.11886825917E+03  0.21924687700E+03 -0.31722149702E+03  0.41144617134E+03  0.80371746423E+02 0.  0.
         -6    2    1    2    0  501 -0.10189540882E+03 -0.20729660993E+03 -0.31858267270E+04  0.31987719086E+04  0.17115849377E+03 0.  0.
        -24    2    5    5    0    0 -0.13015595639E+03 -0.15964925607E+03 -0.20720636230E+04  0.20836220215E+04  0.74863961794E+02 0.  0.
          5    1    3    3  502    0 -0.16972850342E+02 -0.11950267072E+02 -0.56823269122E+02  0.60678335883E+02  0.47000000000E+01 0. -1.
        -11    1    4    4    0    0  0.47709964011E+02  0.11838618376E+03 -0.10219641181E+03  0.16351035368E+03  0.00000000000E+00 0.  1.
         12    1    4    4    0    0  0.71158295154E+02  0.10086069324E+03 -0.21502508521E+03  0.24793581766E+03  0.00000000000E+00 0. -1.
         -5    1    5    5    0  501  0.28260547567E+02 -0.47647353860E+02 -0.11137631040E+04  0.11151498871E+04  0.47000000000E+01 0.  1.
         13    1    6    6    0    0 -0.36794363004E+02 -0.49712387320E+01 -0.44946529470E+03  0.45099621895E+03  0.00000000000E+00 0. -1.
        -14    1    6    6    0    0 -0.93361593386E+02 -0.15467801734E+03 -0.16225983283E+04  0.16326258025E+04  0.00000000000E+00 0.  1.
</event>
<event>
12    1  0.1081556E+000  0.4400389E+03  0.7818608E-02  0.1030735E+00
          2   -1    0    0  502    0  0.00000000000E+00  0.00000000000E+00  0.11531611505E+04  0.11531611505E+04  0.00000000000E+00 0. -1.
         -2   -1    0    0    0  501 -0.00000000000E+00 -0.00000000000E+00 -0.17723029474E+03  0.17723029474E+03  0.00000000000E+00 0.  1.
          6    2    1    2  502    0 -0.40281083669E+03  0.41616183645E+02  0.33563606666E+03  0.55355590432E+03  0.17258068568E+03 0.  0.
         24    2    3    3    0    0 -0.14527542970E+03  0.55431999395E+01  0.65688611872E+02  0.17869664493E+03  0.80509748714E+02 0.  0.
         -6    2    1    2    0  501  0.40281083669E+03 -0.41616183645E+02  0.64029478913E+03  0.77683554095E+03  0.17177765805E+03 0.  0.
        -24    2    5    5    0    0  0.34824669253E+03  0.17018301002E+02  0.54873092972E+03  0.65509286574E+03  0.80471411612E+02 0.  0.
          5    1    3    3  502    0 -0.25753540698E+03  0.36072983706E+02  0.26994745479E+03  0.37485925939E+03  0.47000000000E+01 0. -1.
        -13    1    4    4    0    0 -0.95152838031E+02  0.36065085132E+02  0.63551968331E+02  0.11997335383E+03  0.00000000000E+00 0.  1.
         14    1    4    4    0    0 -0.50122591672E+02 -0.30521885192E+02  0.21366435416E+01  0.58723291097E+02  0.00000000000E+00 0. -1.
         -5    1    5    5    0  501  0.54564144158E+02 -0.58634484647E+02  0.91563859408E+02  0.12174267521E+03  0.47000000000E+01 0.  1.
         11    1    6    6    0    0  0.22638824115E+03 -0.12972969750E+01  0.28485695413E+03  0.36386371491E+03  0.00000000000E+00 0. -1.
        -12    1    6    6    0    0  0.12185845138E+03  0.18315597977E+02  0.26387397559E+03  0.29122915083E+03  0.00000000000E+00 0.  1.
</event>
<event>
12    1  0.1081556E+000  0.9394771E+03  0.7818608E-02  0.9377536E-01
         -4   -1    0    0    0  501 -0.00000000000E+00  0.00000000000E+00  0.69439710368E+03  0.69439710368E+03  0.00000000000E+00 0.  1.
          4   -1    0    0  502    0  0.00000000000E+00 -0.00000000000E+00 -0.12881570696E+04  0.12881570696E+04  0.00000000000E+00 0. -1.
          6    2    1    2  502    0 -0.92203084415E+03  0.53824077663E+02 -0.18253464070E+03  0.95663820146E+03  0.16970516945E+03 0.  0.
         24    2    3    3    0    0 -0.87359444611E+03  0.45067694693E+02 -0.20558973488E+03  0.90208193449E+03  0.79286342278E+02 0.  0.
         -6    2    1    2    0  501  0.92203084415E+03 -0.53824077663E+02 -0.41122532519E+03  0.10259159718E+04  0.17423950240E+03 0.  0.
        -24    2    5    5    0    0  0.66279332499E+03 -0.59321101553E+02 -0.36104115499E+03  0.76176667773E+03  0.84402434619E+02 0.  0.
          5    1    3    3  502    0 -0.48436398033E+02  0.87563829700E+01  0.23055094180E+02  0.54556266961E+02  0.47000000000E+01 0. -1.
        -11    1    4    4    0    0 -0.24738383209E+03 -0.17884730871E+02 -0.39365294212E+02  0.25113392914E+03  0.00000000000E+00 0.  1.
         12    1    4    4    0    0 -0.62621061402E+03  0.62952425563E+02 -0.16622444067E+03  0.65094800535E+03  0.00000000000E+00 0. -1.
         -5    1    5    5    0  501  0.25923751916E+03  0.54970238904E+01 -0.50184170204E+02  0.26414929405E+03  0.47000000000E+01 0.  1.
         13    1    6    6    0    0  0.65696346271E+03 -0.50670255012E+02 -0.34832129652E+03  0.74531616894E+03  0.00000000000E+00 0. -1.
        -14    1    6    6    0    0  0.58298622828E+01 -0.86508465408E+01 -0.12719858467E+02  0.16450508792E+02  0.00000000000E+00 0.  1.
</event>
<event>
12    1  0.1581598E+000  0.2275426E+03  0.7818608E-02  0.1128381E+00
          1   -1    0    0  502    0  0.00000000000E+00  0.00000000000E+00  0.12723810836E+04  0.12723810836E+04  0.00000000000E+00 0. -1.
         -1   -1    0    0    0  501 -0.00000000000E+00 -0.00000000000E+00 -0.34576742734E+03  0.34576742734E+03  0.00000000000E+00 0.  1.
          6    2    1    2  502    0  0.57704310954E+02  0.12962764965E+03 -0.29541856500E+03  0.37601257502E+03  0.18433722623E+03 0.  0.
         24    2    3    3    0    0  0.37971768371E+02  0.14203087829E+03 -0.13595951600E+03  0.21479070422E+03  0.77688036713E+02 0.  0.
         -6    2    1    2    0  501 -0.57704310954E+02 -0.12962764965E+03  0.12220322212E+04  0.12421359359E+04  0.17148124804E+03 0.  0.
        -24    2    5    5    0    0 -0.99485898189E+02 -0.59660354619E+02  0.84318157078E+03  0.85459106267E+03  0.76902023664E+02 0.  0.
          5    1    3    3  502    0  0.19732542583E+02 -0.12403228635E+02 -0.15945904900E+03  0.16122187080E+03  0.47000000000E+01 0. -1.
        -11    1    4    4    0    0  0.46352414864E+02  0.61110247530E+02 -0.99524798735E+02  0.12565108149E+03  0.00000000000E+00 0.  1.
         12    1    4    4    0    0 -0.83806464929E+01  0.80920630759E+02 -0.36434717263E+02  0.89139622728E+02  0.00000000000E+00 0. -1.
         -5    1    5    5    0  501  0.41781587235E+02 -0.69967295034E+02  0.37885065047E+03  0.38754487323E+03  0.47000000000E+01 0.  1.
         13    1    6    6    0    0 -0.35353404140E+02 -0.65845005887E+02  0.44697888973E+03  0.45318379919E+03  0.00000000000E+00 0. -1.
        -14    1    6    6    0    0 -0.64132494049E+02  0.61846512673E+01  0.39620268105E+03  0.40140726348E+03  0.00000000000E+00 0.  1.
</event>
<event>
12    1  0.1081556E+000  0.9245720E+03  0.7818608E-02  0.9395376E-01
          1   -1    0    0  502    0  0.00000000000E+00  0.00000000000E+00  0.88591075165E+03  0.88591075165E+03  0.00000000000E+00 0. -1.
         -1   -1    0    0    0  501 -0.00000000000E+00 -0.00000000000E+00 -0.13006671147E+04  0.13006671147E+04  0.00000000000E+00 0.  1.
          6    2    1    2  502    0  0.40070334652E+03  0.81518582898E+03 -0.76286679674E+03  0.11987690613E+04  0.17317738053E+03 0.  0.
         24    2    3    3    0    0  0.34273336773E+03  0.54884866092E+03 -0.53794568454E+03  0.84534636504E+03  0.80770684197E+02 0.  0.
         -6    2    1    2    0  501 -0.40070334652E+03 -0.81518582898E+03  0.34811043367E+03  0.98780880505E+03  0.17173891122E+03 0.  0.
        -24    2    5    5    0    0 -0.40413263897E+03 -0.78737127936E+03  0.31181818123E+03  0.94171513082E+03  0.79498981333E+02 0.  0.
          5    1    3    3  502    0  0.57969978794E+02  0.26633716806E+03 -0.22492111221E+03  0.35342269628E+03  0.47000000000E+01 0. -1.
        -13    1    4    4    0    0  0.36093164449E+02  0.11459979276E+03 -0.88730268352E+02  0.14936160666E+03  0.00000000000E+00 0.  1.
         14    1    4    4    0    0  0.30664020328E+03  0.43424886816E+03 -0.44921541619E+03  0.69598475838E+03  0.00000000000E+00 0. -1.
         -5    1    5    5    0  501  0.34292924447E+01 -0.27814549622E+02  0.36292252434E+02  0.46093674231E+02  0.47000000000E+01 0.  1.
         11    1    6    6    0    0 -0.31303576036E+03 -0.54660108475E+03  0.24404068675E+03  0.67551461117E+03  0.00000000000E+00 0. -1.
        -12    1    6    6    0    0 -0.91096878604E+02 -0.24077019461E+03  0.67777494477E+02  0.26620051965E+03  0.00000000000E+00 0.  1.
</event>
<event>
12    1  0.1081556E+000  0.1036180E+04  0.7818608E-02  0.9269729E-01
         -2   -1    0    0    0  501 -0.00000000000E+00  0.00000000000E+00  0.91416582828E+03  0.91416582828E+03  0.00000000000E+00 0.  1.
          2   -1    0    0  502    0  0.00000000000E+00 -0.00000000000E+00 -0.23724781385E+04  0.23724781385E+04  0.00000000000E+00 0. -1.
          6    2    1    2  502    0  0.88055912572E+03  0.51815991966E+03  0.43859709296E+03  0.11251725642E+04  0.17254510424E+03 0.  0.
         24    2    3    3    0    0  0.58118982554E+03  0.33443808281E+03  0.36003931656E+03  0.76521547582E+03  0.79347151323E+02 0.  0.
         -6    2    1    2    0  501 -0.88055912572E+03 -0.51815991966E+03 -0.18969094032E+04  0.21614714026E+04  0.17268255320E+03 0.  0.
        -24    2    5    5    0    0 -0.87939380705E+03 -0.50143292978E+03 -0.18828312192E+04  0.21390786488E+04  0.76391196343E+02 0.  0.
          5    1    3    3  502    0  0.29936930018E+03  0.18372183685E+03  0.78557776399E+02  0.35995708836E+03  0.47000000000E+01 0. -1.
        -11    1    4    4    0    0  0.43487920697E+03  0.28083315375E+03  0.25315625114E+03  0.57625972651E+03  0.00000000000E+00 0.  1.
         12    1    4    4    0    0  0.14631061857E+03  0.53604929054E+02  0.10688306542E+03  0.18895574931E+03  0.00000000000E+00 0. -1.
         -5    1    5    5    0  501 -0.11653186730E+01 -0.16726989885E+02 -0.14078183978E+02  0.22392753791E+02  0.47000000000E+01 0.  1.
         11    1    6    6    0    0 -0.67825759169E+03 -0.40762562921E+03 -0.14138808639E+04  0.16202626675E+04  0.00000000000E+00 0. -1.
        -12    1    6    6    0    0 -0.20113621535E+03 -0.93807300563E+02 -0.46895035530E+03  0.51881598135E+03  0.00000000000E+00 0.  1.
</event>
<event>
12    1  0.1081556E+000  0.4324881E+03  0.7818608E-02  0.1033077E+00
         -2   -1    0    0    0  501 -0.00000000000E+00  0.00000000000E+00  0.29971216145E+03  0.29971216145E+03  0.00000000000E+00 0.  1.
          2   -1    0    0  502    0  0.00000000000E+00 -0.00000000000E+00 -0.22647317303E+04  0.22647317303E+04  0.00000000000E+00 0. -1.
          6    2    1    2  502    0 -0.38634609173E+03  0.90378345045E+02  0.10872730386E+03  0.44611385311E+03  0.17252360848E+03 0.  0.
         24    2    3    3    0    0 -0.31675633550E+03  0.22067491784E+02  0.46956309238E+02  0.33058527387E+03  0.79121286942E+02 0.  0.
         -6    2    1    2    0  501  0.38634609173E+03 -0.90378345045E+02 -0.20737468727E+04  0.21183300386E+04  0.17165230176E+03 0.  0.
        -24    2    5    5    0    0  0.23183277931E+03  0.11020850245E+02 -0.10730619156E+04  0.11007109380E+04  0.78960735276E+02 0.  0.
          5    1    3    3  502    0 -0.69589756233E+02  0.68310853261E+02  0.61770994625E+02  0.11552857925E+03  0.47000000000E+01 0. -1.
        -13    1    4    4    0    0 -0.25478826420E+03  0.48467562144E+02  0.44766918389E+02  0.26319240327E+03  0.00000000000E+00 0.  1.
         14    1    4    4    0    0 -0.61968071298E+02 -0.26400070360E+02  0.21893908490E+01  0.67392870600E+02  0.00000000000E+00 0. -1.
         -5    1    5    5    0  501  0.15451331242E+03 -0.10139919529E+03 -0.10006849571E+04  0.10176191006E+04  0.47000000000E+01 0.  1.
         11    1    6    6    0    0  0.29746757078E+02  0.26647081565E+02 -0.24303285764E+03  0.24629231901E+03  0.00000000000E+00 0. -1.
        -12    1    6    6    0    0  0.20208602223E+03 -0.15626231320E+02 -0.83002905793E+03  0.85441861900E+03  0.00000000000E+00 0.  1.
</event>
<event>
12    1  0.1081556E+000  0.1917211E+03  0.7818608E-02  0.1156918E+00
          1   -1    0    0  502    0  0.00000000000E+00  0.00000000000E+00  0.56838187767E+03  0.56838187767E+03  0.00000000000E+00 0. -1.
         -1   -1    0    0    0  501 -0.00000000000E+00 -0.00000000000E+00 -0.89879640967E+02  0.89879640967E+02  0.00000000000E+00 0.  1.
          6    2    1    2  502    0 -0.83925310353E+02 -0.51933992369E-01  0.64403910974E+02  0.20168159492E+03  0.17170946848E+03 0.  0.
         24    2    3    3    0    0 -0.30567244347E+02  0.58893654538E+02 -0.26573899088E+00  0.99085692262E+02  0.73587259917E+02 0.  0.
         -6    2    1    2    0  501  0.83925310353E+02  0.51933992369E-01  0.41409832573E+03  0.45657992372E+03  0.17304433812E+03 0.  0.
        -24    2    5    5    0    0  0.76391105475E+02  0.49131158002E+02  0.17086019177E+03  0.20828088167E+03  0.77060034087E+02 0.  0.
          5    1    3    3  502    0 -0.53358066007E+02 -0.58945588530E+02  0.64669649965E+02  0.10259590266E+03  0.47000000000E+01 0. -1.
        -11    1    4    4    0    0  0.20831396063E+02  0.31825937894E+02 -0.11872654288E+02  0.39847174362E+02  0.00000000000E+00 0.  1.
         12    1    4    4    0    0 -0.51398640410E+02  0.27067716644E+02  0.11606915297E+02  0.59238517901E+02  0.00000000000E+00 0. -1.
         -5    1    5    5    0  501  0.75342048788E+01 -0.49079224010E+02  0.24323813396E+03  0.24829904206E+03  0.47000000000E+01 0.  1.
         13    1    6    6    0    0  0.11264738254E+02  0.43985121224E+02  0.10997110972E+03  0.11897575463E+03  0.00000000000E+00 0. -1.
        -14    1    6    6    0    0  0.65126367220E+02  0.51460367787E+01  0.60889082053E+02  0.89305127037E+02  0.00000000000E+00 0.  1.
</event>
<event>
12    1  0.1121775E+000  0.1894114E+04  0.7818608E-02  0.8657792E-01
          2   -1    0    0  502    0  0.00000000000E+00  0.00000000000E+00  0.20055921690E+04  0.20055921690E+04  0.00000000000E+00 0. -1.
         -2   -1    0    0    0  501 -0.00000000000E+00 -0.00000000000E+00 -0.18089211412E+04  0.18089211412E+04  0.00000000000E+00 0.  1.
          6    2    1    2  502    0 -0.14289479580E+04  0.12313197999E+04 -0.10265661556E+03  0.18969075194E+04  0.17227605818E+03 0.  0.
         24    2    3    3    0    0 -0.56069336749E+03  0.41538329041E+03 -0.43821413689E+02  0.70396909166E+03  0.82047762981E+02 0.  0.
         -6    2    1    2    0  501  0.14289479580E+04 -0.12313197999E+04  0.29932764330E+03  0.19176057908E+04  0.17197155176E+03 0.  0.
        -24    2    5    5    0    0  0.46498571424E+03 -0.38996527565E+03  0.50782708527E+02  0.61418823781E+03  0.79772660225E+02 0.  0.
          5    1    3    3  502    0 -0.86825459049E+03  0.81593650949E+03 -0.58835201870E+02  0.11929384277E+04  0.47000000000E+01 0. -1.
        -13    1    4    4    0    0 -0.42877158373E+03  0.35322956200E+03 -0.17674677041E+02  0.55581344774E+03  0.00000000000E+00 0.  1.
         14    1    4    4    0    0 -0.13192178376E+03  0.62153728414E+02 -0.26146736648E+02  0.14815564392E+03  0.00000000000E+00 0. -1.
         -5    1    5    5    0  501  0.96396224374E+03 -0.84135452426E+03  0.24854493477E+03  0.13034175530E+04  0.47000000000E+01 0.  1.
         13    1    6    6    0    0  0.42144494241E+03 -0.37923257368E+03  0.51976215360E+02  0.56932829843E+03  0.00000000000E+00 0. -1.
        -14    1    6    6    0    0  0.43540771828E+02 -0.10732701966E+02 -0.11935068330E+01  0.44859939383E+02  0.00000000000E+00 0.  1.
</event>
<event>
12    1  0.1081556E+000  0.9941912E+03  0.7818608E-02  0.9314939E-01
         -2   -1    0    0    0  501 -0.00000000000E+00  0.00000000000E+00  0.77999824461E+03  0.77999824461E+03  0.00000000000E+00 0.  1.
          2   -1    0    0  502    0  0.00000000000E+00 -0.00000000000E+00 -0.24220752032E+04  0.24220752032E+04  0.00000000000E+00 0. -1.
          6    2    1    2  502    0 -0.96049272522E+03  0.18971950477E+03  0.28457117874E+03  0.10339612892E+04  0.17191691623E+03 0.  0.
         24    2    3    3    0    0 -0.44180485044E+03  0.11440603161E+03  0.19435443531E+03  0.50210568710E+03  0.77821645770E+02 0.  0.
         -6    2    1    2    0  501  0.96049272522E+03 -0.18971950477E+03 -0.19266481373E+04  0.21681121586E+04  0.17377434093E+03 0.  0.
        -24    2    5    5    0    0  0.64391928909E+03 -0.10723977602E+03 -0.11762956566E+04  0.13495325465E+04  0.10693082702E+03 0.  0.
          5    1    3    3  502    0 -0.51868787478E+03  0.75313473165E+02  0.90216743425E+02  0.53185560209E+03  0.47000000000E+01 0. -1.
        -13    1    4    4    0    0 -0.31832453567E+03  0.91669936978E+02  0.10325064177E+03  0.34697922471E+03  0.00000000000E+00 0.  1.
         14    1    4    4    0    0 -0.12348031477E+03  0.22736094629E+02  0.91103793545E+02  0.15512646239E+03  0.00000000000E+00 0. -1.
         -5    1    5    5    0  501  0.31657343613E+03 -0.82479728753E+02 -0.75035248067E+03  0.81857961211E+03  0.47000000000E+01 0.  1.
         13    1    6    6    0    0  0.21060419158E+03 -0.31048970136E+02 -0.49100826933E+03  0.53517033233E+03  0.00000000000E+00 0. -1.
        -14    1    6    6    0    0  0.43331509752E+03 -0.76190805883E+02 -0.68528738729E+03  0.81436221414E+03  0.00000000000E+00 0.  1.
</event>
<event>
12    1  0.1081556E+000  0.6691160E+03  0.7818608E-02  0.9771556E-01
          1   -1    0    0  502    0  0.00000000000E+00  0.00000000000E+00  0.82146950660E+03  0.82146950660E+03  0.00000000000E+00 0. -1.
         -1   -1    0    0    0  501 -0.00000000000E+00 -0.00000000000E+00 -0.69126932696E+03  0.69126932696E+03  0.00000000000E+00 0.  1.
          6    2    1    2  502    0 -0.64520444608E+03 -0.46183395470E+02 -0.28281895021E+03  0.72624856035E+03  0.17037819564E+03 0.  0.
         24    2    3    3    0    0 -0.30904119075E+03 -0.32305547728E+02 -0.70290923220E+02  0.32826793123E+03  0.79176478800E+02 0.  0.
         -6    2    1    2    0  501  0.64520444608E+03  0.46183395470E+02  0.41301912985E+03  0.78649027321E+03  0.17193157061E+03 0.  0.
        -24    2    5    5    0    0  0.51534266045E+03 -0.14063096278E+02  0.28505409364E+03  0.59442032859E+03  0.79396866310E+02 0.  0.
          5    1    3    3  502    0 -0.33616325533E+03 -0.13877847742E+02 -0.21252802699E+03  0.39798062911E+03  0.47000000000E+01 0. -1.
        -13    1    4    4    0    0 -0.17811439363E+03  0.17164849346E+02 -0.56407702483E+02  0.18761982350E+03  0.00000000000E+00 0.  1.
         14    1    4    4    0    0 -0.13092679712E+03 -0.49470397074E+02 -0.13883220737E+02  0.14064810773E+03  0.00000000000E+00 0. -1.
         -5    1    5    5    0  501  0.12986178563E+03  0.60246491748E+02  0.12796503621E+03  0.19206994462E+03  0.47000000000E+01 0.  1.
         11    1    6    6    0    0  0.43895361356E+03 -0.16438055390E+02  0.27263579575E+03  0.51699203248E+03  0.00000000000E+00 0. -1.
        -12    1    6    6    0    0  0.76389046895E+02  0.23749591129E+01  0.12418297889E+02  0.77428296111E+02  0.00000000000E+00 0.  1.
</event>
<event>
12    1  0.1081556E+000  0.2320276E+03  0.7818608E-02  0.1125221E+00
          2   -1    0    0  502    0  0.00000000000E+00  0.00000000000E+00  0.27038958538E+04  0.27038958538E+04  0.00000000000E+00 0. -1.
         -2   -1    0    0    0  501 -0.00000000000E+00 -0.00000000000E+00 -0.53050347195E+02  0.53050347195E+02  0.00000000000E+00 0.  1.
          6    2    1    2  502    0 -0.39521016611E+02  0.15131081641E+03  0.23640735845E+03  0.33140633783E+03  0.17171152468E+03 0.  0.
         24    2    3    3    0    0 -0.64732233933E+02  0.16283811593E+03  0.13947584187E+03  0.23047917092E+03  0.54411613238E+02 0.  0.
         -6    2    1    2    0  501  0.39521016611E+02 -0.15131081641E+03  0.24144381481E+04  0.24255398631E+04  0.17109992003E+03 0.  0.
        -24    2    5    5    0    0 -0.41844950844E+02 -0.94634182263E+02  0.11911052359E+04  0.11981857310E+04  0.78808214323E+02 0.  0.
          5    1    3    3  502    0  0.25211217323E+02 -0.11527299519E+02  0.96931516583E+02  0.10092716691E+03  0.47000000000E+01 0. -1.
        -11    1    4    4    0    0 -0.13123397948E+02  0.10426325143E+03  0.86852004328E+02  0.13633165380E+03  0.00000000000E+00 0.  1.
         12    1    4    4    0    0 -0.51608835985E+02  0.58574864502E+02  0.52623837545E+02  0.94147517127E+02  0.00000000000E+00 0. -1.
         -5    1    5    5    0  501  0.81365967454E+02 -0.56676634146E+02  0.12233329122E+04  0.12273541321E+04  0.47000000000E+01 0.  1.
         11    1    6    6    0    0 -0.20794972876E+02 -0.58246658745E+02  0.10242822828E+04  0.10261477958E+04  0.00000000000E+00 0. -1.
        -12    1    6    6    0    0 -0.21049977967E+02 -0.36387523518E+02  0.16682295318E+03  0.17203793520E+03  0.00000000000E+00 0.  1.
</event>
<event>
12    1  0.1081556E+000  0.4258097E+03  0.7818608E-02  0.1035192E+00
          2   -1    0    0  502    0  0.00000000000E+00  0.00000000000E+00  0.12714839068E+04  0.12714839068E+04  0.00000000000E+00 0. -1.
         -2   -1    0    0    0  501 -0.00000000000E+00 -0.00000000000E+00 -0.58648857845E+03  0.58648857845E+03  0.00000000000E+00 0.  1.
          6    2    1    2  502    0  0.11241567440E+03  0.37266240993E+03 -0.46565773287E+03  0.63112998841E+03  0.17312822551E+03 0.  0.
         24    2    3    3    0    0  0.83081909644E+02  0.18588202872E+03 -0.34046739555E+03  0.40432149846E+03  0.78122303912E+02 0.  0.
         -6    2    1    2    0  501 -0.11241567440E+03 -0.37266240993E+03  0.11506530612E+04  0.12268424968E+04  0.17212056565E+03 0.  0.
        -24    2    5    5    0    0 -0.43211917908E+02 -0.30178168586E+03  0.73652156003E+03  0.80100188435E+03  0.78743600279E+02 0.  0.
          5    1    3    3  502    0  0.29333764759E+02  0.18678038121E+03 -0.12519033731E+03  0.22680848995E+03  0.47000000000E+01 0. -1.
        -13    1    4    4    0    0  0.55700805143E+02  0.17883920255E+03 -0.31381652239E+03  0.36546798736E+03  0.00000000000E+00 0.  1.
         14    1    4    4    0    0  0.27381104501E+02  0.70428261776E+01 -0.26650873165E+02  0.38853511099E+02  0.00000000000E+00 0. -1.
         -5    1    5    5    0  501 -0.69203756494E+02 -0.70880724069E+02  0.41413150118E+03  0.42584061246E+03  0.47000000000E+01 0.  1.
         13    1    6    6    0    0 -0.66091239270E+02 -0.24139837779E+03  0.58284414060E+03  0.63430948356E+03  0.00000000000E+00 0. -1.
        -14    1    6    6    0    0  0.22879321361E+02 -0.60383308071E+02  0.15367741943E+03  0.16669240079E+03  0.00000000000E+00 0.  1.
</event>
<event>
12    1  0.1126901E+000  0.4639717E+03  0.7818608E-02  0.1023636E+00
         -2   -1    0    0    0  501 -0.00000000000E+00  0.00000000000E+00  0.49592202820E+03  0.49592202820E+03  0.00000000000E+00 0.  1.
          2   -1    0    0  502    0  0.00000000000E+00 -0.00000000000E+00 -0.87768864905E+03  0.87768864905E+03  0.00000000000E+00 0. -1.
          6    2    1    2  502    0  0.51732713231E+02 -0.42397304391E+03  0.29667745639E+03  0.55360113406E+03  0.18980855335E+03 0.  0.
         24    2    3    3    0    0 -0.32888894290E+02 -0.12420488845E+03  0.13512768480E+03  0.20268493013E+03  0.79455371223E+02 0.  0.
         -6    2    1    2    0  501 -0.51732713231E+02  0.42397304391E+03 -0.67844407724E+03  0.82000954319E+03  0.17233650046E+03 0.  0.
        -24    2    5    5    0    0 -0.98445859795E+02  0.26415813708E+03 -0.45804260336E+03  0.54374549884E+03  0.79906397255E+02 0.  0.
          5    1    3    3  502    0  0.84621607521E+02 -0.29976815546E+03  0.16154977159E+03  0.35091620394E+03  0.47000000000E+01 0. -1.
        -11    1    4    4    0    0  0.48219217616E+01 -0.10351464145E+03  0.11618737724E+03  0.15568570440E+03  0.00000000000E+00 0.  1.
         12    1    4    4    0    0 -0.37710816051E+02 -0.20690247003E+02  0.18940307563E+02  0.46999225726E+02  0.00000000000E+00 0. -1.
         -5    1    5    5    0  501  0.46713146564E+02  0.15981490684E+03 -0.22040147388E+03  0.27626404435E+03  0.47000000000E+01 0.  1.
         13    1    6    6    0    0  0.66891973335E+01  0.83170126157E+02 -0.14116860176E+03  0.16398350334E+03  0.00000000000E+00 0. -1.
        -14    1    6    6    0    0 -0.10513505713E+03  0.18098801092E+03 -0.31687400160E+03  0.37976199549E+03  0.00000000000E+00 0.  1.
</event>
<event>
12    1  0.1081556E+000  0.2437925E+03  0.7818608E-02  0.1117292E+00
         -1   -1    0    0    0  501 -0.00000000000E+00  0.00000000000E+00  0.22569749697E+03  0.22569749697E+03  0.00000000000E+00 0.  1.
          1   -1    0    0  502    0  0.00000000000E+00 -0.00000000000E+00 -0.36229522155E+03  0.36229522155E+03  0.00000000000E+00 0. -1.
          6    2    1    2  502    0 -0.17678331624E+02 -0.16994152132E+03  0.85251362829E+02  0.25872858577E+03  0.17458534346E+03 0.  0.
         24    2    3    3    0    0 -0.21207368053E+02 -0.24092169088E+02 -0.56249932181E+01  0.86783566257E+02  0.80433585972E+02 0.  0.
         -6    2    1    2    0  501  0.17678331624E+02  0.16994152132E+03 -0.22184908741E+03  0.32926413275E+03  0.17322011272E+03 0.  0.
        -24    2    5    5    0    0  0.16932899715E+02  0.60482632911E+02 -0.26417990104E+02  0.10521679910E+03  0.80173515796E+02 0.  0.
          5    1    3    3  502    0  0.35290364291E+01 -0.14584935224E+03  0.90876356047E+02  0.17194501951E+03  0.47000000000E+01 0. -1.
        -13    1    4    4    0    0 -0.47541538748E+02 -0.26226107353E+02  0.11229758975E+02  0.55444694066E+02  0.00000000000E+00 0.  1.
         14    1    4    4    0    0  0.26334170694E+02  0.21339382651E+01 -0.16854752194E+02  0.31338872191E+02  0.00000000000E+00 0. -1.
         -5    1    5    5    0  501  0.74543190938E+00  0.10945888841E+03 -0.19543109731E+03  0.22404733365E+03  0.47000000000E+01 0.  1.
         11    1    6    6    0    0  0.28977823542E+01 -0.11176432605E+02 -0.29962594954E+02  0.32110230219E+02  0.00000000000E+00 0. -1.
        -12    1    6    6    0    0  0.14035117361E+02  0.71659065516E+02  0.35446048502E+01  0.73106568880E+02  0.00000000000E+00 0.  1.
</event>
<event>
12    1  0.1081556E+000  0.6496148E+03  0.7818608E-02  0.9807502E-01
          2   -1    0    0  502    0  0.00000000000E+00  0.00000000000E+00  0.25595556282E+04  0.25595556282E+04  0.00000000000E+00 0. -1.
         -2   -1    0    0    0  501 -0.00000000000E+00 -0.00000000000E+00 -0.17178936117E+03  0.17178936117E+03  0.00000000000E+00 0.  1.
          6    2    1    2  502    0 -0.57572392184E+03 -0.24731928498E+03  0.91977386255E+03  0.11260251864E+04  0.17124222384E+03 0.  0.
         24    2    3    3    0    0 -0.49918742372E+03 -0.16899105092E+03  0.81951880647E+03  0.97747784017E+03  0.78139583947E+02 0.  0.
         -6    2    1    2    0  501  0.57572392184E+03  0.24731928498E+03  0.14679924045E+04  0.16053198030E+04  0.17153748096E+03 0.  0.
        -24    2    5    5    0    0  0.54963884313E+03  0.19558172430E+03  0.13737565395E+04  0.14945962971E+04  0.79094833183E+02 0.  0.
          5    1    3    3  502    0 -0.76536498119E+02 -0.78328234057E+02  0.10025505608E+03  0.14854734621E+03  0.47000000000E+01 0. -1.
        -13    1    4    4    0    0 -0.27723622882E+03 -0.11015225416E+03  0.39692330319E+03  0.49652950998E+03  0.00000000000E+00 0.  1.
         14    1    4    4    0    0 -0.22195119490E+03 -0.58838796761E+02  0.42259550328E+03  0.48094833019E+03  0.00000000000E+00 0. -1.
         -5    1    5    5    0  501  0.26085078709E+02  0.51737560674E+02  0.94235864994E+02  0.11072350594E+03  0.47000000000E+01 0.  1.
         13    1    6    6    0    0  0.26539875515E+03  0.11731641732E+03  0.76566340165E+03  0.81880405814E+03  0.00000000000E+00 0. -1.
        -14    1    6    6    0    0  0.28424008797E+03  0.78265306984E+02  0.60809313786E+03  0.67579223894E+03  0.00000000000E+00 0.  1.
</event>
<event>
12    1  0.1081556E+000  0.2807690E+03  0.7818608E-02  0.1095270E+00
          2   -1    0    0  502    0  0.00000000000E+00  0.00000000000E+00  0.14308152453E+04  0.14308152453E+04  0.00000000000E+00 0. -1.
         -2   -1    0    0    0  501 -0.00000000000E+00 -0.00000000000E+00 -0.11226726470E+03  0.11226726470E+03  0.00000000000E+00 0.  1.
          6    2    1    2  502    0 -0.89001073020E+02  0.20458921043E+03  0.10728474488E+03  0.29942619125E+03  0.16842829779E+03 0.  0.
         24    2    3    3    0    0 -0.12369147802E+03  0.15821272949E+03  0.84533866990E+02  0.23702511250E+03  0.93295657901E+02 0.  0.
         -6    2    1    2    0  501  0.89001073020E+02 -0.20458921043E+03  0.12112632357E+04  0.12436563187E+04  0.17246587177E+03 0.  0.
        -24    2    5    5    0    0  0.28989554466E+02 -0.72628943401E+02  0.79047270740E+03  0.79857019993E+03  0.82169978649E+02 0.  0.
          5    1    3    3  502    0  0.34690404997E+02  0.46376480949E+02  0.22750877891E+02  0.62401078748E+02  0.47000000000E+01 0. -1.
        -13    1    4    4    0    0 -0.56680737046E+02  0.51218387170E+02 -0.12998756256E+02  0.77491914420E+02  0.00000000000E+00 0.  1.
         14    1    4    4    0    0 -0.67010740972E+02  0.10699434232E+03  0.97532623246E+02  0.15953319808E+03  0.00000000000E+00 0. -1.
         -5    1    5    5    0  501  0.60011518555E+02 -0.13196026703E+03  0.42079052832E+03  0.44508611881E+03  0.47000000000E+01 0.  1.
         11    1    6    6    0    0  0.52054216039E+01 -0.84768474489E+02  0.53403557644E+03  0.54074650954E+03  0.00000000000E+00 0. -1.
        -12    1    6    6    0    0  0.23784132862E+02  0.12139531088E+02  0.25643713096E+03  0.25782369039E+03  0.00000000000E+00 0.  1.
</event>
<event>
12    1  0.1081556E+000  0.2582136E+03  0.7818608E-02  0.1108221E+00
         -2   -1    0    0    0  501 -0.00000000000E+00  0.00000000000E+00  0.74004486919E+03  0.74004486919E+03  0.00000000000E+00 0.  1.
          2   -1    0    0  502    0  0.00000000000E+00 -0.00000000000E+00 -0.24344491533E+03  0.24344491533E+03  0.00000000000E+00 0. -1.
          6    2    1    2  502    0  0.77096299743E+02 -0.17450132044E+03  0.63812472677E+03  0.68790987214E+03  0.17211122858E+03 0.  0.
         24    2    3    3    0    0  0.72732464104E+02 -0.91946065562E+02  0.54607038039E+03  0.56409345216E+03  0.79148418309E+02 0.  0.
         -6    2    1    2    0  501 -0.77096299743E+02  0.17450132044E+03 -0.14152477291E+03  0.29557991239E+03  0.17590813792E+03 0.  0.
        -24    2    5    5    0    0  0.13461155550E+02  0.12646052206E+03 -0.11471934506E+03  0.18951770431E+03  0.81135477873E+02 0.  0.
          5    1    3    3  502    0  0.43638356386E+01 -0.82555254881E+02  0.92054346383E+02  0.12381641999E+03  0.47000000000E+01 0. -1.
        -13    1    4    4    0    0  0.22933354012E+02 -0.83432463098E+02  0.40789459832E+03  0.41697112366E+03  0.00000000000E+00 0.  1.
         14    1    4    4    0    0  0.49799110092E+02 -0.85136024635E+01  0.13817578207E+03  0.14712232850E+03  0.00000000000E+00 0. -1.
         -5    1    5    5    0  501 -0.90557455293E+02  0.48040798387E+02 -0.26805427849E+02  0.10606220807E+03  0.47000000000E+01 0.  1.
         13    1    6    6    0    0  0.34738817885E+01  0.98672690486E+01 -0.58980068544E+02  0.59900578784E+02  0.00000000000E+00 0. -1.
        -14    1    6    6    0    0  0.99872737618E+01  0.11659325301E+03 -0.55739276517E+02  0.12961712553E+03  0.00000000000E+00 0.  1.
</event>
<event>
12    1  0.1081556E+000  0.4722518E+03  0.7818608E-02  0.1021287E+00
          2   -1    0    0  502    0  0.00000000000E+00  0.00000000000E+00  0.50834859862E+03  0.50834859862E+03  0.00000000000E+00 0. -1.
         -2   -1    0    0    0  501 -0.00000000000E+00 -0.00000000000E+00 -0.79173017147E+03  0.79173017147E+03  0.00000000000E+00 0.  1.
          6    2    1    2  502    0  0.40559155167E+03 -0.16951817554E+03 -0.57572256043E+03  0.74454036026E+03  0.17217131832E+03 0.  0.
         24    2    3    3    0    0  0.90139519675E+02 -0.74896836673E+02 -0.15761659564E+03  0.21228302584E+03  0.80538330545E+02 0.  0.
         -6    2    1    2    0  501 -0.40559155167E+03  0.16951817554E+03  0.29234098757E+03  0.55553840983E+03  0.17297038232E+03 0.  0.
        -24    2    5    5    0    0 -0.35125521976E+03  0.10484226015E+03  0.28263048805E+03  0.47038093923E+03  0.83702486828E+02 0.  0.
          5    1    3    3  502    0  0.31545203199E+03 -0.94621338864E+02 -0.41810596479E+03  0.53225733443E+03  0.47000000000E+01 0. -1.
        -11    1    4    4    0    0  0.36407843580E+02 -0.33452578169E+01 -0.72000353107E+01  0.37263418154E+02  0.00000000000E+00 0.  1.
         12    1    4    4    0    0  0.53731676094E+02 -0.71551578856E+02 -0.15041656033E+03  0.17501960768E+03  0.00000000000E+00 0. -1.
         -5    1    5    5    0  501 -0.54336331909E+02  0.64675915389E+02  0.97104995227E+01  0.85157470593E+02  0.47000000000E+01 0.  1.
         11    1    6    6    0    0 -0.13411705441E+03  0.22383162244E+02  0.15182929743E+03  0.20381493026E+03  0.00000000000E+00 0. -1.
        -12    1    6    6    0    0 -0.21713816534E+03  0.82459097904E+02  0.13080119062E+03  0.26656600898E+03  0.00000000000E+00 0.  1.
</event>
<event>
12    1  0.1081556E+000  0.1721667E+03  0.7818608E-02  0.1175607E+00
          1   -1    0    0  502    0  0.00000000000E+00  0.00000000000E+00  0.19985165803E+03  0.19985165803E+03  0.00000000000E+00 0. -1.
         -1   -1    0    0    0  501 -0.00000000000E+00 -0.00000000000E+00 -0.10447180605E+04  0.10447180605E+04  0.00000000000E+00 0.  1.
          6    2    1    2  502    0 -0.15244133889E+02  0.11672367797E+02 -0.99892388197E+03  0.10136853077E+04  0.17129026040E+03 0.  0.
         24    2    3    3    0    0 -0.39114710034E+02 -0.49450568229E+02 -0.74567225208E+03  0.75202847949E+03  0.74460776226E+02 0.  0.
         -6    2    1    2    0  501  0.15244133889E+02 -0.11672367797E+02  0.15405747948E+03  0.23088441083E+03  0.17089551309E+03 0.  0.
        -24    2    5    5    0    0 -0.26985998343E+02 -0.10878814260E+02  0.16604997028E+03  0.18672647122E+03  0.80296884854E+02 0.  0.
          5    1    3    3  502    0  0.23870576145E+02  0.61122936025E+02 -0.25325162989E+03  0.26165682822E+03  0.47000000000E+01 0. -1.
        -13    1    4    4    0    0 -0.15296279793E+02  0.17206908029E+01 -0.48817810659E+03  0.48842072101E+03  0.00000000000E+00 0.  1.
         14    1    4    4    0    0 -0.23818430241E+02 -0.51171259031E+02 -0.25749414549E+03  0.26360775848E+03  0.00000000000E+00 0. -1.
         -5    1    5    5    0  501  0.42230132232E+02 -0.79355353660E+00 -0.11992490800E+02  0.44157939616E+02  0.47000000000E+01 0.  1.
         11    1    6    6    0    0 -0.62979829362E+00 -0.43307615359E+02  0.76614764473E+02  0.88010046751E+02  0.00000000000E+00 0. -1.
        -12    1    6    6    0    0 -0.26356200049E+02  0.32428801099E+02  0.89435205807E+02  0.98716424466E+02  0.00000000000E+00 0.  1.
</event>
<event>
12    1  0.1081556E+000  0.7097721E+03  0.7818608E-02  0.9700665E-01
         -1   -1    0    0    0  501 -0.00000000000E+00  0.00000000000E+00  0.47992027993E+03  0.47992027993E+03  0.00000000000E+00 0.  1.
          1   -1    0    0  502    0  0.00000000000E+00 -0.00000000000E+00 -0.12560231357E+04  0.12560231357E+04  0.00000000000E+00 0. -1.
          6    2    1    2  502    0  0.13801494043E+02  0.68856944714E+03 -0.36221756933E+02  0.71058824196E+03  0.17118781837E+03 0.  0.
         24    2    3    3    0    0 -0.15092147400E+02  0.18106329529E+03 -0.37239437541E+02  0.20223751426E+03  0.80632168821E+02 0.  0.
         -6    2    1    2    0  501 -0.13801494043E+02 -0.68856944714E+03 -0.73988109882E+03  0.10253551737E+04  0.17207796777E+03 0.  0.
        -24    2    5    5    0    0 -0.29877273198E+02 -0.16150752773E+03 -0.19264571270E+03  0.26539375662E+03  0.79650125329E+02 0.  0.
          5    1    3    3  502    0  0.28893641443E+02  0.50750615185E+03  0.10176806078E+01  0.50835072770E+03  0.47000000000E+01 0. -1.
        -11    1    4    4    0    0  0.89600321860E+01  0.13839818926E+03 -0.56302494539E+02  0.14968069969E+03  0.00000000000E+00 0.  1.
         12    1    4    4    0    0 -0.24052179586E+02  0.42665106032E+02  0.19063056998E+02  0.52556814569E+02  0.00000000000E+00 0. -1.
         -5    1    5    5    0  501  0.16075779155E+02 -0.52706191941E+03 -0.54723538612E+03  0.75996141704E+03  0.47000000000E+01 0.  1.
         11    1    6    6    0    0 -0.66040444666E+00 -0.97888083431E+02 -0.58391297710E+02  0.11398270334E+03  0.00000000000E+00 0. -1.
        -12    1    6    6    0    0 -0.29216868751E+02 -0.63619444301E+02 -0.13425441499E+03  0.15141105329E+03  0.00000000000E+00 0.  1.
</event>
<event>
12    1  0.1081556E+000  0.2647113E+03  0.7818608E-02  0.1104345E+00
         -1   -1    0    0    0  501 -0.00000000000E+00  0.00000000000E+00  0.31913828355E+03  0.31913828355E+03  0.00000000000E+00 0.  1.
          1   -1    0    0  502    0  0.00000000000E+00 -0.00000000000E+00 -0.32911192835E+04  0.32911192835E+04  0.00000000000E+00 0. -1.
          6    2    1    2  502    0  0.18588185983E+03 -0.75827063272E+02  0.25758525266E+03  0.36992581153E+03  0.17376171705E+03 0.  0.
         24    2    3    3    0    0  0.12326608454E+03 -0.67231031678E+01  0.22926579886E+03  0.27235443212E+03  0.79839855051E+02 0.  0.
         -6    2    1    2    0  501 -0.18588185983E+03  0.75827063272E+02 -0.32295662526E+04  0.32403317555E+04  0.17131811504E+03 0.  0.
        -24    2    5    5    0    0 -0.20061965728E+03  0.45830761998E+02 -0.30171823077E+04  0.30252828987E+04  0.81233205545E+02 0.  0.
          5    1    3    3  502    0  0.62615775291E+02 -0.69103960104E+02  0.28319453800E+02  0.97571379414E+02  0.47000000000E+01 0. -1.
        -13    1    4    4    0    0  0.88433042366E+01  0.19431558963E+02  0.98385144016E+01  0.23507145279E+02  0.00000000000E+00 0.  1.
         14    1    4    4    0    0  0.11442278031E+03 -0.26154662130E+02  0.21942728446E+03  0.24884728684E+03  0.00000000000E+00 0. -1.
         -5    1    5    5    0  501  0.14737797444E+02  0.29996301274E+02 -0.21238394486E+03  0.21504885677E+03  0.47000000000E+01 0.  1.
         11    1    6    6    0    0 -0.42317584428E+02  0.24141118318E+02 -0.12324385723E+04  0.12334011537E+04  0.00000000000E+00 0. -1.
        -12    1    6    6    0    0 -0.15830207285E+03  0.21689643679E+02 -0.17847437354E+04  0.17918817450E+04  0.00000000000E+00 0.  1.
</event>
<event>
12    1  0.1081556E+000  0.5156824E+03  0.7818608E-02  0.1009765E+00
          2   -1    0    0  502    0  0.00000000000E+00  0.00000000000E+00  0.12035571103E+04  0.12035571103E+04  0.00000000000E+00 0. -1.
         -2   -1    0    0    0  501 -0.00000000000E+00 -0.00000000000E+00 -0.25317463157E+03  0.25317463157E+03  0.00000000000E+00 0.  1.
          6    2    1    2  502    0  0.44965867890E+01 -0.48413333628E+03  0.21369572255E+03  0.55630009984E+03  0.17146029467E+03 0.  0.
         24    2    3    3    0    0 -0.35048729481E+01 -0.48698376035E+03  0.18523504805E+03  0.52622937873E+03  0.73755467797E+02 0.  0.
         -6    2    1    2    0  501 -0.44965867890E+01  0.48413333628E+03  0.73668675614E+03  0.90043164199E+03  0.18347876887E+03 0.  0.
        -24    2    5    5    0    0 -0.67330791703E+02  0.21206749234E+03  0.33922303555E+03  0.41466682242E+03  0.85850154024E+02 0.  0.
          5    1    3    3  502    0  0.80014597371E+01  0.28504240661E+01  0.28460674495E+02  0.30070721108E+02  0.47000000000E+01 0. -1.
        -11    1    4    4    0    0  0.19149061807E+02 -0.21421542979E+03  0.11394843376E+03  0.24339100741E+03  0.00000000000E+00 0.  1.
         12    1    4    4    0    0 -0.22653934755E+02 -0.27276833056E+03  0.71286614290E+02  0.28283837132E+03  0.00000000000E+00 0. -1.
         -5    1    5    5    0  501  0.62834204914E+02  0.27206584394E+03  0.39746372059E+03  0.48576481957E+03  0.47000000000E+01 0.  1.
         11    1    6    6    0    0 -0.62506789429E+01  0.13399840570E+03  0.23664442659E+03  0.27202063957E+03  0.00000000000E+00 0. -1.
        -12    1    6    6    0    0 -0.61080112760E+02  0.78069086636E+02  0.10257860896E+03  0.14264618284E+03  0.00000000000E+00 0.  1.
</event>
<event>
12    1  0.1081556E+000  0.1394027E+04  0.7818608E-02  0.8958153E-01
          1   -1    0    0  502    0  0.00000000000E+00  0.00000000000E+00  0.15555116341E+04  0.15555116341E+04  0.00000000000E+00 0. -1.
         -1   -1    0    0    0  501 -0.00000000000E+00 -0.00000000000E+00 -0.13244519310E+04  0.13244519310E+04  0.00000000000E+00 0.  1.
          6    2    1    2  502    0 -0.12522402008E+04  0.58702599195E+03  0.45849183238E+03  0.14670899168E+04  0.17156056663E+03 0.  0.
         24    2    3    3    0    0 -0.11818508426E+04  0.56197151694E+03  0.46685916676E+03  0.13917607011E+04  0.80355257715E+02 0.  0.
         -6    2    1    2    0  501  0.12522402008E+04 -0.58702599195E+03 -0.22743212929E+03  0.14128736483E+04  0.17827376994E+03 0.  0.
        -24    2    5    5    0    0  0.11708137802E+04 -0.50239325464E+03 -0.19759964279E+03  0.12916093525E+04  0.77493292757E+02 0.  0.
          5    1    3    3  502    0 -0.70389358173E+02  0.25054475013E+02 -0.83673343720E+01  0.75329215758E+02  0.47000000000E+01 0. -1.
        -11    1    4    4    0    0 -0.12682185377E+03  0.85186502950E+02  0.41235660038E+02  0.15824317532E+03  0.00000000000E+00 0.  1.
         12    1    4    4    0    0 -0.10550289888E+04  0.47678501399E+03  0.42562350672E+03  0.12335175257E+04  0.00000000000E+00 0. -1.
         -5    1    5    5    0  501  0.81426420576E+02 -0.84632737312E+02 -0.29832486501E+02  0.12126429583E+03  0.47000000000E+01 0.  1.
         13    1    6    6    0    0  0.64876166472E+03 -0.28193735886E+03 -0.70840703659E+02  0.71091404349E+03  0.00000000000E+00 0. -1.
        -14    1    6    6    0    0  0.52205211546E+03 -0.22045589578E+03 -0.12675893913E+03  0.58069530900E+03  0.00000000000E+00 0.  1.
</event>
<event>
12    1  0.1081556E+000  0.4300083E+03  0.7818608E-02  0.1033857E+00
          2   -1    0    0  502    0  0.00000000000E+00  0.00000000000E+00  0.12243371014E+04  0.12243371014E+04  0.00000000000E+00 0. -1.
         -2   -1    0    0    0  501 -0.00000000000E+00 -0.00000000000E+00 -0.33542405162E+03  0.33542405162E+03  0.00000000000E+00 0.  1.
          6    2    1    2  502    0 -0.36711301672E+03  0.14182770494E+03 -0.13356273740E+03  0.45072753434E+03  0.17443979034E+03 0.  0.
         24    2    3    3    0    0 -0.13181547989E+03  0.12142763609E+03 -0.56513956352E+02  0.20225279053E+03  0.74782166784E+02 0.  0.
         -6    2    1    2    0  501  0.36711301672E+03 -0.14182770494E+03  0.10224757872E+04  0.11090336187E+04  0.17208069930E+03 0.  0.
        -24    2    5    5    0    0  0.31585108358E+03 -0.10943106499E+03  0.96810648143E+03  0.10274527418E+04  0.81804108785E+02 0.  0.
          5    1    3    3  502    0 -0.23529753684E+03  0.20400068847E+02 -0.77048781051E+02  0.24847474381E+03  0.47000000000E+01 0. -1.
        -11    1    4    4    0    0 -0.44329405032E+02  0.36449940874E+01 -0.28659888913E+02  0.52912865778E+02  0.00000000000E+00 0.  1.
         12    1    4    4    0    0 -0.87486074855E+02  0.11778264201E+03 -0.27854067439E+02  0.14933992475E+03  0.00000000000E+00 0. -1.
         -5    1    5    5    0  501  0.51261933142E+02 -0.32396639953E+02  0.54369305753E+02  0.81580876912E+02  0.47000000000E+01 0.  1.
         13    1    6    6    0    0  0.17224051351E+03 -0.97247316259E+02  0.50162930637E+03  0.53921776308E+03  0.00000000000E+00 0. -1.
        -14    1    6    6    0    0  0.14361057008E+03 -0.12183748729E+02  0.46647717507E+03  0.48823497870E+03  0.00000000000E+00 0.  1.
</event>
<event>
12    1  0.1081556E+000  0.7912100E+03  0.7818608E-02  0.9572828E-01
          2   -1    0    0  502    0  0.00000000000E+00  0.00000000000E+00  0.34478788724E+04  0.34478788724E+04  0.00000000000E+00 0. -1.
         -2   -1    0    0    0  501 -0.00000000000E+00 -0.00000000000E+00 -0.21608951437E+03  0.21608951437E+03  0.00000000000E+00 0.  1.
          6    2    1    2  502    0 -0.13285887429E+03  0.76076231252E+03  0.88333561731E+03  0.11857600056E+04  0.17127230172E+03 0.  0.
         24    2    3    3    0    0 -0.10866161453E+03  0.25605846713E+03  0.30867911613E+03  0.42053868902E+03  0.64781997229E+02 0.  0.
         -6    2    1    2    0  501  0.13285887429E+03 -0.76076231252E+03  0.23484537407E+04  0.24782083812E+04  0.17283238067E+03 0.  0.
        -24    2    5    5    0    0  0.15361566823E+03 -0.70914241033E+03  0.20939028706E+04  0.22176058212E+04  0.82859007694E+02 0.  0.
          5    1    3    3  502    0 -0.24197259752E+02  0.50470384540E+03  0.57465650118E+03  0.76522131654E+03  0.47000000000E+01 0. -1.
        -11    1    4    4    0    0 -0.39745257310E+02  0.15461265316E+03  0.20582074260E+03  0.26047444420E+03  0.00000000000E+00 0.  1.
         12    1    4    4    0    0 -0.68916357224E+02  0.10144581396E+03  0.10285837353E+03  0.16006424482E+03  0.00000000000E+00 0. -1.
         -5    1    5    5    0  501 -0.20756793946E+02 -0.51619902197E+02  0.25455087018E+03  0.26060256005E+03  0.47000000000E+01 0.  1.
         13    1    6    6    0    0  0.83376571874E+02 -0.36786442565E+03  0.12131495220E+04  0.12704360083E+04  0.00000000000E+00 0. -1.
        -14    1    6    6    0    0  0.70239096357E+02 -0.34127798468E+03  0.88075334855E+03  0.94716981290E+03  0.00000000000E+00 0.  1.
</event>
<event>
12    1  0.1081556E+000  0.4470859E+03  0.7818608E-02  0.1028595E+00
         -2   -1    0    0    0  501 -0.00000000000E+00  0.00000000000E+00  0.21345550672E+03  0.21345550672E+03  0.00000000000E+00 0.  1.
          2   -1    0    0  502    0  0.00000000000E+00 -0.00000000000E+00 -0.96841980159E+03  0.96841980159E+03  0.00000000000E+00 0. -1.
          6    2    1    2  502    0  0.37659942147E+03 -0.16911456702E+03 -0.26996338826E+03  0.52215107474E+03  0.17127361976E+03 0.  0.
         24    2    3    3    0    0  0.27047493255E+03 -0.16510999788E+03 -0.25568301913E+03  0.41489221653E+03  0.79647627272E+02 0.  0.
         -6    2    1    2    0  501 -0.37659942147E+03  0.16911456702E+03 -0.48500090661E+03  0.65972423358E+03  0.17199803467E+03 0.  0.
        -24    2    5    5    0    0 -0.31694898623E+03  0.19398008432E+03 -0.43584106169E+03  0.57839005424E+03  0.80577235056E+02 0.  0.
          5    1    3    3  502    0  0.10612448892E+03 -0.40045691353E+01 -0.14280369133E+02  0.10725885821E+03  0.47000000000E+01 0. -1.
        -11    1    4    4    0    0  0.81491296330E+01 -0.29863452489E+02 -0.16982938459E+02  0.35307992112E+02  0.00000000000E+00 0.  1.
         12    1    4    4    0    0  0.26232580292E+03 -0.13524654539E+03 -0.23870008067E+03  0.37958422442E+03  0.00000000000E+00 0. -1.
         -5    1    5    5    0  501 -0.59650435239E+02 -0.24865517308E+02 -0.49159844920E+02  0.81334179333E+02  0.47000000000E+01 0.  1.
         13    1    6    6    0    0 -0.15291138457E+03  0.11064129165E+03 -0.16344309153E+03  0.24967384949E+03  0.00000000000E+00 0. -1.
        -14    1    6    6    0    0 -0.16403760165E+03  0.83338792670E+02 -0.27239797016E+03  0.32871620475E+03  0.00000000000E+00 0.  1.
</event>
<event>
12    1  0.1081556E+000  0.4947946E+03  0.7818608E-02  0.1015147E+00
         -2   -1    0    0    0  501 -0.00000000000E+00  0.00000000000E+00  0.26732056890E+03  0.26732056890E+03  0.00000000000E+00 0.  1.
          2   -1    0    0  502    0  0.00000000000E+00 -0.00000000000E+00 -0.20820259082E+04  0.20820259082E+04  0.00000000000E+00 0. -1.
          6    2    1    2  502    0  0.44464632566E+03 -0.13232109382E+03 -0.28065888527E+02  0.49540992646E+03  0.17153446985E+03 0.  0.
         24    2    3    3    0    0  0.32922568864E+03 -0.11025977297E+03  0.42407872935E+02  0.35830680330E+03  0.77708210665E+02 0.  0.
         -6    2    1    2    0  501 -0.44464632566E+03  0.13232109382E+03 -0.17866394507E+04  0.18539365506E+04  0.17257166609E+03 0.  0.
        -24    2    5    5    0    0 -0.33592984786E+03  0.16115399627E+03 -0.13253509101E+04  0.13791104598E+04  0.81062643406E+02 0.  0.
          5    1    3    3  502    0  0.11542063702E+03 -0.22061320842E+02 -0.70473761462E+02  0.13710312316E+03  0.47000000000E+01 0. -1.
        -11    1    4    4    0    0  0.13226334162E+03 -0.80704620723E+02  0.35832718257E+02  0.15903084934E+03  0.00000000000E+00 0.  1.
         12    1    4    4    0    0  0.19696234702E+03 -0.29555152251E+02  0.65751546787E+01  0.19927595396E+03  0.00000000000E+00 0. -1.
         -5    1    5    5    0  501 -0.10871647780E+03 -0.28832902454E+02 -0.46128854059E+03  0.47482609079E+03  0.47000000000E+01 0.  1.
         13    1    6    6    0    0 -0.17750287236E+03  0.12915339965E+03 -0.78281994281E+03  0.81301594892E+03  0.00000000000E+00 0. -1.
        -14    1    6    6    0    0 -0.15842697550E+03  0.32000596623E+02 -0.54253096733E+03  0.56609451089E+03  0.00000000000E+00 0.  1.
</event>
<event>
12    1  0.1081556E+000  0.2547070E+03  0.7818608E-02  0.1110366E+00
         -1   -1    0    0    0  501 -0.00000000000E+00  0.00000000000E+00  0.16693326521E+03  0.16693326521E+03  0.00000000000E+00 0.  1.
          1   -1    0    0  502    0  0.00000000000E+00 -0.00000000000E+00 -0.10495188931E+04  0.10495188931E+04  0.00000000000E+00 0. -1.
          6    2    1    2  502    0  0.13004284836E+02 -0.18569475817E+03  0.41030496217E+02  0.25849424005E+03  0.17459700994E+03 0.  0.
         24    2    3    3    0    0  0.54748945856E+02 -0.38285159271E+02  0.30797935108E+02  0.10487457373E+03  0.74745989294E+02 0.  0.
         -6    2    1    2    0  501 -0.13004284836E+02  0.18569475817E+03 -0.92361612414E+03  0.95795791829E+03  0.17310393930E+03 0.  0.
        -24    2    5    5    0    0  0.91381084995E+01  0.14716999069E+03 -0.41994654503E+03  0.45231023638E+03  0.80541530095E+02 0.  0.
          5    1    3    3  502    0 -0.41744661020E+02 -0.14740959890E+03  0.10232561109E+02  0.15361966632E+03  0.47000000000E+01 0. -1.
        -11    1    4    4    0    0  0.25203102494E+02 -0.48982255398E+02 -0.72140316374E+01  0.55556277518E+02  0.00000000000E+00 0.  1.
         12    1    4    4    0    0  0.29545843362E+02  0.10697096127E+02  0.38011966745E+02  0.49318296213E+02  0.00000000000E+00 0. -1.
         -5    1    5    5    0  501 -0.22142393336E+02  0.38524767489E+02 -0.50366957912E+03  0.50564768191E+03  0.47000000000E+01 0.  1.
         11    1    6    6    0    0 -0.35142972646E+02  0.74172812315E+02 -0.22432737983E+03  0.23887111159E+03  0.00000000000E+00 0. -1.
        -12    1    6    6    0    0  0.44281081145E+02  0.72997178371E+02 -0.19561916520E+03  0.21343912479E+03  0.00000000000E+00 0.  1.
</event>
<event>
12    1  0.1081556E+000  0.6736304E+03  0.7818608E-02  0.9763422E-01
          1   -1    0    0  502    0  0.00000000000E+00  0.00000000000E+00  0.29675237451E+04  0.29675237451E+04  0.00000000000E+00 0. -1.
         -1   -1    0    0    0  501 -0.00000000000E+00 -0.00000000000E+00 -0.41005529081E+03  0.41005529081E+03  0.00000000000E+00 0.  1.
          6    2    1    2  502    0 -0.36627582513E+03  0.53850144522E+03 -0.58370603379E+02  0.67647600569E+03  0.17340955092E+03 0.  0.
         24    2    3    3    0    0 -0.15444256401E+03  0.24307871178E+03 -0.88707525808E+02  0.31166051696E+03  0.79520355880E+02 0.  0.
         -6    2    1    2    0  501  0.36627582513E+03 -0.53850144522E+03  0.26158390576E+04  0.27011030302E+04  0.17088539336E+03 0.  0.
        -24    2    5    5    0    0  0.35394513272E+03 -0.54445084954E+03  0.24956693619E+04  0.25800646596E+04  0.81634546258E+02 0.  0.
          5    1    3    3  502    0 -0.21183326112E+03  0.29542273344E+03  0.30336922429E+02  0.36481548873E+03  0.47000000000E+01 0. -1.
        -13    1    4    4    0    0 -0.94728156826E+02  0.14123596873E+03 -0.11193967094E+02  0.17042983148E+03  0.00000000000E+00 0.  1.
         14    1    4    4    0    0 -0.59714407187E+02  0.10184274305E+03 -0.77513558714E+02  0.14123068548E+03  0.00000000000E+00 0. -1.
         -5    1    5    5    0  501  0.12330692411E+02  0.59494043145E+01  0.12016969572E+03  0.12103837060E+03  0.47000000000E+01 0.  1.
         13    1    6    6    0    0  0.26294621269E+03 -0.36478303626E+03  0.18406631916E+04  0.18947950705E+04  0.00000000000E+00 0. -1.
        -14    1    6    6    0    0  0.90998920034E+02 -0.17966781328E+03  0.65500617033E+03  0.68526958910E+03  0.00000000000E+00 0.  1.
</event>
<event>
12    1  0.1289556E+000  0.3957121E+03  0.7818608E-02  0.1045275E+00
         -2   -1    0    0    0  501 -0.00000000000E+00  0.00000000000E+00  0.18942754332E+03  0.18942754332E+03  0.00000000000E+00 0.  1.
          2   -1    0    0  502    0  0.00000000000E+00 -0.00000000000E+00 -0.86421708777E+03  0.86421708777E+03  0.00000000000E+00 0. -1.
          6    2    1    2  502    0 -0.26510740284E+03 -0.23787267765E+03 -0.44730581979E+03  0.59726381613E+03  0.17255788544E+03 0.  0.
         24    2    3    3    0    0 -0.28225888178E+03 -0.23043485440E+03 -0.44101656632E+03  0.57698724951E+03  0.75155677508E+02 0.  0.
         -6    2    1    2    0  501  0.26510740284E+03  0.23787267765E+03 -0.22748372467E+03  0.45638081496E+03  0.17224766316E+03 0.  0.
        -24    2    5    5    0    0  0.99809559123E+02  0.79484193500E+02 -0.15557847095E+03  0.21637509720E+03  0.79585406672E+02 0.  0.
          5    1    3    3  502    0  0.17151478941E+02 -0.74378232516E+01 -0.62892534633E+01  0.20276566616E+02  0.47000000000E+01 0. -1.
        -13    1    4    4    0    0 -0.14209483306E+03 -0.15717229381E+03 -0.22255835437E+03  0.30728861454E+03  0.00000000000E+00 0.  1.
         14    1    4    4    0    0 -0.14016404872E+03 -0.73262560589E+02 -0.21845821195E+03  0.26969863497E+03  0.00000000000E+00 0. -1.
         -5    1    5    5    0  501  0.16529784371E+03  0.15838848415E+03 -0.71905253721E+02  0.24000571777E+03  0.47000000000E+01 0.  1.
         13    1    6    6    0    0  0.11059441332E+03  0.72185484159E+02 -0.11983015260E+03  0.17832872414E+03  0.00000000000E+00 0. -1.
        -14    1    6    6    0    0 -0.10784854196E+02  0.72987093400E+01 -0.35748318348E+02  0.38046373057E+02  0.00000000000E+00 0.  1.
</event>
<event>
12    1  0.1081556E+000  0.1957002E+03  0.7818608E-02  0.1153418E+00
         -2   -1    0    0    0  501 -0.00000000000E+00  0.00000000000E+00  0.42264714687E+03  0.42264714687E+03  0.00000000000E+00 0.  1.
          2   -1    0    0  502    0  0.00000000000E+00 -0.00000000000E+00 -0.74068441135E+03  0.74068441135E+03  0.00000000000E+00 0. -1.
          6    2    1    2  502    0  0.82356279771E+02  0.46776548563E+02  0.38591654001E+03  0.43265315815E+03  0.17113321445E+03 0.  0.
         24    2    3    3    0    0  0.79725754881E+02  0.64106993962E+02  0.15690511698E+03  0.20292378284E+03  0.78057307430E+02 0.  0.
         -6    2    1    2    0  501 -0.82356279771E+02 -0.46776548563E+02 -0.70395380448E+03  0.73067840007E+03  0.17137491991E+03 0.  0.
        -24    2    5    5    0    0 -0.12524184475E+03 -0.28127019750E+02 -0.52321939626E+03  0.54393260246E+03  0.75016601380E+02 0.  0.
          5    1    3    3  502    0  0.26305248901E+01 -0.17330445399E+02  0.22901142303E+03  0.22972937530E+03  0.47000000000E+01 0. -1.
        -13    1    4    4    0    0  0.81487029380E+01  0.53863468375E+02  0.84939403006E+02  0.10090776367E+03  0.00000000000E+00 0.  1.
         14    1    4    4    0    0  0.71577051943E+02  0.10243525587E+02  0.71965713972E+02  0.10201601918E+03  0.00000000000E+00 0. -1.
         -5    1    5    5    0  501  0.42885564983E+02 -0.18649528814E+02 -0.18073440822E+03  0.18674579761E+03  0.47000000000E+01 0.  1.
         11    1    6    6    0    0 -0.65344277429E+02  0.51771290715E+01 -0.37434970877E+03  0.38004523640E+03  0.00000000000E+00 0. -1.
        -12    1    6    6    0    0 -0.59897567325E+02 -0.33304148821E+02 -0.14886968749E+03  0.16388736606E+03  0.00000000000E+00 0.  1.
</event>
<event>
12    1  0.1081556E+000  0.3375338E+03  0.7818608E-02  0.1067851E+00
         -1   -1    0    0    0  501 -0.00000000000E+00  0.00000000000E+00  0.28246501000E+03  0.28246501000E+03  0.00000000000E+00 0.  1.
          1   -1    0    0  502    0  0.00000000000E+00 -0.00000000000E+00 -0.45451231221E+03  0.45451231221E+03  0.00000000000E+00 0. -1.
          6    2    1    2  502    0 -0.13800354752E+03  0.25532713158E+03  0.37648636517E+02  0.33950404169E+03  0.17207164567E+03 0.  0.
         24    2    3    3    0    0 -0.43589582399E+02  0.17997077766E+03  0.71459793954E+02  0.21397372164E+03  0.79929461976E+02 0.  0.
         -6    2    1    2    0  501  0.13800354752E+03 -0.25532713158E+03 -0.20969593873E+03  0.39747328053E+03  0.17255636402E+03 0.  0.
        -24    2    5    5    0    0  0.81225282260E+01 -0.11282013999E+03 -0.12693553094E+03  0.18759546625E+03  0.79278436498E+02 0.  0.
          5    1    3    3  502    0 -0.94413965123E+02  0.75356353917E+02 -0.33811157438E+02  0.12553032006E+03  0.47000000000E+01 0.  1.
        -11    1    4    4    0    0 -0.34518741432E+02  0.30565563227E+02  0.39963752739E+02  0.61015561117E+02  0.00000000000E+00 0.  1.
         12    1    4    4    0    0 -0.90708409673E+01  0.14940521444E+03  0.31496041215E+02  0.15295816052E+03  0.00000000000E+00 0. -1.
         -5    1    5    5    0  501  0.12988101930E+03 -0.14250699160E+03 -0.82760407791E+02  0.20987781428E+03  0.47000000000E+01 0.  1.
         11    1    6    6    0    0  0.29302808540E+02 -0.11190934247E+03 -0.11565989015E+03  0.16358351295E+03  0.00000000000E+00 0. -1.
        -12    1    6    6    0    0 -0.21180280314E+02 -0.91079752035E+00 -0.11275640783E+02  0.24011953302E+02  0.00000000000E+00 0.  1.
</event>
<event>
12    1  0.1081556E+000  0.4857251E+03  0.7818608E-02  0.1017574E+00
          2   -1    0    0  502    0  0.00000000000E+00  0.00000000000E+00  0.81830452578E+03  0.81830452578E+03  0.00000000000E+00 0. -1.
         -2   -1    0    0    0  501 -0.00000000000E+00 -0.00000000000E+00 -0.47648384660E+03  0.47648384660E+03  0.00000000000E+00 0.  1.
          6    2    1    2  502    0 -0.43240480142E+03  0.13821022056E+03 -0.23600898264E+03  0.53967410212E+03  0.17167387468E+03 0.  0.
         24    2    3    3    0    0 -0.27075025593E+03  0.55939963503E+02 -0.21067235339E+03  0.35646760099E+03  0.79065349353E+02 0.  0.
         -6    2    1    2    0  501  0.43240480142E+03 -0.13821022056E+03  0.57782966182E+03  0.75511427026E+03  0.17388060764E+03 0.  0.
        -24    2    5    5    0    0  0.21626954917E+03 -0.13990931517E+03  0.32073196451E+03  0.41919962314E+03  0.80698182213E+02 0.  0.
          5    1    3    3  502    0 -0.16165454550E+03  0.82270257054E+02 -0.25336629251E+02  0.18320650113E+03  0.47000000000E+01 0. -1.
        -11    1    4    4    0    0 -0.20174164076E+03  0.76160838972E+02 -0.15726520434E+03  0.26689418785E+03  0.00000000000E+00 0.  1.
         12    1    4    4    0    0 -0.69008615164E+02 -0.20220875469E+02 -0.53407149046E+02  0.89573413136E+02  0.00000000000E+00 0. -1.
         -5    1    5    5    0  501  0.21613525225E+03  0.16990946144E+01  0.25709769731E+03  0.33591464712E+03  0.47000000000E+01 0.  1.
         13    1    6    6    0    0  0.16613339495E+03 -0.63339471905E+02  0.19824206398E+03  0.26629327733E+03  0.00000000000E+00 0. -1.
        -14    1    6    6    0    0  0.50136154218E+02 -0.76569843266E+02  0.12248990053E+03  0.15290634581E+03  0.00000000000E+00 0.  1.
</event>
<event>
12    1  0.1081556E+000  0.3706040E+03  0.7818608E-02  0.1054462E+00
          2   -1    0    0  502    0  0.00000000000E+00  0.00000000000E+00  0.27734275738E+04  0.27734275738E+04  0.00000000000E+00 0. -1.
         -2   -1    0    0    0  501 -0.00000000000E+00 -0.00000000000E+00 -0.23778253095E+03  0.23778253095E+03  0.00000000000E+00 0.  1.
          6    2    1    2  502    0 -0.28121140904E+03 -0.16953250607E+03 -0.71807096951E+02  0.37756153217E+03  0.17197477784E+03 0.  0.
         24    2    3    3    0    0 -0.20111937965E+03 -0.11645121234E+03  0.18718138343E+02  0.24546586555E+03  0.76767393593E+02 0.  0.
         -6    2    1    2    0  501  0.28121140904E+03  0.16953250607E+03  0.26074521398E+04  0.26336485726E+04  0.17168871612E+03 0.  0.
        -24    2    5    5    0    0  0.28860236205E+03  0.13424651380E+03  0.21734834009E+04  0.21981595558E+04  0.81005485255E+02 0.  0.
          5    1    3    3  502    0 -0.80092029392E+02 -0.53081293726E+02 -0.90525235293E+02  0.13209566662E+03  0.47000000000E+01 0. -1.
        -11    1    4    4    0    0 -0.10820731352E+03 -0.63373507308E+02 -0.28354812748E+02  0.12856523455E+03  0.00000000000E+00 0.  1.
         12    1    4    4    0    0 -0.92912066129E+02 -0.53077705035E+02  0.47072951091E+02  0.11690063100E+03  0.00000000000E+00 0. -1.
         -5    1    5    5    0  501 -0.73909530067E+01  0.35285992264E+02  0.43396873887E+03  0.43548901680E+03  0.47000000000E+01 0.  1.
         11    1    6    6    0    0  0.19998225389E+02  0.13964764862E+02  0.37158848062E+03  0.37238816121E+03  0.00000000000E+00 0. -1.
        -12    1    6    6    0    0  0.26860413666E+03  0.12028174894E+03  0.18018949203E+04  0.18257713946E+04  0.00000000000E+00 0.  1.
</event>
<event>
12    1  0.1081556E+000  0.2628762E+03  0.7818608E-02  0.1105427E+00
          1   -1    0    0  502    0  0.00000000000E+00  0.00000000000E+00  0.17304757703E+04  0.17304757703E+04  0.00000000000E+00 0. -1.
         -1   -1    0    0    0  501 -0.00000000000E+00 -0.00000000000E+00 -0.56705000144E+02  0.56705000144E+02  0.00000000000E+00 0.  1.
          6    2    1    2  502    0 -0.11145022016E+03  0.16409357498E+03  0.13219824956E+04  0.13477894594E+04  0.17190362202E+03 0.  0.
         24    2    3    3    0    0 -0.10589512579E+03  0.43280697813E+02  0.77731540175E+03  0.78983700310E+03  0.80847147153E+02 0.  0.
         -6    2    1    2    0  501  0.11145022016E+03 -0.16409357498E+03  0.35178827451E+03  0.43939131101E+03  0.17309500622E+03 0.  0.
        -24    2    5    5    0    0  0.53387807512E+02 -0.13018612675E+03  0.33137254675E+03  0.36896510319E+03  0.80800971767E+02 0.  0.
          5    1    3    3  502    0 -0.55550943709E+01  0.12081287716E+03  0.54466709389E+03  0.55795245634E+03  0.47000000000E+01 0. -1.
        -13    1    4    4    0    0 -0.11333895104E+03  0.54402881780E+02  0.67028936190E+03  0.68197743368E+03  0.00000000000E+00 0.  1.
         14    1    4    4    0    0  0.74438252509E+01 -0.11122183967E+02  0.10702603985E+03  0.10785956942E+03  0.00000000000E+00 0. -1.
         -5    1    5    5    0  501  0.58062412650E+02 -0.33907448223E+02  0.20415727761E+02  0.70426207819E+02  0.47000000000E+01 0.  1.
         13    1    6    6    0    0  0.16095465679E+02 -0.65830275691E+02  0.24865195741E+03  0.25772172034E+03  0.00000000000E+00 0. -1.
        -14    1    6    6    0    0  0.37292341833E+02 -0.64355851061E+02  0.82720589342E+02  0.11124338284E+03  0.00000000000E+00 0.  1.
</event>
<event>
12    1  0.1081556E+000  0.5428323E+03  0.7818608E-02  0.1003167E+00
          2   -1    0    0  502    0  0.00000000000E+00  0.00000000000E+00  0.20040872181E+04  0.20040872181E+04  0.00000000000E+00 0. -1.
         -2   -1    0    0    0  501 -0.00000000000E+00 -0.00000000000E+00 -0.23204660935E+03  0.23204660935E+03  0.00000000000E+00 0.  1.
          6    2    1    2  502    0  0.44939415669E+03 -0.25131299064E+03  0.20939214971E+03  0.58192240602E+03  0.17226516461E+03 0.  0.
         24    2    3    3    0    0  0.41781583119E+03 -0.22217525886E+03  0.13895019018E+03  0.49927642780E+03  0.77703806589E+02 0.  0.
         -6    2    1    2    0  501 -0.44939415669E+03  0.25131299064E+03  0.15626484590E+04  0.16542114214E+04  0.17155725849E+03 0.  0.
        -24    2    5    5    0    0 -0.39503847875E+03  0.15433392543E+03  0.11946065679E+04  0.12697164248E+04  0.72253630218E+02 0.  0.
          5    1    3    3  502    0  0.31578325502E+02 -0.29137731777E+02  0.70441959529E+02  0.82645978225E+02  0.47000000000E+01 0. -1.
        -11    1    4    4    0    0  0.81129757686E+02 -0.26636566238E+02 -0.14032651779E+01  0.85402069040E+02  0.00000000000E+00 0.  1.
         12    1    4    4    0    0  0.33668607350E+03 -0.19553869263E+03  0.14035345536E+03  0.41387435876E+03  0.00000000000E+00 0. -1.
         -5    1    5    5    0  501 -0.54355677938E+02  0.96979065209E+02  0.36804189108E+03  0.38449499659E+03  0.47000000000E+01 0.  1.
         13    1    6    6    0    0 -0.13321518984E+02  0.22862115601E+02  0.69270795586E+02  0.74152426252E+02  0.00000000000E+00 0. -1.
        -14    1    6    6    0    0 -0.38171695977E+03  0.13147180983E+03  0.11253357723E+04  0.11955639986E+04  0.00000000000E+00 0.  1.
</event>
<event>
12    1  0.1081556E+000  0.2949856E+03  0.7818608E-02  0.1087774E+00
         -1   -1    0    0    0  501 -0.00000000000E+00  0.00000000000E+00  0.54921719672E+02  0.54921719672E+02  0.00000000000E+00 0.  1.
          1   -1    0    0  502    0  0.00000000000E+00 -0.00000000000E+00 -0.20789721819E+04  0.20789721819E+04  0.00000000000E+00 0. -1.
          6    2    1    2  502    0 -0.20007564662E+03 -0.13426975497E+03 -0.48969809425E+03  0.57130344508E+03  0.16889278071E+03 0.  0.
         24    2    3    3    0    0 -0.15273429782E+03 -0.43004210242E+02 -0.21925011433E+03  0.28193378045E+03  0.78986809649E+02 0.  0.
         -6    2    1    2    0  501  0.20007564662E+03  0.13426975497E+03 -0.15343523680E+04  0.15625904565E+04  0.17144420126E+03 0.  0.
        -24    2    5    5    0    0  0.98482860486E+02  0.13572282155E+03 -0.11545107546E+04  0.11693666693E+04  0.80023537709E+02 0.  0.
          5    1    3    3  502    0 -0.47341348799E+02 -0.91265544731E+02 -0.27044797993E+03  0.28936966463E+03  0.47000000000E+01 0. -1.
        -11    1    4    4    0    0 -0.15475202528E+03 -0.23620165131E+02 -0.20425117416E+03  0.25734149233E+03  0.00000000000E+00 0.  1.
         12    1    4    4    0    0  0.20177274598E+01 -0.19384045111E+02 -0.14998940167E+02  0.24592288123E+02  0.00000000000E+00 0. -1.
         -5    1    5    5    0  501  0.10159278613E+03 -0.14530665765E+01 -0.37984161337E+03  0.39322378723E+03  0.47000000000E+01 0.  1.
         13    1    6    6    0    0  0.71985196814E+02  0.32047639774E+02 -0.48926278780E+03  0.49556734689E+03  0.00000000000E+00 0. -1.
        -14    1    6    6    0    0  0.26497663672E+02  0.10367518178E+03 -0.66524796681E+03  0.67379932239E+03  0.00000000000E+00 0.  1.
</event>
<event>
12    1  0.1081556E+000  0.1989006E+03  0.7818608E-02  0.1150670E+00
          1   -1    0    0  502    0  0.00000000000E+00  0.00000000000E+00  0.71708639290E+03  0.71708639290E+03  0.00000000000E+00 0. -1.
         -1   -1    0    0    0  501 -0.00000000000E+00 -0.00000000000E+00 -0.67205045829E+02  0.67205045829E+02  0.00000000000E+00 0.  1.
          6    2    1    2  502    0  0.99341745909E+02  0.19737001954E+02  0.16053171092E+03  0.25648985003E+03  0.17250588753E+03 0.  0.
         24    2    3    3    0    0 -0.12757372014E+00 -0.47845496319E+01  0.14199666879E+03  0.15227329748E+03  0.54783163369E+02 0.  0.
         -6    2    1    2    0  501 -0.99341745909E+02 -0.19737001954E+02  0.48934963615E+03  0.52780158869E+03  0.16986205845E+03 0.  0.
        -24    2    5    5    0    0 -0.88369233778E+02 -0.60005053735E+02  0.45477474383E+03  0.47340098947E+03  0.76672689101E+02 0.  0.
          5    1    3    3  502    0  0.99469319629E+02  0.24521551586E+02  0.18535042135E+02  0.10421655256E+03  0.47000000000E+01 0. -1.
        -13    1    4    4    0    0  0.91275397645E+01  0.21872027147E+00 -0.73008216273E+00  0.91593035038E+01  0.00000000000E+00 0.  1.
         14    1    4    4    0    0 -0.92551134847E+01 -0.50032699033E+01  0.14272675095E+03  0.14311399398E+03  0.00000000000E+00 0. -1.
         -5    1    5    5    0  501 -0.10972512131E+02  0.40268051781E+02  0.34574892318E+02  0.54400599220E+02  0.47000000000E+01 0.  1.
         13    1    6    6    0    0 -0.99965468247E+02 -0.62078919115E+02  0.38310882322E+03  0.40077332430E+03  0.00000000000E+00 0. -1.
        -14    1    6    6    0    0  0.11596234469E+02  0.20738653801E+01  0.71665920606E+02  0.72627665169E+02  0.00000000000E+00 0.  1.
</event>
<event>
12    1  0.1370753E+000  0.5579146E+03  0.7818608E-02  0.9996784E-01
          2   -1    0    0  502    0  0.00000000000E+00  0.00000000000E+00  0.11120898121E+04  0.11120898121E+04  0.00000000000E+00 0. -1.
         -2   -1    0    0    0  501 -0.00000000000E+00 -0.00000000000E+00 -0.10600246825E+04  0.10600246825E+04  0.00000000000E+00 0.  1.
          6    2    1    2  502    0  0.20654369655E+03 -0.48845664620E+03 -0.90566624783E+03  0.10639420091E+04  0.17461687347E+03 0.  0.
         24    2    3    3    0    0  0.15374322056E+03 -0.39546011237E+03 -0.60377347404E+03  0.74363343534E+03  0.91774723384E+02 0.  0.
         -6    2    1    2    0  501 -0.20654369655E+03  0.48845664620E+03  0.95773137745E+03  0.11081724854E+04  0.17189145497E+03 0.  0.
        -24    2    5    5    0    0 -0.20881559871E+03  0.47761142558E+03  0.96027471887E+03  0.10958704963E+04  0.84190147614E+02 0.  0.
          5    1    3    3  502    0  0.52800475990E+02 -0.92996533824E+02 -0.30189277379E+03  0.32030857378E+03  0.47000000000E+01 0.  1.
        -13    1    4    4    0    0  0.91325936770E+02 -0.20051283771E+03 -0.38813025747E+03  0.44630810163E+03  0.00000000000E+00 0.  1.
         14    1    4    4    0    0  0.62417283788E+02 -0.19494727466E+03 -0.21564321657E+03  0.29732533371E+03  0.00000000000E+00 0. -1.
         -5    1    5    5    0  501  0.22719021662E+01  0.10845220622E+02 -0.25433414118E+01  0.12301989081E+02  0.47000000000E+01 0.  1.
         11    1    6    6    0    0 -0.58497605716E+02  0.18185120092E+03  0.27932464317E+03  0.33839929880E+03  0.00000000000E+00 0. -1.
        -12    1    6    6    0    0 -0.15031799300E+03  0.29576022466E+03  0.68095007570E+03  0.75747119754E+03  0.00000000000E+00 0.  1.
</event>
<event>
12    1  0.1081556E+000  0.2645893E+03  0.7818608E-02  0.1104417E+00
         -2   -1    0    0    0  501 -0.00000000000E+00  0.00000000000E+00  0.22613527843E+03  0.22613527843E+03  0.00000000000E+00 0.  1.
          2   -1    0    0  502    0  0.00000000000E+00 -0.00000000000E+00 -0.66751589996E+03  0.66751589996E+03  0.00000000000E+00 0. -1.
          6    2    1    2  502    0 -0.88975540837E+01  0.19987715897E+03  0.10661052024E+03  0.28500901627E+03  0.17272605820E+03 0.  0.
         24    2    3    3    0    0  0.27405404777E+02  0.13697540849E+02  0.27076287485E+02  0.79270008774E+02  0.67911192824E+02 0.  0.
         -6    2    1    2    0  501  0.88975540837E+01 -0.19987715897E+03 -0.54799114177E+03  0.60864216212E+03  0.17355386744E+03 0.  0.
        -24    2    5    5    0    0  0.31295958915E+02 -0.21813165126E+03 -0.50719290163E+03  0.55842760818E+03  0.77691053483E+02 0.  0.
          5    1    3    3  502    0 -0.36302958861E+02  0.18617961812E+03  0.79534232754E+02  0.20573900749E+03  0.47000000000E+01 0. -1.
        -13    1    4    4    0    0  0.18759759983E+02  0.40097173560E+02  0.26275383627E+02  0.51479196836E+02  0.00000000000E+00 0.  1.
         14    1    4    4    0    0  0.86456447942E+01 -0.26399632711E+02  0.80090385743E+00  0.27790811938E+02  0.00000000000E+00 0. -1.
         -5    1    5    5    0  501 -0.22398404832E+02  0.18254492300E+02 -0.40798240143E+02  0.50214553935E+02  0.47000000000E+01 0.  1.
         13    1    6    6    0    0  0.13606671083E+02  0.21427832639E+00 -0.19329804366E+02  0.23639559006E+02  0.00000000000E+00 0. -1.
        -14    1    6    6    0    0  0.17689287833E+02 -0.21834592959E+03 -0.48786309726E+03  0.53478804918E+03  0.00000000000E+00 0.  1.
</event>
<event>
12    1  0.1081556E+000  0.3030738E+03  0.7818608E-02  0.1083714E+00
          1   -1    0    0  502    0  0.00000000000E+00  0.00000000000E+00  0.94330190356E+03  0.94330190356E+03  0.00000000000E+00 0. -1.
         -1   -1    0    0    0  501 -0.00000000000E+00 -0.00000000000E+00 -0.11391565882E+03  0.11391565882E+03  0.00000000000E+00 0.  1.
          6    2    1    2  502    0 -0.25029855701E+03  0.23664054813E+02  0.21421594571E+03  0.37179915582E+03  0.17069500797E+03 0.  0.
         24    2    3    3    0    0 -0.87435956247E+02  0.65142782278E+02  0.10568981606E+03  0.17168738112E+03  0.80109868862E+02 0.  0.
         -6    2    1    2    0  501  0.25029855701E+03 -0.23664054813E+02  0.61517029903E+03  0.68541840656E+03  0.16779314680E+03 0.  0.
        -24    2    5    5    0    0  0.11435570238E+03 -0.71839048570E+02  0.33263057686E+03  0.36816129576E+03  0.81618401535E+02 0.  0.
          5    1    3    3  502    0 -0.16286260076E+03 -0.41478727464E+02  0.10852612966E+03  0.20011177471E+03  0.47000000000E+01 0. -1.
        -13    1    4    4    0    0 -0.20971689834E+02  0.36309211430E+01 -0.11016768973E+02  0.23965904144E+02  0.00000000000E+00 0.  1.
         14    1    4    4    0    0 -0.66464266413E+02  0.61511861135E+02  0.11670658503E+03  0.14772147697E+03  0.00000000000E+00 0. -1.
         -5    1    5    5    0  501  0.13594285463E+03  0.48174993757E+02  0.28253972217E+03  0.31725711080E+03  0.47000000000E+01 0.  1.
         11    1    6    6    0    0  0.50078946274E+02 -0.61440188090E+02  0.10597542512E+03  0.13233891454E+03  0.00000000000E+00 0. -1.
        -12    1    6    6    0    0  0.64276756104E+02 -0.10398860480E+02  0.22665515174E+03  0.23582238122E+03  0.00000000000E+00 0.  1.
</event>
<event>
12    1  0.1081556E+000  0.2024807E+03  0.7818608E-02  0.1147663E+00
          1   -1    0    0  502    0  0.00000000000E+00  0.00000000000E+00  0.69757581803E+03  0.69757581803E+03  0.00000000000E+00 0. -1.
         -1   -1    0    0    0  501 -0.00000000000E+00 -0.00000000000E+00 -0.74859657730E+02  0.74859657730E+02  0.00000000000E+00 0.  1.
          6    2    1    2  502    0  0.63775532326E+02  0.89958300118E+02  0.13083472840E+03  0.24003315183E+03  0.16834005327E+03 0.  0.
         24    2    3    3    0    0  0.10653499727E+03  0.90698360543E+02  0.94437112577E+02  0.18367895083E+03  0.72413330929E+02 0.  0.
         -6    2    1    2    0  501 -0.63775532326E+02 -0.89958300118E+02  0.49188143189E+03  0.53240232393E+03  0.17130404899E+03 0.  0.
        -24    2    5    5    0    0  0.30939832382E+02 -0.25877061321E+02  0.22330057929E+03  0.24045169477E+03  0.79542273540E+02 0.  0.
          5    1    3    3  502    0 -0.42759464949E+02 -0.74006042481E+00  0.36397615826E+02  0.56354200997E+02  0.47000000000E+01 0. -1.
        -13    1    4    4    0    0  0.18810541516E+02  0.18976620600E+02 -0.11004109247E+02  0.28897041749E+02  0.00000000000E+00 0.  1.
         14    1    4    4    0    0  0.87724455759E+02  0.71721739944E+02  0.10544122182E+03  0.15478190908E+03  0.00000000000E+00 0. -1.
         -5    1    5    5    0  501 -0.94715364708E+02 -0.64081238797E+02  0.26858085261E+03  0.29195062916E+03  0.47000000000E+01 0.  1.
         13    1    6    6    0    0  0.33766572799E+01  0.81813747651E+01  0.17506063646E+03  0.17528423530E+03  0.00000000000E+00 0. -1.
        -14    1    6    6    0    0  0.27563175102E+02 -0.34058436086E+02  0.48239942829E+02  0.65167459475E+02  0.00000000000E+00 0.  1.
</event>
<event>
12    1  0.1081556E+000  0.1393349E+04  0.7818608E-02  0.8958647E-01
          2   -1    0    0  502    0  0.00000000000E+00  0.00000000000E+00  0.15167266602E+04  0.15167266602E+04  0.00000000000E+00 0. -1.
         -2   -1    0    0    0  501 -0.00000000000E+00 -0.00000000000E+00 -0.16430516748E+04  0.16430516748E+04  0.00000000000E+00 0.  1.
          6    2    1    2  502    0 -0.10714922249E+04 -0.87401345678E+03 -0.80580908083E+03  0.16096380479E+04  0.17207922542E+03 0.  0.
         24    2    3    3    0    0 -0.71235052704E+03 -0.57197431655E+03 -0.45494693021E+03  0.10236886131E+04  0.79773273444E+02 0.  0.
         -6    2    1    2    0  501  0.10714922249E+04  0.87401345678E+03  0.67948406622E+03  0.15501402870E+04  0.17100059225E+03 0.  0.
        -24    2    5    5    0    0  0.51432402733E+03  0.34372555716E+03  0.28577665388E+03  0.68604001889E+03  0.79411257856E+02 0.  0.
          5    1    3    3  502    0 -0.35914169786E+03 -0.30203914023E+03 -0.35086215062E+03  0.58594943478E+03  0.47000000000E+01 0. -1.
        -11    1    4    4    0    0 -0.60088863194E+03 -0.44293288766E+03 -0.36722366435E+03  0.83193143385E+03  0.00000000000E+00 0.  1.
         12    1    4    4    0    0 -0.11146189510E+03 -0.12904142888E+03 -0.87723265862E+02  0.19175717927E+03  0.00000000000E+00 0. -1.
         -5    1    5    5    0  501  0.55716819758E+03  0.53028789961E+03  0.39370741233E+03  0.86410026814E+03  0.47000000000E+01 0.  1.
         13    1    6    6    0    0  0.51009925757E+03  0.33817185643E+03  0.29065465698E+03  0.67752607823E+03  0.00000000000E+00 0. -1.
        -14    1    6    6    0    0  0.42247697582E+01  0.55537007377E+01 -0.48780030946E+01  0.85139406613E+01  0.00000000000E+00 0.  1.
</event>
<event>
12    1  0.1081556E+000  0.5775189E+03  0.7818608E-02  0.9953177E-01
         -1   -1    0    0    0  501 -0.00000000000E+00  0.00000000000E+00  0.11483747004E+03  0.11483747004E+03  0.00000000000E+00 0.  1.
          1   -1    0    0  502    0  0.00000000000E+00 -0.00000000000E+00 -0.30481152388E+04  0.30481152388E+04  0.00000000000E+00 0. -1.
          6    2    1    2  502    0  0.43119464160E+03  0.34352345434E+03 -0.11233783266E+04  0.12631714288E+04  0.17229628896E+03 0.  0.
         24    2    3    3    0    0  0.20417461726E+03  0.84794595043E+02 -0.44199878600E+03  0.49977187256E+03  0.74374727559E+02 0.  0.
         -6    2    1    2    0  501 -0.43119464160E+03 -0.34352345434E+03 -0.18098994421E+04  0.18997812800E+04  0.17174323490E+03 0.  0.
        -24    2    5    5    0    0 -0.18630770877E+03 -0.12590375296E+03 -0.95215907220E+03  0.98159362138E+03  0.79729677102E+02 0.  0.
          5    1    3    3  502    0  0.22702002435E+03  0.25872885930E+03 -0.68137954063E+03  0.76339955625E+03  0.47000000000E+01 0. -1.
        -11    1    4    4    0    0  0.15503574020E+03  0.81297758379E+02 -0.39330534774E+03  0.43050493936E+03  0.00000000000E+00 0.  1.
         12    1    4    4    0    0  0.49138877057E+02  0.34968366638E+01 -0.48693438258E+02  0.69266933197E+02  0.00000000000E+00 0. -1.
         -5    1    5    5    0  501 -0.24488693283E+03 -0.21761970138E+03 -0.85774036994E+03  0.91818765867E+03  0.47000000000E+01 0.  1.
         11    1    6    6    0    0 -0.10516632915E+03 -0.88610020878E+02 -0.41853219097E+03  0.44054612411E+03  0.00000000000E+00 0. -1.
        -12    1    6    6    0    0 -0.81141379626E+02 -0.37293732085E+02 -0.53362688122E+03  0.54104749727E+03  0.00000000000E+00 0.  1.
</event>
<event>
12    1  0.1081556E+000  0.4617761E+03  0.7818608E-02  0.1024267E+00
         -2   -1    0    0    0  501 -0.00000000000E+00  0.00000000000E+00  0.19189522036E+03  0.19189522036E+03  0.00000000000E+00 0.  1.
          2   -1    0    0  502    0  0.00000000000E+00 -0.00000000000E+00 -0.14869351193E+04  0.14869351193E+04  0.00000000000E+00 0. -1.
          6    2    1    2  502    0 -0.41287449259E+03 -0.11310730191E+03 -0.22518179803E+03  0.51342256305E+03  0.17215480740E+03 0.  0.
         24    2    3    3    0    0 -0.41248837789E+03 -0.11279708392E+03 -0.18391191891E+03  0.47188296456E+03  0.77331069388E+02 0.  0.
         -6    2    1    2    0  501  0.41287449259E+03  0.11310730191E+03 -0.10698581009E+04  0.11654077766E+04  0.17412731356E+03 0.  0.
        -24    2    5    5    0    0  0.41989795675E+03  0.12692220605E+03 -0.10339803569E+04  0.11260443019E+04  0.80229987848E+02 0.  0.
          5    1    3    3  502    0 -0.38611469624E+00 -0.31021799420E+00 -0.41269879122E+02  0.41539598488E+02  0.47000000000E+01 0. -1.
        -11    1    4    4    0    0 -0.36342329221E+03 -0.11585416311E+03 -0.18212161232E+03  0.42269014432E+03  0.00000000000E+00 0.  1.
         12    1    4    4    0    0 -0.49065085682E+02  0.30570791884E+01 -0.17903065912E+01  0.49192820247E+02  0.00000000000E+00 0. -1.
         -5    1    5    5    0  501 -0.70234641583E+01 -0.13814904134E+02 -0.35877743966E+02  0.39363474658E+02  0.47000000000E+01 0.  1.
         11    1    6    6    0    0  0.83009598938E+02  0.55627143692E+02 -0.19404507636E+03  0.21826237489E+03  0.00000000000E+00 0. -1.
        -12    1    6    6    0    0  0.33688835781E+03  0.71295062355E+02 -0.83993528056E+03  0.90778192704E+03  0.00000000000E+00 0.  1.
</event>
<event>
12    1  0.1081556E+000  0.6956604E+03  0.7818608E-02  0.9724682E-01
         -1   -1    0    0    0  501 -0.00000000000E+00  0.00000000000E+00  0.10821716735E+04  0.10821716735E+04  0.00000000000E+00 0.  1.
          1   -1    0    0  502    0  0.00000000000E+00 -0.00000000000E+00 -0.24718101817E+04  0.24718101817E+04  0.00000000000E+00 0. -1.
          6    2    1    2  502    0 -0.10411859537E+03 -0.66576014480E+03  0.91341634368E+03  0.11481490169E+04  0.17274112333E+03 0.  0.
         24    2    3    3    0    0  0.13146567375E+02 -0.20909820994E+03  0.28839097443E+03  0.36522498264E+03  0.79530121183E+02 0.  0.
         -6    2    1    2    0  501  0.10411859537E+03  0.66576014480E+03 -0.23030548519E+04  0.24058328384E+04  0.17289517942E+03 0.  0.
        -24    2    5    5    0    0  0.14135538784E+03  0.55199656695E+03 -0.18764305412E+04  0.19627085637E+04  0.80943031560E+02 0.  0.
          5    1    3    3  502    0 -0.11726516275E+03 -0.45666193486E+03  0.62502536925E+03  0.78292403421E+03  0.47000000000E+01 0. -1.
        -11    1    4    4    0    0  0.20487026091E+01 -0.12780621002E+03  0.23446432554E+03  0.26704333815E+03  0.00000000000E+00 0.  1.
         12    1    4    4    0    0  0.11097864766E+02 -0.81291999915E+02  0.53926648897E+02  0.98181644485E+02  0.00000000000E+00 0. -1.
         -5    1    5    5    0  501 -0.37236792466E+02  0.11376357784E+03 -0.42662431070E+03  0.44312427471E+03  0.47000000000E+01 0.  1.
         13    1    6    6    0    0  0.45579342910E+02  0.33462803315E+03 -0.11314548071E+04  0.11807808338E+04  0.00000000000E+00 0. -1.
        -14    1    6    6    0    0  0.95776044929E+02  0.21736853381E+03 -0.74497573415E+03  0.78192772987E+03  0.00000000000E+00 0.  1.
</event>
<event>
12    1  0.1081556E+000  0.4157871E+03  0.7818608E-02  0.1038446E+00
         -1   -1    0    0    0  501 -0.00000000000E+00  0.00000000000E+00  0.18379039726E+03  0.18379039726E+03  0.00000000000E+00 0.  1.
          1   -1    0    0  502    0  0.00000000000E+00 -0.00000000000E+00 -0.20572442387E+04  0.20572442387E+04  0.00000000000E+00 0. -1.
          6    2    1    2  502    0 -0.20801501395E+02 -0.37414600001E+03 -0.10816929238E+03  0.42675751925E+03  0.17321504740E+03 0.  0.
         24    2    3    3    0    0 -0.37028737309E+02 -0.26023911264E+03 -0.92919124080E+01  0.27497830972E+03  0.80194813108E+02 0.  0.
         -6    2    1    2    0  501  0.20801501395E+02  0.37414600001E+03 -0.17652845491E+04  0.18142771167E+04  0.18695984930E+03 0.  0.
        -24    2    5    5    0    0 -0.26173850317E+02  0.30363218863E+03 -0.11243037173E+04  0.11677035339E+04  0.81210331772E+02 0.  0.
          5    1    3    3  502    0  0.16227235914E+02 -0.11390688737E+03 -0.98877379973E+02  0.15177920953E+03  0.47000000000E+01 0. -1.
        -11    1    4    4    0    0  0.21992990415E+02 -0.31817422568E+02  0.25055063996E+01  0.38759741596E+02  0.00000000000E+00 0.  1.
         12    1    4    4    0    0 -0.59021727724E+02 -0.22842169007E+03 -0.11797418808E+02  0.23621856813E+03  0.00000000000E+00 0. -1.
         -5    1    5    5    0  501  0.46975351712E+02  0.70513811379E+02 -0.64098083177E+03  0.64657358279E+03  0.47000000000E+01 0.  1.
         11    1    6    6    0    0 -0.34422059592E+01  0.17511945388E+03 -0.78174113533E+03  0.80112288357E+03  0.00000000000E+00 0. -1.
        -12    1    6    6    0    0 -0.22731644357E+02  0.12851273475E+03 -0.34256258196E+03  0.36658065034E+03  0.00000000000E+00 0.  1.
</event>
<event>
12    1  0.1081556E+000  0.5825637E+03  0.7818608E-02  0.9942256E-01
         -2   -1    0    0    0  501 -0.00000000000E+00  0.00000000000E+00  0.30430845827E+03  0.30430845827E+03  0.00000000000E+00 0.  1.
          2   -1    0    0  502    0  0.00000000000E+00 -0.00000000000E+00 -0.17589793519E+04  0.17589793519E+04  0.00000000000E+00 0. -1.
          6    2    1    2  502    0 -0.35472862482E+01 -0.55648738179E+03 -0.10366341752E+03  0.59224029708E+03  0.17410248713E+03 0.  0.
         24    2    3    3    0    0  0.64457600149E+02 -0.30285361239E+03 -0.63230686509E+02  0.32651177153E+03  0.82077551609E+02 0.  0.
         -6    2    1    2    0  501  0.35472862482E+01  0.55648738179E+03 -0.13510074761E+04  0.14710475131E+04  0.17049573587E+03 0.  0.
        -24    2    5    5    0    0  0.37642691456E+02  0.44629484844E+03 -0.11805643580E+04  0.12651887324E+04  0.79838971344E+02 0.  0.
          5    1    3    3  502    0 -0.68004886397E+02 -0.25363376940E+03 -0.40432731013E+02  0.26572852555E+03  0.47000000000E+01 0. -1.
        -13    1    4    4    0    0  0.20161646840E+02 -0.21858417150E+03 -0.15617175087E+02  0.22006687209E+03  0.00000000000E+00 0.  1.
         14    1    4    4    0    0  0.44295953309E+02 -0.84269440890E+02 -0.47613511421E+02  0.10644489944E+03  0.00000000000E+00 0. -1.
         -5    1    5    5    0  501 -0.34095405208E+02  0.11019253335E+03 -0.17044311810E+03  0.20585878064E+03  0.47000000000E+01 0.  1.
         11    1    6    6    0    0 -0.12610422609E+01  0.33472471702E+03 -0.81719938863E+03  0.88309516316E+03  0.00000000000E+00 0. -1.
        -12    1    6    6    0    0  0.38903733717E+02  0.11157013142E+03 -0.36336496937E+03  0.38209356928E+03  0.00000000000E+00 0.  1.
</event>
<event>
12    1  0.1081556E+000  0.2114787E+03  0.7818608E-02  0.1140400E+00
          1   -1    0    0  502    0  0.00000000000E+00  0.00000000000E+00  0.22208395810E+03  0.22208395810E+03  0.00000000000E+00 0. -1.
         -1   -1    0    0    0  501 -0.00000000000E+00 -0.00000000000E+00 -0.50065383514E+03  0.50065383514E+03  0.00000000000E+00 0.  1.
          6    2    1    2  502    0 -0.91275688078E+02 -0.74805225872E+02 -0.41785349795E+03  0.46698375050E+03  0.17188718519E+03 0.  0.
         24    2    3    3    0    0 -0.72964767474E+02  0.10087744618E+02 -0.14701464000E+03  0.18252306214E+03  0.79219593238E+02 0.  0.
         -6    2    1    2    0  501  0.91275688078E+02  0.74805225872E+02  0.13928362091E+03  0.25575404274E+03  0.17911764367E+03 0.  0.
        -24    2    5    5    0    0  0.79397939491E+02  0.70710897883E+02  0.17390163090E+03  0.21862802695E+03  0.79071948643E+02 0.  0.
          5    1    3    3  502    0 -0.18310920604E+02 -0.84892970490E+02 -0.27083885795E+03  0.28446068837E+03  0.47000000000E+01 0. -1.
        -13    1    4    4    0    0 -0.72662209617E+02 -0.22050051044E+02 -0.99663121147E+02  0.12529460952E+03  0.00000000000E+00 0.  1.
         14    1    4    4    0    0 -0.30255785752E+00  0.32137795662E+02 -0.47351518857E+02  0.57228452620E+02  0.00000000000E+00 0. -1.
         -5    1    5    5    0  501  0.11877748588E+02  0.40943279892E+01 -0.34618009992E+02  0.37126015797E+02  0.47000000000E+01 0.  1.
         11    1    6    6    0    0  0.72654480512E+02  0.12935836735E+02  0.10692316222E+03  0.12991755859E+03  0.00000000000E+00 0. -1.
        -12    1    6    6    0    0  0.67434589788E+01  0.57775061148E+02  0.66978468680E+02  0.88710468358E+02  0.00000000000E+00 0.  1.
</event>
<event>
12    1  0.1429662E+000  0.7226448E+03  0.7818608E-02  0.9679271E-01
         -2   -1    0    0    0  501 -0.00000000000E+00  0.00000000000E+00  0.60586719629E+03  0.60586719629E+03  0.00000000000E+00 0.  1.
          2   -1    0    0  502    0  0.00000000000E+00 -0.00000000000E+00 -0.14543179219E+04  0.14543179219E+04  0.00000000000E+00 0. -1.
          6    2    1    2  502    0 -0.64724771590E+03  0.27245630682E+03  0.23335238154E+03  0.75898211311E+03  0.16863709315E+03 0.  0.
         24    2    3    3    0    0 -0.44580033549E+03  0.12400824392E+03  0.12436526254E+03  0.48600197361E+03  0.81333979030E+02 0.  0.
         -6    2    1    2    0  501  0.64724771590E+03 -0.27245630682E+03 -0.10818031071E+04  0.13012030050E+04  0.17224764988E+03 0.  0.
        -24    2    5    5    0    0  0.63633933130E+03 -0.25076780046E+03 -0.10728667656E+04  0.12749098051E+04  0.80868288889E+02 0.  0.
          5    1    3    3  502    0 -0.20144738042E+03  0.14844806290E+03  0.10898711900E+03  0.27298013950E+03  0.47000000000E+01 0. -1.
        -13    1    4    4    0    0 -0.19700157157E+03  0.33657561603E+02  0.89637882070E+02  0.21903744099E+03  0.00000000000E+00 0.  1.
         14    1    4    4    0    0 -0.24879876392E+03  0.90350682317E+02  0.34727380474E+02  0.26696453262E+03  0.00000000000E+00 0. -1.
         -5    1    5    5    0  501  0.10908384603E+02 -0.21688506357E+02 -0.89363415257E+01  0.26293199929E+02  0.47000000000E+01 0.  1.
         13    1    6    6    0    0  0.13022410370E+03 -0.87404723364E+02 -0.23689275136E+03  0.28410575231E+03  0.00000000000E+00 0. -1.
        -14    1    6    6    0    0  0.50611522760E+03 -0.16336307710E+03 -0.83597401424E+03  0.99080405280E+03  0.00000000000E+00 0.  1.
</event>
<event>
12    1  0.1081556E+000  0.7656837E+03  0.7818608E-02  0.9611061E-01
         -2   -1    0    0    0  501 -0.00000000000E+00  0.00000000000E+00  0.98717088755E+03  0.98717088755E+03  0.00000000000E+00 0.  1.
          2   -1    0    0  502    0  0.00000000000E+00 -0.00000000000E+00 -0.92696331420E+03  0.92696331420E+03  0.00000000000E+00 0. -1.
          6    2    1    2  502    0  0.23901404391E+03 -0.70660406548E+03  0.60379799923E+03  0.97510366583E+03  0.17273713178E+03 0.  0.
         24    2    3    3    0    0  0.23187383107E+03 -0.48872909805E+03  0.44798834861E+03  0.70711258147E+03  0.81810986775E+02 0.  0.
         -6    2    1    2    0  501 -0.23901404391E+03  0.70660406548E+03 -0.54359042587E+03  0.93903053592E+03  0.17283164571E+03 0.  0.
        -24    2    5    5    0    0 -0.10581865368E+03  0.51764268324E+03 -0.35238849652E+03  0.63898439989E+03  0.70511529926E+02 0.  0.
          5    1    3    3  502    0  0.71402128354E+01 -0.21787496743E+03  0.15580965062E+03  0.26799108436E+03  0.47000000000E+01 0. -1.
        -13    1    4    4    0    0  0.87068945307E+02 -0.13860201979E+03  0.94888241356E+02  0.18919645735E+03  0.00000000000E+00 0.  1.
         14    1    4    4    0    0  0.14480488577E+03 -0.35012707826E+03  0.35310010726E+03  0.51791612411E+03  0.00000000000E+00 0. -1.
         -5    1    5    5    0  501 -0.13319539023E+03  0.18896138224E+03 -0.19120192936E+03  0.30004613603E+03  0.47000000000E+01 0.  1.
         11    1    6    6    0    0 -0.19191979888E+02  0.18649611346E+03 -0.15910370611E+03  0.24589250034E+03  0.00000000000E+00 0. -1.
        -12    1    6    6    0    0 -0.86626673788E+02  0.33114656978E+03 -0.19328479041E+03  0.39309189955E+03  0.00000000000E+00 0.  1.
</event>
<event>
12    1  0.1081556E+000  0.2026543E+03  0.7818608E-02  0.1147519E+00
         -1   -1    0    0    0  501 -0.00000000000E+00  0.00000000000E+00  0.29037106331E+02  0.29037106331E+02  0.00000000000E+00 0.  1.
          1   -1    0    0  502    0  0.00000000000E+00 -0.00000000000E+00 -0.14145495967E+04  0.14145495967E+04  0.00000000000E+00 0. -1.
          6    2    1    2  502    0  0.11015925085E+03 -0.59059127938E+01 -0.70263682164E+03  0.73140652936E+03  0.17054931169E+03 0.  0.
         24    2    3    3    0    0  0.22040212847E+02 -0.47888670281E+02 -0.23810046297E+03  0.25670279511E+03  0.80158585498E+02 0.  0.
         -6    2    1    2    0  501 -0.11015925085E+03  0.59059127938E+01 -0.68287566873E+03  0.71218017367E+03  0.16944462360E+03 0.  0.
        -24    2    5    5    0    0 -0.97245075932E+02 -0.33220627381E+02 -0.29970444294E+03  0.32677137728E+03  0.79978528463E+02 0.  0.
          5    1    3    3  502    0  0.88119038005E+02  0.41982757487E+02 -0.46453635867E+03  0.47470373425E+03  0.47000000000E+01 0. -1.
        -13    1    4    4    0    0 -0.27725554506E+02 -0.40312846509E+01 -0.50960066008E+02  0.58153984869E+02  0.00000000000E+00 0.  1.
         14    1    4    4    0    0  0.49765767353E+02 -0.43857385630E+02 -0.18714039696E+03  0.19854881024E+03  0.00000000000E+00 0. -1.
         -5    1    5    5    0  501 -0.12914174920E+02  0.39126540175E+02 -0.38317122579E+03  0.38540879639E+03  0.47000000000E+01 0.  1.
         13    1    6    6    0    0 -0.92658313316E+02 -0.26788087731E+02 -0.30317069319E+03  0.31814404580E+03  0.00000000000E+00 0. -1.
        -14    1    6    6    0    0 -0.45867626156E+01 -0.64325396500E+01  0.34662502488E+01  0.86273314778E+01  0.00000000000E+00 0.  1.
</event>
<event>
12    1  0.1081556E+000  0.6325114E+03  0.7818608E-02  0.9840160E-01
          1   -1    0    0  502    0  0.00000000000E+00  0.00000000000E+00  0.20631779062E+04  0.20631779062E+04  0.00000000000E+00 0. -1.
         -1   -1    0    0    0  501 -0.00000000000E+00 -0.00000000000E+00 -0.32897564479E+03  0.32897564479E+03  0.00000000000E+00 0.  1.
          6    2    1    2  502    0  0.52755155194E+03 -0.30375967732E+03  0.10073081831E+03  0.64050605004E+03  0.17181595055E+03 0.  0.
         24    2    3    3    0    0  0.34024800323E+03 -0.18983121592E+03  0.13171853116E+03  0.41904580073E+03  0.80280865839E+02 0.  0.
         -6    2    1    2    0  501 -0.52755155194E+03  0.30375967732E+03  0.16334714431E+04  0.17516475009E+04  0.17163749770E+03 0.  0.
        -24    2    5    5    0    0 -0.35660110407E+03  0.13046348071E+03  0.10426622042E+04  0.11126378969E+04  0.81446609258E+02 0.  0.
          5    1    3    3  502    0  0.18730354871E+03 -0.11392846140E+03 -0.30987712856E+02  0.22146024931E+03  0.47000000000E+01 0. -1.
        -13    1    4    4    0    0  0.11476583547E+03 -0.22334784223E+02  0.39012344199E+02  0.12325584196E+03  0.00000000000E+00 0.  1.
         14    1    4    4    0    0  0.22548216776E+03 -0.16749643169E+03  0.92706186965E+02  0.29578995877E+03  0.00000000000E+00 0. -1.
         -5    1    5    5    0  501 -0.17095044786E+03  0.17329619660E+03  0.59080923884E+03  0.63900960406E+03  0.47000000000E+01 0.  1.
         11    1    6    6    0    0 -0.18052620432E+03  0.90866461688E+02  0.64538442889E+03  0.67628949818E+03  0.00000000000E+00 0. -1.
        -12    1    6    6    0    0 -0.17607489976E+03  0.39597019024E+02  0.39727777535E+03  0.43634839867E+03  0.00000000000E+00 0.  1.
</event>
<event>
12    1  0.1081556E+000  0.2505941E+03  0.7818608E-02  0.1112930E+00
          2   -1    0    0  502    0  0.00000000000E+00  0.00000000000E+00  0.11334101337E+04  0.11334101337E+04  0.00000000000E+00 0. -1.
         -2   -1    0    0    0  501 -0.00000000000E+00 -0.00000000000E+00 -0.16059650352E+03  0.16059650352E+03  0.00000000000E+00 0.  1.
          6    2    1    2  502    0  0.11796924512E+03  0.13104882151E+03 -0.40046280163E+02  0.24955426472E+03  0.17199735484E+03 0.  0.
         24    2    3    3    0    0  0.87432339807E+02  0.11955580115E+03 -0.88492081613E+02  0.19095667278E+03  0.81826638309E+02 0.  0.
         -6    2    1    2    0  501 -0.11796924512E+03 -0.13104882151E+03  0.10128599104E+04  0.10444523725E+04  0.18413316928E+03 0.  0.
        -24    2    5    5    0    0 -0.14218841267E+03 -0.14405736431E+03  0.77913042111E+03  0.80906470418E+03  0.81064255563E+02 0.  0.
          5    1    3    3  502    0  0.30536905311E+02  0.11493020360E+02  0.48445801450E+02  0.58597591940E+02  0.47000000000E+01 0. -1.
        -13    1    4    4    0    0  0.93963080403E+02  0.10203089312E+03 -0.48731880428E+02  0.14701754929E+03  0.00000000000E+00 0.  1.
         14    1    4    4    0    0 -0.65307405962E+01  0.17524908025E+02 -0.39760201186E+02  0.43939123482E+02  0.00000000000E+00 0. -1.
         -5    1    5    5    0  501  0.24219167552E+02  0.13008542804E+02  0.23372948925E+03  0.23538766834E+03  0.47000000000E+01 0.  1.
         11    1    6    6    0    0 -0.56155011688E+02 -0.34425856206E+02  0.39461893335E+03  0.40007827668E+03  0.00000000000E+00 0. -1.
        -12    1    6    6    0    0 -0.86033400982E+02 -0.10963150811E+03  0.38451148776E+03  0.40898642750E+03  0.00000000000E+00 0.  1.
</event>
<event>
12    1  0.1081556E+000  0.3943679E+03  0.7818608E-02  0.1045747E+00
          1   -1    0    0  502    0  0.00000000000E+00  0.00000000000E+00  0.15235704221E+04  0.15235704221E+04  0.00000000000E+00 0. -1.
         -1   -1    0    0    0  501 -0.00000000000E+00 -0.00000000000E+00 -0.15442495770E+04  0.15442495770E+04  0.00000000000E+00 0.  1.
          6    2    1    2  502    0  0.11835403989E+02 -0.35439902860E+03 -0.14926842170E+04  0.15438492715E+04  0.17212104289E+03 0.  0.
         24    2    3    3    0    0  0.11864577132E+02 -0.99603165003E+02 -0.69101938800E+03  0.70265397855E+03  0.78442719922E+02 0.  0.
         -6    2    1    2    0  501 -0.11835403989E+02  0.35439902860E+03  0.14720050620E+04  0.15239707275E+04  0.17305816177E+03 0.  0.
        -24    2    5    5    0    0  0.67827894601E+02  0.23029987665E+03  0.96011376834E+03  0.99124037617E+03  0.55681044699E+02 0.  0.
          5    1    3    3  502    0 -0.29173142743E-01 -0.25479586359E+03 -0.80166482896E+03  0.84119529299E+03  0.47000000000E+01 0. -1.
        -13    1    4    4    0    0 -0.60535325094E+01 -0.97458123866E+02 -0.65630507478E+03  0.66352926261E+03  0.00000000000E+00 0.  1.
         14    1    4    4    0    0  0.17918109641E+02 -0.21450411377E+01 -0.34714313219E+02  0.39124715934E+02  0.00000000000E+00 0. -1.
         -5    1    5    5    0  501 -0.79663298590E+02  0.12409915194E+03  0.51189129369E+03  0.53273035132E+03  0.47000000000E+01 0.  1.
         11    1    6    6    0    0  0.42293486237E+01  0.77817337552E+02  0.23665413160E+03  0.24915578143E+03  0.00000000000E+00 0. -1.
        -12    1    6    6    0    0  0.63598545978E+02  0.15248253910E+03  0.72345963673E+03  0.74208459475E+03  0.00000000000E+00 0.  1.
</event>
<event>
12    1  0.1081556E+000  0.4535625E+03  0.7818608E-02  0.1026665E+00
          1   -1    0    0  502    0  0.00000000000E+00  0.00000000000E+00  0.46516939298E+03  0.46516939298E+03  0.00000000000E+00 0. -1.
         -1   -1    0    0    0  501 -0.00000000000E+00 -0.00000000000E+00 -0.70506898664E+03  0.70506898664E+03  0.00000000000E+00 0.  1.
          6    2    1    2  502    0 -0.29174256237E+02  0.41983449955E+03 -0.47703292574E+03  0.65759365623E+03  0.16660390221E+03 0.  0.
         24    2    3    3    0    0  0.99969787500E+01  0.24952127892E+03 -0.36811273300E+03  0.45161628573E+03  0.78035101829E+02 0.  0.
         -6    2    1    2    0  501  0.29174256237E+02 -0.41983449955E+03  0.23713333208E+03  0.51264472339E+03  0.17163988754E+03 0.  0.
        -24    2    5    5    0    0  0.52396076694E+02 -0.22732560916E+03  0.71887704628E+02  0.25783669130E+03  0.83003830459E+02 0.  0.
          5    1    3    3  502    0 -0.39171234987E+02  0.17031322063E+03 -0.10892019274E+03  0.20597737050E+03  0.47000000000E+01 0. -1.
        -13    1    4    4    0    0 -0.32682938979E+02  0.14443877443E+03 -0.21523100353E+03  0.26125680650E+03  0.00000000000E+00 0.  1.
         14    1    4    4    0    0  0.42679917729E+02  0.10508250449E+03 -0.15288172947E+03  0.19035947923E+03  0.00000000000E+00 0. -1.
         -5    1    5    5    0  501 -0.23221820457E+02 -0.19250889039E+03  0.16524562745E+03  0.25480803209E+03  0.47000000000E+01 0.  1.
         13    1    6    6    0    0  0.50614035777E+02 -0.13795128278E+03  0.81326914851E+02  0.16794762314E+03  0.00000000000E+00 0. -1.
        -14    1    6    6    0    0  0.17820409176E+01 -0.89374326373E+02 -0.94392102231E+01  0.89889068157E+02  0.00000000000E+00 0.  1.
</event>
<event>
12    1  0.1081556E+000  0.1729541E+03  0.7818608E-02  0.1174802E+00
         -1   -1    0    0    0  501 -0.00000000000E+00  0.00000000000E+00  0.38103532270E+02  0.38103532270E+02  0.00000000000E+00 0.  1.
          1   -1    0    0  502    0  0.00000000000E+00 -0.00000000000E+00 -0.79529045050E+03  0.79529045050E+03  0.00000000000E+00 0. -1.
          6    2    1    2  502    0 -0.12384041333E+01 -0.47430789913E+01 -0.34247600819E+03  0.38577869599E+03  0.17751438153E+03 0.  0.
         24    2    3    3    0    0  0.23279246883E+02  0.60283358889E+01 -0.63649540337E+02  0.10562975745E+03  0.80796766671E+02 0.  0.
         -6    2    1    2    0  501  0.12384041333E+01  0.47430789913E+01 -0.41471091005E+03  0.44761528679E+03  0.16837540085E+03 0.  0.
        -24    2    5    5    0    0  0.36187639112E+02  0.17399598493E+02 -0.11768420927E+03  0.14823494761E+03  0.80695324089E+02 0.  0.
          5    1    3    3  502    0 -0.24517651016E+02 -0.10771414880E+02 -0.27882646785E+03  0.28014893854E+03  0.47000000000E+01 0. -1.
        -11    1    4    4    0    0 -0.20543962711E+02  0.92281956362E+01  0.59739669695E+01  0.23300263516E+02  0.00000000000E+00 0.  1.
         12    1    4    4    0    0  0.43823209594E+02 -0.31998597473E+01 -0.69623507307E+02  0.82329493933E+02  0.00000000000E+00 0. -1.
         -5    1    5    5    0  501 -0.34949234979E+02 -0.12656519502E+02 -0.29702670077E+03  0.29938033917E+03  0.47000000000E+01 0.  1.
         11    1    6    6    0    0  0.31943756409E+02 -0.96969798796E+01 -0.11605365133E+03  0.12075961651E+03  0.00000000000E+00 0. -1.
        -12    1    6    6    0    0  0.42438827032E+01  0.27096578373E+02 -0.16305579381E+01  0.27475331101E+02  0.00000000000E+00 0.  1.
</event>
<event>
12    1  0.1081556E+000  0.7465933E+03  0.7818608E-02  0.9640710E-01
          1   -1    0    0  502    0  0.00000000000E+00  0.00000000000E+00  0.11161779978E+04  0.11161779978E+04  0.00000000000E+00 0. -1.
         -1   -1    0    0    0  501 -0.00000000000E+00 -0.00000000000E+00 -0.68224185494E+03  0.68224185494E+03  0.00000000000E+00 0.  1.
          6    2    1    2  502    0  0.45144209055E+03 -0.56931008367E+03  0.68250109146E+03  0.10115451302E+04  0.17176110784E+03 0.  0.
         24    2    3    3    0    0  0.16217706565E+03 -0.25740874943E+03  0.36060227289E+03  0.47806819884E+03  0.77165657030E+02 0.  0.
         -6    2    1    2    0  501 -0.45144209055E+03  0.56931008367E+03 -0.24856494860E+03  0.78687472250E+03  0.17167807884E+03 0.  0.
        -24    2    5    5    0    0 -0.34621952079E+03  0.37476699351E+03 -0.22575670892E+03  0.56447618628E+03  0.85726409337E+02 0.  0.
          5    1    3    3  502    0  0.28926502490E+03 -0.31190133425E+03  0.32189881857E+03  0.53347693139E+03  0.47000000000E+01 0. -1.
        -13    1    4    4    0    0  0.13875705886E+03 -0.23311282830E+03  0.27608693763E+03  0.38706473520E+03  0.00000000000E+00 0.  1.
         14    1    4    4    0    0  0.23420006789E+02 -0.24295921122E+02  0.84515335250E+02  0.91003463635E+02  0.00000000000E+00 0. -1.
         -5    1    5    5    0  501 -0.10522256975E+03  0.19454309016E+03 -0.22808239687E+02  0.22239853622E+03  0.47000000000E+01 0.  1.
         11    1    6    6    0    0 -0.27073542782E+03  0.30025233989E+03 -0.13922548533E+03  0.42758961078E+03  0.00000000000E+00 0. -1.
        -12    1    6    6    0    0 -0.75484092972E+02  0.74514653620E+02 -0.86531223589E+02  0.13688657550E+03  0.00000000000E+00 0.  1.
</event>
<event>
12    1  0.1081556E+000  0.4929707E+03  0.7818608E-02  0.1015630E+00
          1   -1    0    0  502    0  0.00000000000E+00  0.00000000000E+00  0.21987125103E+04  0.21987125103E+04  0.00000000000E+00 0. -1.
         -1   -1    0    0    0  501 -0.00000000000E+00 -0.00000000000E+00 -0.13812583288E+04  0.13812583288E+04  0.00000000000E+00 0.  1.
          6    2    1    2  502    0 -0.42249535520E+03  0.18679643252E+03 -0.13081852606E+04  0.13977880221E+04  0.17049177728E+03 0.  0.
         24    2    3    3    0    0 -0.26801362445E+03  0.62001956509E+02 -0.64997760217E+03  0.71025789324E+03  0.79497459634E+02 0.  0.
         -6    2    1    2    0  501  0.42249535520E+03 -0.18679643252E+03  0.21256394421E+04  0.21821828170E+04  0.17373421339E+03 0.  0.
        -24    2    5    5    0    0  0.25856948186E+03 -0.77589138014E+02  0.15029050706E+04  0.15290227199E+04  0.79426540482E+02 0.  0.
          5    1    3    3  502    0 -0.15448173075E+03  0.12479447601E+03 -0.65820765845E+03  0.68753012881E+03  0.47000000000E+01 0. -1.
        -11    1    4    4    0    0 -0.13832058390E+03  0.35697499513E+01 -0.39137357943E+03  0.41511276265E+03  0.00000000000E+00 0.  1.
         12    1    4    4    0    0 -0.12969304056E+03  0.58432206558E+02 -0.25860402274E+03  0.29514513059E+03  0.00000000000E+00 0. -1.
         -5    1    5    5    0  501  0.16392587334E+03 -0.10920729451E+03  0.62273437143E+03  0.65316009713E+03  0.47000000000E+01 0.  1.
         11    1    6    6    0    0  0.39101895424E+02  0.15839876417E+02  0.19020086549E+03  0.19482358467E+03  0.00000000000E+00 0. -1.
        -12    1    6    6    0    0  0.21946758643E+03 -0.93429014431E+02  0.13127042052E+04  0.13341991352E+04  0.00000000000E+00 0.  1.
</event>
<event>
12    1  0.1081556E+000  0.5030805E+03  0.7818608E-02  0.1012978E+00
          2   -1    0    0  502    0  0.00000000000E+00  0.00000000000E+00  0.79666607177E+03  0.79666607177E+03  0.00000000000E+00 0. -1.
         -2   -1    0    0    0  501 -0.00000000000E+00 -0.00000000000E+00 -0.36186804641E+03  0.36186804641E+03  0.00000000000E+00 0.  1.
          6    2    1    2  502    0 -0.16707295349E+03 -0.43962688893E+03  0.14948137405E+02  0.50318540333E+03  0.17828889493E+03 0.  0.
         24    2    3    3    0    0 -0.17699814307E+03 -0.32200720576E+03  0.52186931151E+02  0.37932371830E+03  0.78396583316E+02 0.  0.
         -6    2    1    2    0  501  0.16707295349E+03  0.43962688893E+03  0.41984988796E+03  0.65534871486E+03  0.17894925646E+03 0.  0.
        -24    2    5    5    0    0  0.16914870864E+03  0.32307575771E+03  0.24998180411E+03  0.44927656522E+03  0.79807886895E+02 0.  0.
          5    1    3    3  502    0  0.99251895812E+01 -0.11761968317E+03 -0.37238793746E+02  0.12386168502E+03  0.47000000000E+01 0. -1.
        -13    1    4    4    0    0 -0.14971273989E+03 -0.23793165180E+03  0.97783366511E+01  0.28128453794E+03  0.00000000000E+00 0.  1.
         14    1    4    4    0    0 -0.27285403176E+02 -0.84075553952E+02  0.42408594500E+02  0.98039180363E+02  0.00000000000E+00 0. -1.
         -5    1    5    5    0  501 -0.20757551542E+01  0.11655113122E+03  0.16986808384E+03  0.20607214964E+03  0.47000000000E+01 0.  1.
         11    1    6    6    0    0  0.11953740931E+03  0.20812438520E+03  0.11832033724E+03  0.26759045974E+03  0.00000000000E+00 0. -1.
        -12    1    6    6    0    0  0.49611299328E+02  0.11495137251E+03  0.13166146688E+03  0.18168610548E+03  0.00000000000E+00 0.  1.
</event>
<event>
12    1  0.1081556E+000  0.6721659E+03  0.7818608E-02  0.9766053E-01
          2   -1    0    0  502    0  0.00000000000E+00  0.00000000000E+00  0.34039693205E+04  0.34039693205E+04  0.00000000000E+00 0. -1.
         -2   -1    0    0    0  501 -0.00000000000E+00 -0.00000000000E+00 -0.14063909337E+03  0.14063909337E+03  0.00000000000E+00 0.  1.
          6    2    1    2  502    0  0.23337652208E+03  0.60513613729E+03  0.12134138210E+04  0.13875814896E+04  0.17987479959E+03 0.  0.
         24    2    3    3    0    0  0.19721871766E+03  0.51504906597E+03  0.89160579958E+03  0.10514184936E+04  0.79681765906E+02 0.  0.
         -6    2    1    2    0  501 -0.23337652208E+03 -0.60513613729E+03  0.20499164061E+04  0.21570269243E+04  0.17307089387E+03 0.  0.
        -24    2    5    5    0    0 -0.24680997451E+03 -0.53862289749E+03  0.17453655358E+04  0.18449727763E+04  0.81202846120E+02 0.  0.
          5    1    3    3  502    0  0.36157804422E+02  0.90087071317E+02  0.32180802142E+03  0.33616299601E+03  0.47000000000E+01 0. -1.
        -11    1    4    4    0    0  0.19162960490E+03  0.43162127707E+03  0.78244147942E+03  0.91391110126E+03  0.00000000000E+00 0.  1.
         12    1    4    4    0    0  0.55891127587E+01  0.83427788905E+02  0.10916432016E+03  0.13750739231E+03  0.00000000000E+00 0. -1.
         -5    1    5    5    0  501  0.13433452433E+02 -0.66513239799E+02  0.30455087028E+03  0.31205414803E+03  0.47000000000E+01 0.  1.
         11    1    6    6    0    0 -0.14708494690E+03 -0.40067518889E+03  0.12941575079E+04  0.13627245664E+04  0.00000000000E+00 0. -1.
        -12    1    6    6    0    0 -0.99725027615E+02 -0.13794770860E+03  0.45120802788E+03  0.48224820981E+03  0.00000000000E+00 0.  1.
</event>
<event>
12    1  0.1081556E+000  0.3706995E+03  0.7818608E-02  0.1054426E+00
         -2   -1    0    0    0  501 -0.00000000000E+00  0.00000000000E+00  0.46943867563E+03  0.46943867563E+03  0.00000000000E+00 0.  1.
          2   -1    0    0  502    0  0.00000000000E+00 -0.00000000000E+00 -0.21517004753E+04  0.21517004753E+04  0.00000000000E+00 0. -1.
          6    2    1    2  502    0 -0.25744413569E+03 -0.20020427218E+03  0.37736493649E+03  0.52822621018E+03  0.17395229296E+03 0.  0.
         24    2    3    3    0    0 -0.17307363075E+03 -0.65451365022E+02  0.25607556056E+03  0.32820138471E+03  0.88899343996E+02 0.  0.
         -6    2    1    2    0  501  0.25744413569E+03  0.20020427218E+03 -0.20596267362E+04  0.20929129407E+04  0.17850224542E+03 0.  0.
        -24    2    5    5    0    0  0.23975617039E+03  0.12933977961E+03 -0.13475920582E+04  0.13771265808E+04  0.79129415921E+02 0.  0.
          5    1    3    3  502    0 -0.84370504941E+02 -0.13475290715E+03  0.12128937593E+03  0.20002482547E+03  0.47000000000E+01 0. -1.
        -11    1    4    4    0    0 -0.87332914813E+02 -0.36424816144E+02  0.20121483243E+03  0.22235380372E+03  0.00000000000E+00 0.  1.
         12    1    4    4    0    0 -0.85740715937E+02 -0.29026548879E+02  0.54860728134E+02  0.10584758099E+03  0.00000000000E+00 0. -1.
         -5    1    5    5    0  501  0.17687965299E+02  0.70864492567E+02 -0.71203467796E+03  0.71578635992E+03  0.47000000000E+01 0.  1.
         13    1    6    6    0    0  0.16021716411E+03  0.11688474754E+03 -0.10641516304E+04  0.10824741458E+04  0.00000000000E+00 0. -1.
        -14    1    6    6    0    0  0.79539006282E+02  0.12455032064E+02 -0.28344042780E+03  0.29465243500E+03  0.00000000000E+00 0.  1.
</event>
<event>
12    1  0.1081556E+000  0.6464105E+03  0.7818608E-02  0.9813538E-01
         -1   -1    0    0    0  501 -0.00000000000E+00  0.00000000000E+00  0.97146984802E+03  0.97146984802E+03  0.00000000000E+00 0.  1.
          1   -1    0    0  502    0  0.00000000000E+00 -0.00000000000E+00 -0.27786941477E+04  0.27786941477E+04  0.00000000000E+00 0. -1.
          6    2    1    2  502    0 -0.62213866765E+03  0.34445936236E+02  0.82030708420E+03  0.10442230617E+04  0.17104106497E+03 0.  0.
         24    2    3    3    0    0 -0.28310745287E+03 -0.37208296186E+02  0.43011801536E+03  0.52235517320E+03  0.79492972333E+02 0.  0.
         -6    2    1    2    0  501  0.62213866765E+03 -0.34445936236E+02 -0.26275313839E+04  0.27059409340E+04  0.17306681031E+03 0.  0.
        -24    2    5    5    0    0  0.50528602970E+03 -0.35589634265E+02 -0.18521847521E+04  0.19218233813E+04  0.78969356099E+02 0.  0.
          5    1    3    3  502    0 -0.33903121478E+03  0.71654232422E+02  0.39018906884E+03  0.52186788851E+03  0.47000000000E+01 0. -1.
        -13    1    4    4    0    0 -0.90469871700E+02  0.24171205459E+02  0.15162930511E+03  0.17821473292E+03  0.00000000000E+00 0.  1.
         14    1    4    4    0    0 -0.19263758117E+03 -0.61379501645E+02  0.27848871025E+03  0.34414044028E+03  0.00000000000E+00 0. -1.
         -5    1    5    5    0  501  0.11685263795E+03  0.11436980294E+01 -0.77534663177E+03  0.78411755270E+03  0.47000000000E+01 0.  1.
         13    1    6    6    0    0  0.23926960141E+03 -0.11692759653E+02 -0.10234791877E+04  0.10511404809E+04  0.00000000000E+00 0. -1.
        -14    1    6    6    0    0  0.26601642829E+03 -0.23896874613E+02 -0.82870556438E+03  0.87068290047E+03  0.00000000000E+00 0.  1.
</event>
<event>
12    1  0.1081556E+000  0.4396536E+03  0.7818608E-02  0.1030853E+00
         -2   -1    0    0    0  501 -0.00000000000E+00  0.00000000000E+00  0.11523807332E+04  0.11523807332E+04  0.00000000000E+00 0.  1.
          2   -1    0    0  502    0  0.00000000000E+00 -0.00000000000E+00 -0.35895576313E+03  0.35895576313E+03  0.00000000000E+00 0. -1.
          6    2    1    2  502    0 -0.12597458499E+03 -0.38461634126E+03 -0.15484211123E+03  0.46609265508E+03  0.17165942350E+03 0.  0.
         24    2    3    3    0    0 -0.94239466133E+02 -0.13150958125E+03 -0.40767661848E+02  0.18661954414E+03  0.83600269533E+02 0.  0.
         -6    2    1    2    0  501  0.12597458499E+03  0.38461634126E+03  0.94826708132E+03  0.10452438413E+04  0.17182812393E+03 0.  0.
        -24    2    5    5    0    0  0.16886657063E+02  0.69949271859E+02  0.29401824730E+03  0.31109183562E+03  0.71786771930E+02 0.  0.
          5    1    3    3  502    0 -0.31735118853E+02 -0.25310676002E+03 -0.11407444938E+03  0.27947311093E+03  0.47000000000E+01 0. -1.
        -11    1    4    4    0    0 -0.77179645796E+02 -0.10364205776E+03  0.62383673706E+01  0.12937268293E+03  0.00000000000E+00 0.  1.
         12    1    4    4    0    0 -0.17059820336E+02 -0.27867523490E+02 -0.47006029219E+02  0.57246861209E+02  0.00000000000E+00 0. -1.
         -5    1    5    5    0  501  0.10908792792E+03  0.31466706941E+03  0.65424883402E+03  0.73415200565E+03  0.47000000000E+01 0.  1.
         11    1    6    6    0    0  0.31220358921E+02  0.75656637266E+02  0.20478484299E+03  0.22053450862E+03  0.00000000000E+00 0. -1.
        -12    1    6    6    0    0 -0.14333701858E+02 -0.57073654075E+01  0.89233404309E+02  0.90557327000E+02  0.00000000000E+00 0.  1.
</event>
<event>
12    1  0.1081556E+000  0.4234297E+03  0.7818608E-02  0.1035956E+00
         -2   -1    0    0    0  501 -0.00000000000E+00  0.00000000000E+00  0.39162339873E+03  0.39162339873E+03  0.00000000000E+00 0.  1.
          2   -1    0    0  502    0  0.00000000000E+00 -0.00000000000E+00 -0.11237015099E+04  0.11237015099E+04  0.00000000000E+00 0. -1.
          6    2    1    2  502    0 -0.32115870190E+03 -0.21693082945E+03 -0.94941467924E+03  0.10397126154E+04  0.17149983338E+03 0.  0.
         24    2    3    3    0    0 -0.30900552992E+03 -0.15367719053E+03 -0.85243848811E+03  0.92319998057E+03  0.80905696286E+02 0.  0.
         -6    2    1    2    0  501  0.32115870190E+03  0.21693082945E+03  0.21733656803E+03  0.47561229329E+03  0.16961713697E+03 0.  0.
        -24    2    5    5    0    0  0.33621868135E+03  0.20149733769E+03  0.19797085600E+03  0.44625047367E+03  0.79390469463E+02 0.  0.
          5    1    3    3  502    0 -0.12153171981E+02 -0.63253638915E+02 -0.96976191127E+02  0.11651263481E+03  0.47000000000E+01 0. -1.
        -13    1    4    4    0    0 -0.29032007864E+02  0.39473530686E+01 -0.11752974256E+03  0.12112670830E+03  0.00000000000E+00 0.  1.
         14    1    4    4    0    0 -0.27997352206E+03 -0.15762454360E+03 -0.73490874555E+03  0.80207327227E+03  0.00000000000E+00 0. -1.
         -5    1    5    5    0  501 -0.15059979449E+02  0.15433491760E+02  0.19365712028E+02  0.29361819618E+02  0.47000000000E+01 0.  1.
         13    1    6    6    0    0  0.30704316264E+03  0.17556187432E+03  0.14943446812E+03  0.38396371665E+03  0.00000000000E+00 0. -1.
        -14    1    6    6    0    0  0.29175518707E+02  0.25935463372E+02  0.48536387878E+02  0.62286757023E+02  0.00000000000E+00 0.  1.
</event>
<event>
12    1  0.1081556E+000  0.3871112E+03  0.7818608E-02  0.1048336E+00
         -1   -1    0    0    0  501 -0.00000000000E+00  0.00000000000E+00  0.52314928957E+03  0.52314928957E+03  0.00000000000E+00 0.  1.
          1   -1    0    0  502    0  0.00000000000E+00 -0.00000000000E+00 -0.42925532721E+03  0.42925532721E+03  0.00000000000E+00 0. -1.
          6    2    1    2  502    0 -0.10529989089E+02  0.34646869501E+03  0.32159184792E+03  0.50304343238E+03  0.17169723623E+03 0.  0.
         24    2    3    3    0    0 -0.49076963720E+02  0.28564179295E+03  0.30734733507E+03  0.42948544564E+03  0.77431139702E+02 0.  0.
         -6    2    1    2    0  501  0.10529989089E+02 -0.34646869501E+03 -0.22769788555E+03  0.44936118440E+03  0.17299627069E+03 0.  0.
        -24    2    5    5    0    0 -0.33956005736E+02 -0.11846280731E+03 -0.13196004891E+03  0.19805755943E+03  0.81405744861E+02 0.  0.
          5    1    3    3  502    0  0.38546974631E+02  0.60826902060E+02  0.14244512843E+02  0.73557986742E+02  0.47000000000E+01 0. -1.
        -13    1    4    4    0    0 -0.20543045246E+02  0.19905236289E+03  0.15998685734E+03  0.25620237001E+03  0.00000000000E+00 0.  1.
         14    1    4    4    0    0 -0.28533918474E+02  0.86589430062E+02  0.14736047773E+03  0.17328307563E+03  0.00000000000E+00 0. -1.
         -5    1    5    5    0  501  0.44485994825E+02 -0.22800588770E+03 -0.95737836638E+02  0.25130362497E+03  0.47000000000E+01 0.  1.
         13    1    6    6    0    0 -0.30274995368E+02 -0.95291135661E+02 -0.14105234120E+03  0.17289516719E+03  0.00000000000E+00 0. -1.
        -14    1    6    6    0    0 -0.36810103681E+01 -0.23171671647E+02  0.90922922828E+01  0.25162392239E+02  0.00000000000E+00 0.  1.
</event>
<event>
12    1  0.1081556E+000  0.2329698E+03  0.7818608E-02  0.1124567E+00
         -2   -1    0    0    0  501 -0.00000000000E+00  0.00000000000E+00  0.24472081709E+02  0.24472081709E+02  0.00000000000E+00 0.  1.
          2   -1    0    0  502    0  0.00000000000E+00 -0.00000000000E+00 -0.22250394199E+04  0.22250394199E+04  0.00000000000E+00 0. -1.
          6    2    1    2  502    0  0.89722464427E+00  0.16104813475E+03 -0.11725811450E+04  0.11958732747E+04  0.17096502823E+03 0.  0.
         24    2    3    3    0    0  0.10269645812E+02  0.13107664590E+02 -0.52967254159E+03  0.53607952867E+03  0.80938144619E+02 0.  0.
         -6    2    1    2    0  501 -0.89722464427E+00 -0.16104813475E+03 -0.10279861932E+04  0.10536382269E+04  0.16571238047E+03 0.  0.
        -24    2    5    5    0    0  0.35673729077E+02 -0.70749989331E+02 -0.76168517476E+03  0.77003725344E+03  0.80714870380E+02 0.  0.
          5    1    3    3  502    0 -0.93724211681E+01  0.14794047016E+03 -0.64290860336E+03  0.65979374601E+03  0.47000000000E+01 0. -1.
        -13    1    4    4    0    0 -0.13203949792E+02  0.40636309183E+02 -0.20553269017E+03  0.20992698884E+03  0.00000000000E+00 0.  1.
         14    1    4    4    0    0  0.23473595604E+02 -0.27528644594E+02 -0.32413985142E+03  0.32615253983E+03  0.00000000000E+00 0. -1.
         -5    1    5    5    0  501 -0.36570953721E+02 -0.90298145415E+02 -0.26630101848E+03  0.28360097349E+03  0.47000000000E+01 0.  1.
         11    1    6    6    0    0  0.30567850551E+02 -0.45102828926E+02 -0.18747710444E+03  0.19523402202E+03  0.00000000000E+00 0. -1.
        -12    1    6    6    0    0  0.51058785260E+01 -0.25647160405E+02 -0.57420807032E+03  0.57480323142E+03  0.00000000000E+00 0.  1.
</event>
<event>
12    1  0.1081556E+000  0.2547232E+03  0.7818608E-02  0.1110356E+00
          2   -1    0    0  502    0  0.00000000000E+00  0.00000000000E+00  0.35749772288E+03  0.35749772288E+03  0.00000000000E+00 0. -1.
         -2   -1    0    0    0  501 -0.00000000000E+00 -0.00000000000E+00 -0.27665917502E+03  0.27665917502E+03  0.00000000000E+00 0.  1.
          6    2    1    2  502    0 -0.13709922830E+03 -0.12758172297E+03 -0.14542694241E+03  0.29427217882E+03  0.17428088023E+03 0.  0.
         24    2    3    3    0    0 -0.15601448559E+03 -0.14626511542E+03 -0.13457851966E+03  0.26517519636E+03  0.80451868289E+02 0.  0.
         -6    2    1    2    0  501  0.13709922830E+03  0.12758172297E+03  0.22626549028E+03  0.33988471908E+03  0.17103290834E+03 0.  0.
        -24    2    5    5    0    0  0.12870203999E+03  0.66270128730E+02  0.22308085135E+03  0.27774088362E+03  0.80118581729E+02 0.  0.
          5    1    3    3  502    0  0.18915257291E+02  0.18683392452E+02 -0.10848422759E+02  0.29096982459E+02  0.47000000000E+01 0. -1.
        -13    1    4    4    0    0 -0.42094431896E+02 -0.97108163568E+01 -0.17945293202E+01  0.43237269646E+02  0.00000000000E+00 0.  1.
         14    1    4    4    0    0 -0.11392005369E+03 -0.13655429906E+03 -0.13278399034E+03  0.22193792672E+03  0.00000000000E+00 0. -1.
         -5    1    5    5    0  501  0.83971883056E+01  0.61311594240E+02  0.31846389300E+01  0.62143835453E+02  0.47000000000E+01 0.  1.
         13    1    6    6    0    0  0.67189117341E+01  0.36170424954E+02  0.75024801901E+02  0.83559346075E+02  0.00000000000E+00 0. -1.
        -14    1    6    6    0    0  0.12198312826E+03  0.30099703776E+02  0.14805604945E+03  0.19418153755E+03  0.00000000000E+00 0.  1.
</event>
<event>
12    1  0.1081556E+000  0.1058914E+04  0.7818608E-02  0.9246189E-01
          2   -1    0    0  502    0  0.00000000000E+00  0.00000000000E+00  0.19687548190E+04  0.19687548190E+04  0.00000000000E+00 0. -1.
         -2   -1    0    0    0  501 -0.00000000000E+00 -0.00000000000E+00 -0.63543068272E+03  0.63543068272E+03  0.00000000000E+00 0.  1.
          6    2    1    2  502    0 -0.77688890781E+03  0.69870195689E+03  0.10859075883E+04  0.15167060227E+04  0.17164227173E+03 0.  0.
         24    2    3    3    0    0 -0.41879691589E+03  0.35960638146E+03  0.48173029077E+03  0.73679065502E+03  0.78030698679E+02 0.  0.
         -6    2    1    2    0  501  0.77688890781E+03 -0.69870195689E+03  0.24741654803E+03  0.10874794790E+04  0.17220879599E+03 0.  0.
        -24    2    5    5    0    0  0.26605662040E+03 -0.32404441867E+03  0.88192305573E+02  0.43426255779E+03  0.70817905938E+02 0.  0.
          5    1    3    3  502    0 -0.35809199192E+03  0.33909557543E+03  0.60417729750E+03  0.77991536770E+03  0.47000000000E+01 0. -1.
        -11    1    4    4    0    0 -0.45955097577E+02  0.47074583572E+02  0.93722805226E+02  0.11450699381E+03  0.00000000000E+00 0.  1.
         12    1    4    4    0    0 -0.37284181831E+03  0.31253179789E+03  0.38800748554E+03  0.62228366121E+03  0.00000000000E+00 0. -1.
         -5    1    5    5    0  501  0.51083228741E+03 -0.37465753822E+03  0.15922424246E+03  0.65321692124E+03  0.47000000000E+01 0.  1.
         13    1    6    6    0    0  0.20700155327E+03 -0.20115349340E+03  0.53211476800E+02  0.29350269544E+03  0.00000000000E+00 0. -1.
        -14    1    6    6    0    0  0.59055067129E+02 -0.12289092527E+03  0.34980828773E+02  0.14075986235E+03  0.00000000000E+00 0.  1.
</event>
<event>
12    1  0.1081556E+000  0.1121376E+04  0.7818608E-02  0.9184604E-01
         -2   -1    0    0    0  501 -0.00000000000E+00  0.00000000000E+00  0.77727016489E+03  0.77727016489E+03  0.00000000000E+00 0.  1.
          2   -1    0    0  502    0  0.00000000000E+00 -0.00000000000E+00 -0.30985902744E+04  0.30985902744E+04  0.00000000000E+00 0. -1.
          6    2    1    2  502    0 -0.59101554485E+03  0.93733758574E+03  0.17904556113E+03  0.11355251849E+04  0.17163626836E+03 0.  0.
         24    2    3    3    0    0 -0.57003736496E+03  0.87724970091E+03  0.20051658694E+03  0.10681921849E+04  0.79485892238E+02 0.  0.
         -6    2    1    2    0  501  0.59101554485E+03 -0.93733758574E+03 -0.25003656706E+04  0.27403352544E+04  0.17235920578E+03 0.  0.
        -24    2    5    5    0    0  0.49172715667E+03 -0.85728088880E+03 -0.21552392570E+04  0.23723657039E+04  0.79603134435E+02 0.  0.
          5    1    3    3  502    0 -0.20978179897E+02  0.60087884827E+02 -0.21471025804E+02  0.67332999961E+02  0.47000000000E+01 0. -1.
        -11    1    4    4    0    0 -0.27146254048E+03  0.47468212369E+03  0.12985339187E+03  0.56202929889E+03  0.00000000000E+00 0.  1.
         12    1    4    4    0    0 -0.29857482448E+03  0.40256757722E+03  0.70663195071E+02  0.50616288602E+03  0.00000000000E+00 0. -1.
         -5    1    5    5    0  501  0.99288388182E+02 -0.80056696939E+02 -0.34512641357E+03  0.36796955051E+03  0.47000000000E+01 0.  1.
         13    1    6    6    0    0  0.17282797834E+03 -0.23284786387E+03 -0.66018646451E+03  0.72106435616E+03  0.00000000000E+00 0. -1.
        -14    1    6    6    0    0  0.31889917833E+03 -0.62443302493E+03 -0.14950527925E+04  0.16513013477E+04  0.00000000000E+00 0.  1.
</event>
<event>
12    1  0.1081556E+000  0.3501489E+03  0.7818608E-02  0.1062554E+00
          1   -1    0    0  502    0  0.00000000000E+00  0.00000000000E+00  0.48611361962E+03  0.48611361962E+03  0.00000000000E+00 0. -1.
         -1   -1    0    0    0  501 -0.00000000000E+00 -0.00000000000E+00 -0.43008323932E+03  0.43008323932E+03  0.00000000000E+00 0.  1.
          6    2    1    2  502    0  0.24824334772E+03  0.18086973382E+03 -0.26667044122E+03  0.43853651203E+03  0.16389791903E+03 0.  0.
         24    2    3    3    0    0  0.13512065808E+03  0.17506804179E+03 -0.15476879657E+03  0.27924285046E+03  0.71531654843E+02 0.  0.
         -6    2    1    2    0  501 -0.24824334772E+03 -0.18086973382E+03  0.32270082152E+03  0.47766034692E+03  0.17229325729E+03 0.  0.
        -24    2    5    5    0    0 -0.22643583636E+03 -0.94460693510E+02  0.27192451488E+03  0.37498409302E+03  0.80461901660E+02 0.  0.
          5    1    3    3  502    0  0.11312268964E+03  0.58016920336E+01 -0.11190164464E+03  0.15929366157E+03  0.47000000000E+01 0. -1.
        -11    1    4    4    0    0  0.34365871298E+02  0.15744725154E+02 -0.52759370086E+02  0.64903471495E+02  0.00000000000E+00 0.  1.
         12    1    4    4    0    0  0.10075478679E+03  0.15932331663E+03 -0.10200942649E+03  0.21433937896E+03  0.00000000000E+00 0. -1.
         -5    1    5    5    0  501 -0.21807511367E+02 -0.86409040309E+02  0.50776306641E+02  0.10267625390E+03  0.47000000000E+01 0.  1.
         13    1    6    6    0    0 -0.12238872816E+03 -0.37514617420E+02  0.85194363443E+02  0.15376744409E+03  0.00000000000E+00 0. -1.
        -14    1    6    6    0    0 -0.10404710820E+03 -0.56946076090E+02  0.18673015144E+03  0.22121664893E+03  0.00000000000E+00 0.  1.
</event>
<event>
12    1  0.1081556E+000  0.1311341E+04  0.7818608E-02  0.9020620E-01
          2   -1    0    0  502    0  0.00000000000E+00  0.00000000000E+00  0.31738865248E+04  0.31738865248E+04  0.00000000000E+00 0. -1.
         -2   -1    0    0    0  501 -0.00000000000E+00 -0.00000000000E+00 -0.82755347284E+03  0.82755347284E+03  0.00000000000E+00 0.  1.
          6    2    1    2  502    0 -0.36929956506E+02 -0.12994482988E+04  0.23488421005E+04  0.26901155316E+04  0.17243160283E+03 0.  0.
         24    2    3    3    0    0  0.30120701770E+02 -0.52896185299E+03  0.10398569208E+04  0.11697177401E+04  0.78925769817E+02 0.  0.
         -6    2    1    2    0  501  0.36929956506E+02  0.12994482988E+04 -0.25090485393E+01  0.13113244660E+04  0.17215068059E+03 0.  0.
        -24    2    5    5    0    0  0.45250168612E+02  0.75987595191E+03 -0.68128985712E+02  0.76769259642E+03  0.72466018563E+02 0.  0.
          5    1    3    3  502    0 -0.67050658276E+02 -0.77048644580E+03  0.13089851797E+04  0.15203977916E+04  0.47000000000E+01 0. -1.
        -13    1    4    4    0    0 -0.92551493746E-01 -0.13171069328E+03  0.19089539757E+03  0.23192405675E+03  0.00000000000E+00 0.  1.
         14    1    4    4    0    0  0.30213253264E+02 -0.39725115971E+03  0.84896152320E+03  0.93779368330E+03  0.00000000000E+00 0. -1.
         -5    1    5    5    0  501 -0.83202121059E+01  0.53957234687E+03  0.65619937173E+02  0.54363186955E+03  0.47000000000E+01 0.  1.
         11    1    6    6    0    0  0.36557271769E+02  0.31733145167E+03  0.26393342096E+01  0.31944115330E+03  0.00000000000E+00 0. -1.
        -12    1    6    6    0    0  0.86928968427E+01  0.44254450024E+03 -0.70768319922E+02  0.44825144311E+03  0.00000000000E+00 0.  1.
</event>
<event>
12    1  0.1081556E+000  0.2612313E+03  0.7818608E-02  0.1106406E+00
         -1   -1    0    0    0  501 -0.00000000000E+00  0.00000000000E+00  0.10851284624E+03  0.10851284624E+03  0.00000000000E+00 0.  1.
          1   -1    0    0  502    0  0.00000000000E+00 -0.00000000000E+00 -0.71507299155E+03  0.71507299155E+03  0.00000000000E+00 0. -1.
          6    2    1    2  502    0 -0.17387340430E+03  0.91539289169E+02 -0.16023558887E+03  0.30639393720E+03  0.17201859966E+03 0.  0.
         24    2    3    3    0    0 -0.14223475740E+03  0.13064195289E+03 -0.11354499234E+03  0.23760350115E+03  0.79151199649E+02 0.  0.
         -6    2    1    2    0  501  0.17387340430E+03 -0.91539289169E+02 -0.44632455643E+03  0.51719190059E+03  0.17225112532E+03 0.  0.
        -24    2    5    5    0    0  0.69903611878E+02 -0.94317156233E+02 -0.34000648780E+03  0.36838647058E+03  0.79510622237E+02 0.  0.
          5    1    3    3  502    0 -0.31638646898E+02 -0.39102663720E+02 -0.46690596532E+02  0.68790436051E+02  0.47000000000E+01 0. -1.
        -13    1    4    4    0    0 -0.63517840565E+02  0.10626421114E+03 -0.85906305958E+02  0.15068673479E+03  0.00000000000E+00 0.  1.
         14    1    4    4    0    0 -0.78716916837E+02  0.24377741747E+02 -0.27638686383E+02  0.86916766357E+02  0.00000000000E+00 0. -1.
         -5    1    5    5    0  501  0.10396979242E+03  0.27778670640E+01 -0.10631806864E+03  0.14880543001E+03  0.47000000000E+01 0.  1.
         11    1    6    6    0    0  0.66192183127E+02 -0.75075244185E+02 -0.33277051275E+03  0.34749663531E+03  0.00000000000E+00 0. -1.
        -12    1    6    6    0    0  0.37114287516E+01 -0.19241912048E+02 -0.72359750455E+01  0.20889835267E+02  0.00000000000E+00 0.  1.
</event>
<event>
12    1  0.1081556E+000  0.5232638E+03  0.7818608E-02  0.1007879E+00
         -1   -1    0    0    0  501 -0.00000000000E+00  0.00000000000E+00  0.40740751263E+03  0.40740751263E+03  0.00000000000E+00 0.  1.
          1   -1    0    0  502    0  0.00000000000E+00 -0.00000000000E+00 -0.78626909445E+03  0.78626909445E+03  0.00000000000E+00 0. -1.
          6    2    1    2  502    0 -0.40297314843E+03  0.28451934765E+03  0.38044758670E+02  0.52460133480E+03  0.17441484820E+03 0.  0.
         24    2    3    3    0    0 -0.22254797791E+03  0.88789194728E+02  0.52231128667E+02  0.25798010907E+03  0.80090712943E+02 0.  0.
         -6    2    1    2    0  501  0.40297314843E+03 -0.28451934765E+03 -0.41690634049E+03  0.66907527228E+03  0.17467743326E+03 0.  0.
        -24    2    5    5    0    0  0.36612171098E+03 -0.25249052276E+03 -0.42408254833E+03  0.61950247706E+03  0.78362873559E+02 0.  0.
          5    1    3    3  502    0 -0.18042517052E+03  0.19573015292E+03 -0.14186369997E+02  0.26662122574E+03  0.47000000000E+01 0. -1.
        -13    1    4    4    0    0 -0.39262288869E+02  0.52784918380E+02  0.16139678397E+02  0.67736726776E+02  0.00000000000E+00 0.  1.
         14    1    4    4    0    0 -0.18328568904E+03  0.36004276348E+02  0.36091450270E+02  0.19024338229E+03  0.00000000000E+00 0. -1.
         -5    1    5    5    0  501  0.36851437456E+02 -0.32028824890E+02  0.71762078479E+01  0.49572795215E+02  0.47000000000E+01 0.  1.
         11    1    6    6    0    0  0.26205995514E+03 -0.13727580302E+03 -0.29188080903E+03  0.41558930793E+03  0.00000000000E+00 0. -1.
        -12    1    6    6    0    0  0.10406175584E+03 -0.11521471973E+03 -0.13220173931E+03  0.20391316913E+03  0.00000000000E+00 0.  1.
</event>
<event>
12    1  0.1081556E+000  0.5670160E+03  0.7818608E-02  0.9976304E-01
          4   -1    0    0  502    0  0.00000000000E+00  0.00000000000E+00  0.91320544363E+03  0.91320544363E+03  0.00000000000E+00 0. -1.
         -4   -1    0    0    0  501 -0.00000000000E+00 -0.00000000000E+00 -0.60225385992E+03  0.60225385992E+03  0.00000000000E+00 0.  1.
          6    2    1    2  502    0 -0.54000410957E+03  0.17066876821E+02 -0.33293632778E+03  0.65736998195E+03  0.17144380473E+03 0.  0.
         24    2    3    3    0    0 -0.28999122450E+03  0.59843234941E+02 -0.13408185461E+03  0.33503250195E+03  0.81195508323E+02 0.  0.
         -6    2    1    2    0  501  0.54000410957E+03 -0.17066876821E+02  0.64388791148E+03  0.85808932160E+03  0.17271341767E+03 0.  0.
        -24    2    5    5    0    0  0.44086789679E+03 -0.71924318991E+02  0.50469460351E+03  0.67855048281E+03  0.78590742672E+02 0.  0.
          5    1    3    3  502    0 -0.25001288507E+03 -0.42776358121E+02 -0.19885447316E+03  0.32233748000E+03  0.47000000000E+01 0. -1.
        -11    1    4    4    0    0 -0.27243660043E+03  0.49075502519E+02 -0.98317253700E+02  0.29376246965E+03  0.00000000000E+00 0.  1.
         12    1    4    4    0    0 -0.17554624078E+02  0.10767732422E+02 -0.35764600913E+02  0.41270032305E+02  0.00000000000E+00 0. -1.
         -5    1    5    5    0  501  0.99136212782E+02  0.54857442170E+02  0.13919330797E+03  0.17953883878E+03  0.47000000000E+01 0.  1.
         13    1    6    6    0    0  0.34543647998E+03 -0.74682363342E+02  0.35444744474E+03  0.50053652033E+03  0.00000000000E+00 0. -1.
        -14    1    6    6    0    0  0.95431416806E+02  0.27580443518E+01  0.15024715877E+03  0.17801396249E+03  0.00000000000E+00 0.  1.
</event>
<event>
12    1  0.1081556E+000  0.4594615E+03  0.7818608E-02  0.1024938E+00
         -1   -1    0    0    0  501 -0.00000000000E+00  0.00000000000E+00  0.10828903391E+04  0.10828903391E+04  0.00000000000E+00 0.  1.
          1   -1    0    0  502    0  0.00000000000E+00 -0.00000000000E+00 -0.47617761986E+03  0.47617761986E+03  0.00000000000E+00 0. -1.
          6    2    1    2  502    0 -0.16811849677E+03  0.39090756366E+03  0.90245354833E+03  0.10127167307E+04  0.17349414253E+03 0.  0.
         24    2    3    3    0    0 -0.15125280294E+02  0.18577806870E+03  0.36465710453E+03  0.41712279274E+03  0.79210828950E+02 0.  0.
         -6    2    1    2    0  501  0.16811849677E+03 -0.39090756366E+03 -0.29574082912E+03  0.54635122823E+03  0.17310249649E+03 0.  0.
        -24    2    5    5    0    0  0.16004538062E+03 -0.21437921211E+03 -0.21191322417E+03  0.35070718549E+03  0.80717686622E+02 0.  0.
          5    1    3    3  502    0 -0.15299321648E+03  0.20512949496E+03  0.53779644380E+03  0.59559393798E+03  0.47000000000E+01 0. -1.
        -11    1    4    4    0    0 -0.46752077326E+02  0.98010509142E+02  0.17949260181E+03  0.20978420041E+03  0.00000000000E+00 0.  1.
         12    1    4    4    0    0  0.31626797033E+02  0.87767559554E+02  0.18516450272E+03  0.20733859233E+03  0.00000000000E+00 0. -1.
         -5    1    5    5    0  501  0.80731161496E+01 -0.17652835155E+03 -0.83827604952E+02  0.19564404274E+03  0.47000000000E+01 0.  1.
         11    1    6    6    0    0  0.10635659689E+03 -0.19532401330E+03 -0.16551464560E+03  0.27723328404E+03  0.00000000000E+00 0. -1.
        -12    1    6    6    0    0  0.53688783739E+02 -0.19055198811E+02 -0.46398578572E+02  0.73473901452E+02  0.00000000000E+00 0.  1.
</event>
<event>
12    1  0.1081556E+000  0.3107621E+03  0.7818608E-02  0.1079981E+00
          2   -1    0    0  502    0  0.00000000000E+00  0.00000000000E+00  0.84767825231E+03  0.84767825231E+03  0.00000000000E+00 0. -1.
         -2   -1    0    0    0  501 -0.00000000000E+00 -0.00000000000E+00 -0.86741679540E+03  0.86741679540E+03  0.00000000000E+00 0.  1.
          6    2    1    2  502    0  0.20504049412E+03 -0.15745267495E+03 -0.80912031946E+03  0.86676601465E+03  0.17255342282E+03 0.  0.
         24    2    3    3    0    0  0.19490573517E+03 -0.18548121335E+03 -0.74376056111E+03  0.79477781899E+03  0.78105589941E+02 0.  0.
         -6    2    1    2    0  501 -0.20504049412E+03  0.15745267495E+03  0.78938177637E+03  0.84832903306E+03  0.17235315602E+03 0.  0.
        -24    2    5    5    0    0 -0.22592020036E+03  0.15822280343E+03  0.73654929898E+03  0.79132099943E+03  0.87233375832E+02 0.  0.
          5    1    3    3  502    0  0.10134758946E+02  0.28028538410E+02 -0.65359758342E+02  0.71988195662E+02  0.47000000000E+01 0. -1.
        -13    1    4    4    0    0  0.17506169659E+03 -0.14945393175E+03 -0.68803206330E+03  0.72551443504E+03  0.00000000000E+00 0.  1.
         14    1    4    4    0    0  0.19844038581E+02 -0.36027281606E+02 -0.55728497817E+02  0.69263383949E+02  0.00000000000E+00 0. -1.
         -5    1    5    5    0  501  0.20879706243E+02 -0.77012848581E+00  0.52832477389E+02  0.57008033624E+02  0.47000000000E+01 0.  1.
         11    1    6    6    0    0 -0.28803417220E+02 -0.89202266893E+01  0.95087473548E+02  0.99753871671E+02  0.00000000000E+00 0. -1.
        -12    1    6    6    0    0 -0.19711678314E+03  0.16714303012E+03  0.64146182543E+03  0.69156712776E+03  0.00000000000E+00 0.  1.
</event>
<event>
12    1  0.1081556E+000  0.3290788E+03  0.7818608E-02  0.1071545E+00
         -2   -1    0    0    0  501 -0.00000000000E+00  0.00000000000E+00  0.13559423841E+03  0.13559423841E+03  0.00000000000E+00 0.  1.
          2   -1    0    0  502    0  0.00000000000E+00 -0.00000000000E+00 -0.81466827194E+03  0.81466827194E+03  0.00000000000E+00 0. -1.
          6    2    1    2  502    0 -0.19021483979E+03 -0.20606212706E+03 -0.27281128970E+03  0.42737275326E+03  0.17198309498E+03 0.  0.
         24    2    3    3    0    0 -0.13235940246E+03 -0.21486318987E+03 -0.25172170950E+03  0.36499029797E+03  0.78542324913E+02 0.  0.
         -6    2    1    2    0  501  0.19021483979E+03  0.20606212706E+03 -0.40626274383E+03  0.52288975708E+03  0.17239778291E+03 0.  0.
        -24    2    5    5    0    0  0.96447344629E+02  0.19406634061E+03 -0.25230051053E+03  0.34216150439E+03  0.80343715544E+02 0.  0.
          5    1    3    3  502    0 -0.57855437328E+02  0.88010628050E+01 -0.21089580205E+02  0.62382455291E+02  0.47000000000E+01 0. -1.
        -13    1    4    4    0    0 -0.69495703016E+02 -0.59546116682E+02 -0.55783518678E+02  0.10717832666E+03  0.00000000000E+00 0.  1.
         14    1    4    4    0    0 -0.62863699443E+02 -0.15531707319E+03 -0.19593819082E+03  0.25781197131E+03  0.00000000000E+00 0. -1.
         -5    1    5    5    0  501  0.93767495157E+02  0.11995786459E+02 -0.15396223329E+03  0.18072825269E+03  0.47000000000E+01 0.  1.
         13    1    6    6    0    0 -0.69520278258E+01  0.26066303105E+02 -0.63977402937E+02  0.69432635951E+02  0.00000000000E+00 0. -1.
        -14    1    6    6    0    0  0.10339937246E+03  0.16800003750E+03 -0.18832310760E+03  0.27272886844E+03  0.00000000000E+00 0.  1.
</event>
<event>
12    1  0.1081556E+000  0.4903429E+03  0.7818608E-02  0.1016331E+00
         -1   -1    0    0    0  501 -0.00000000000E+00  0.00000000000E+00  0.14811785902E+03  0.14811785902E+03  0.00000000000E+00 0.  1.
          1   -1    0    0  502    0  0.00000000000E+00 -0.00000000000E+00 -0.16250565641E+04  0.16250565641E+04  0.00000000000E+00 0. -1.
          6    2    1    2  502    0 -0.18179293530E+03  0.42146735829E+03 -0.70905267478E+03  0.86205906094E+03  0.17235638518E+03 0.  0.
         24    2    3    3    0    0 -0.18460185646E+03  0.25615394173E+03 -0.46694028137E+03  0.56884085419E+03  0.76511461557E+02 0.  0.
         -6    2    1    2    0  501  0.18179293530E+03 -0.42146735829E+03 -0.76788603027E+03  0.91111536214E+03  0.17262341157E+03 0.  0.
        -24    2    5    5    0    0  0.49028174185E+02 -0.24922438395E+03 -0.49698800539E+03  0.56369349483E+03  0.78972926966E+02 0.  0.
          5    1    3    3  502    0  0.28089211608E+01  0.16531341656E+03 -0.24211239340E+03  0.29321820676E+03  0.47000000000E+01 0. -1.
        -11    1    4    4    0    0 -0.81001623537E+02  0.92603420727E+02 -0.12188785976E+03  0.17318575837E+03  0.00000000000E+00 0.  1.
         12    1    4    4    0    0 -0.10360023292E+03  0.16355052101E+03 -0.34505242162E+03  0.39565509582E+03  0.00000000000E+00 0. -1.
         -5    1    5    5    0  501  0.13276476112E+03 -0.17224297435E+03 -0.27089802488E+03  0.34742186731E+03  0.47000000000E+01 0.  1.
         13    1    6    6    0    0  0.16450844266E+02 -0.92211155847E+02 -0.26992536914E+03  0.28571529964E+03  0.00000000000E+00 0. -1.
        -14    1    6    6    0    0  0.32577329918E+02 -0.15701322810E+03 -0.22706263625E+03  0.27797819519E+03  0.00000000000E+00 0.  1.
</event>
<event>
12    1  0.1081556E+000  0.8359638E+03  0.7818608E-02  0.9509372E-01
          1   -1    0    0  502    0  0.00000000000E+00  0.00000000000E+00  0.10317812468E+04  0.10317812468E+04  0.00000000000E+00 0. -1.
         -1   -1    0    0    0  501 -0.00000000000E+00 -0.00000000000E+00 -0.77355547005E+03  0.77355547005E+03  0.00000000000E+00 0.  1.
          6    2    1    2  502    0  0.47486777165E+03 -0.66626262433E+03 -0.18927568781E+03  0.85720612953E+03  0.17196446544E+03 0.  0.
         24    2    3    3    0    0  0.32914078675E+03 -0.36382929591E+03 -0.14614328744E+03  0.51870241282E+03  0.83599751994E+02 0.  0.
         -6    2    1    2    0  501 -0.47486777165E+03  0.66626262433E+03  0.44750146460E+03  0.94813058736E+03  0.17113960597E+03 0.  0.
        -24    2    5    5    0    0 -0.25204626998E+03  0.36531783846E+03  0.16957475473E+03  0.48178036295E+03  0.79826533003E+02 0.  0.
          5    1    3    3  502    0  0.14572698490E+03 -0.30243332842E+03 -0.43132400376E+02  0.33850371672E+03  0.47000000000E+01 0. -1.
        -11    1    4    4    0    0  0.19876593743E+02 -0.17315885618E+02 -0.30024044993E+02  0.39954501014E+02  0.00000000000E+00 0.  1.
         12    1    4    4    0    0  0.30926419300E+03 -0.34651341029E+03 -0.11611924244E+03  0.47874791180E+03  0.00000000000E+00 0. -1.
         -5    1    5    5    0  501 -0.22282150167E+03  0.30094478587E+03  0.27792670987E+03  0.46635022441E+03  0.47000000000E+01 0.  1.
         11    1    6    6    0    0 -0.15085595929E+03  0.15080257026E+03  0.69415603226E+02  0.22431554031E+03  0.00000000000E+00 0. -1.
        -12    1    6    6    0    0 -0.10119031069E+03  0.21451526820E+03  0.10015915151E+03  0.25746482264E+03  0.00000000000E+00 0.  1.
</event>
<event>
12    1  0.1081556E+000  0.9266128E+03  0.7818608E-02  0.9392912E-01
         -2   -1    0    0    0  501 -0.00000000000E+00  0.00000000000E+00  0.21641240007E+04  0.21641240007E+04  0.00000000000E+00 0.  1.
          2   -1    0    0  502    0  0.00000000000E+00 -0.00000000000E+00 -0.55609179431E+03  0.55609179431E+03  0.00000000000E+00 0. -1.
          6    2    1    2  502    0  0.90414668188E+03  0.93242136420E+02  0.15328288722E+04  0.17917682075E+04  0.18626228702E+03 0.  0.
         24    2    3    3    0    0  0.47663231410E+03  0.10476550763E+03  0.91053561811E+03  0.10366706596E+04  0.86352592297E+02 0.  0.
         -6    2    1    2    0  501 -0.90414668188E+03 -0.93242136420E+02  0.75203334243E+02  0.92844758757E+03  0.17373561240E+03 0.  0.
        -24    2    5    5    0    0 -0.89268447928E+03 -0.87492036849E+02  0.92970969463E+02  0.90603721954E+03  0.87860150147E+02 0.  0.
          5    1    3    3  502    0  0.42751436778E+03 -0.11523371208E+02  0.62229325404E+03  0.75509754785E+03  0.47000000000E+01 0. -1.
        -13    1    4    4    0    0  0.27188231226E+03  0.38997428870E+02  0.43039502843E+03  0.51056896858E+03  0.00000000000E+00 0.  1.
         14    1    4    4    0    0  0.20475000184E+03  0.65768078758E+02  0.48014058968E+03  0.52610169102E+03  0.00000000000E+00 0. -1.
         -5    1    5    5    0  501 -0.11462202606E+02 -0.57500995715E+01 -0.17767635219E+02  0.22410368024E+02  0.47000000000E+01 0.  1.
         11    1    6    6    0    0 -0.43206764634E+03 -0.85904948573E+02  0.38366398094E+02  0.44219236957E+03  0.00000000000E+00 0. -1.
        -12    1    6    6    0    0 -0.46061683293E+03 -0.15870882758E+01  0.54604571368E+02  0.46384484997E+03  0.00000000000E+00 0.  1.
</event>
<event>
12    1  0.1081556E+000  0.2023859E+03  0.7818608E-02  0.1147742E+00
          2   -1    0    0  502    0  0.00000000000E+00  0.00000000000E+00  0.32028052016E+03  0.32028052016E+03  0.00000000000E+00 0. -1.
         -2   -1    0    0    0  501 -0.00000000000E+00 -0.00000000000E+00 -0.13221127935E+03  0.13221127935E+03  0.00000000000E+00 0.  1.
          6    2    1    2  502    0 -0.54626090253E+02 -0.91248205807E+02  0.52786423363E+02  0.20841488280E+03  0.17128955625E+03 0.  0.
         24    2    3    3    0    0 -0.73612379043E+01  0.16502365462E+02  0.32221215262E+02  0.88877567867E+02  0.80836250950E+02 0.  0.
         -6    2    1    2    0  501  0.54626090253E+02  0.91248205807E+02  0.13528281745E+03  0.24407691672E+03  0.17309493285E+03 0.  0.
        -24    2    5    5    0    0  0.78000437693E+02  0.19706263453E+02  0.35301086351E+02  0.11884494721E+03  0.80034677982E+02 0.  0.
          5    1    3    3  502    0 -0.47264852348E+02 -0.10775057127E+03  0.20565208101E+02  0.11953731493E+03  0.47000000000E+01 0. -1.
        -13    1    4    4    0    0 -0.29383900633E+02  0.23942504959E+01 -0.16350597912E+02  0.33711839225E+02  0.00000000000E+00 0.  1.
         14    1    4    4    0    0  0.22022662728E+02  0.14108114966E+02  0.48571813174E+02  0.55165728642E+02  0.00000000000E+00 0. -1.
         -5    1    5    5    0  501 -0.23374347440E+02  0.71541942354E+02  0.99981731097E+02  0.12523196951E+03  0.47000000000E+01 0.  1.
         11    1    6    6    0    0  0.41028070277E+02  0.49639405581E+02  0.29789572413E+02  0.70956266543E+02  0.00000000000E+00 0. -1.
        -12    1    6    6    0    0  0.36972367415E+02 -0.29933142128E+02  0.55115139375E+01  0.47888680665E+02  0.00000000000E+00 0.  1.
</event>
<event>
12    1  0.1081556E+000  0.3113725E+03  0.7818608E-02  0.1079690E+00
         -2   -1    0    0    0  501 -0.00000000000E+00  0.00000000000E+00  0.97955444158E+02  0.97955444158E+02  0.00000000000E+00 0.  1.
          2   -1    0    0  502    0  0.00000000000E+00 -0.00000000000E+00 -0.14038373936E+04  0.14038373936E+04  0.00000000000E+00 0. -1.
          6    2    1    2  502    0 -0.20619612045E+03 -0.16369869999E+03 -0.24030266372E+03  0.39071362932E+03  0.15999270445E+03 0.  0.
         24    2    3    3    0    0 -0.15772794392E+03 -0.17003701647E+03 -0.14917802524E+03  0.28719972624E+03  0.80242808262E+02 0.  0.
         -6    2    1    2    0  501  0.20619612045E+03  0.16369869999E+03 -0.10655792857E+04  0.11110792084E+04  0.17240559385E+03 0.  0.
        -24    2    5    5    0    0  0.10738649337E+03  0.32512052147E+02 -0.35446501194E+03  0.38123067665E+03  0.84276281567E+02 0.  0.
          5    1    3    3  502    0 -0.48468176534E+02  0.63383164751E+01 -0.91124638483E+02  0.10351390308E+03  0.47000000000E+01 0. -1.
        -11    1    4    4    0    0 -0.12779920670E+03 -0.12608338345E+03 -0.15011249942E+03  0.23401585266E+03  0.00000000000E+00 0.  1.
         12    1    4    4    0    0 -0.29928737222E+02 -0.43953633012E+02  0.93447418362E+00  0.53183873577E+02  0.00000000000E+00 0. -1.
         -5    1    5    5    0  501  0.98809627079E+02  0.13118664784E+03 -0.71111427375E+03  0.72984853175E+03  0.47000000000E+01 0.  1.
         13    1    6    6    0    0  0.10189081952E+03  0.40149761168E+02 -0.35528933532E+03  0.37178522593E+03  0.00000000000E+00 0. -1.
        -14    1    6    6    0    0  0.54956738536E+01 -0.76377090210E+01  0.82432338733E+00  0.94454507167E+01  0.00000000000E+00 0.  1.
</event>
<event>
12    1  0.1081556E+000  0.9417769E+03  0.7818608E-02  0.9374814E-01
         -1   -1    0    0    0  501 -0.00000000000E+00  0.00000000000E+00  0.66560073101E+03  0.66560073101E+03  0.00000000000E+00 0.  1.
          1   -1    0    0  502    0  0.00000000000E+00 -0.00000000000E+00 -0.13483263580E+04  0.13483263580E+04  0.00000000000E+00 0. -1.
          6    2    1    2  502    0  0.42162882092E+02 -0.92492604837E+03 -0.23241353442E+03  0.96999470272E+03  0.17206908128E+03 0.  0.
         24    2    3    3    0    0  0.43811590752E+02 -0.91232032363E+03 -0.20509821209E+03  0.93950143509E+03  0.79685892986E+02 0.  0.
         -6    2    1    2    0  501 -0.42162882092E+02  0.92492604837E+03 -0.45031209253E+03  0.10439323862E+04  0.17247591945E+03 0.  0.
        -24    2    5    5    0    0 -0.73596282195E+01  0.24695793221E+03 -0.16328109319E+03  0.30687002960E+03  0.80412158660E+02 0.  0.
          5    1    3    3  502    0 -0.16487086596E+01 -0.12605724741E+02 -0.27315322330E+02  0.30493267626E+02  0.47000000000E+01 0. -1.
        -13    1    4    4    0    0 -0.20338587344E+02 -0.15921963646E+03 -0.47793766040E+02  0.16747774431E+03  0.00000000000E+00 0.  1.
         14    1    4    4    0    0  0.64150178096E+02 -0.75310068718E+03 -0.15730444605E+03  0.77202369078E+03  0.00000000000E+00 0. -1.
         -5    1    5    5    0  501 -0.34803253873E+02  0.67796811616E+03 -0.28703099933E+03  0.73706235665E+03  0.47000000000E+01 0.  1.
         13    1    6    6    0    0  0.31491791601E+02  0.65024966918E+02 -0.61093021019E+02  0.94616787507E+02  0.00000000000E+00 0. -1.
        -14    1    6    6    0    0 -0.38851419821E+02  0.18193296530E+03 -0.10218807217E+03  0.21225324209E+03  0.00000000000E+00 0.  1.
</event>
<event>
12    1  0.1081556E+000  0.3555031E+03  0.7818608E-02  0.1060379E+00
         -2   -1    0    0    0  501 -0.00000000000E+00  0.00000000000E+00  0.12616076548E+03  0.12616076548E+03  0.00000000000E+00 0.  1.
          2   -1    0    0  502    0  0.00000000000E+00 -0.00000000000E+00 -0.14217004088E+04  0.14217004088E+04  0.00000000000E+00 0. -1.
          6    2    1    2  502    0 -0.19192653001E+03  0.24587249301E+03 -0.10678131807E+04  0.11252943514E+04  0.16962698060E+03 0.  0.
         24    2    3    3    0    0 -0.93201071723E+02  0.58737157577E+02 -0.51493782894E+03  0.53329807224E+03  0.84317096349E+02 0.  0.
         -6    2    1    2    0  501  0.19192653001E+03 -0.24587249301E+03 -0.22772646263E+03  0.42256682296E+03  0.17150598339E+03 0.  0.
        -24    2    5    5    0    0  0.18254074210E+03 -0.20665769998E+03 -0.24586859894E+03  0.37810200409E+03  0.80506087111E+02 0.  0.
          5    1    3    3  502    0 -0.98725458287E+02  0.18713533544E+03 -0.55287535179E+03  0.59199627913E+03  0.47000000000E+01 0. -1.
        -11    1    4    4    0    0 -0.94585584302E+02  0.53745020477E+02 -0.31433021858E+03  0.33262358048E+03  0.00000000000E+00 0.  1.
         12    1    4    4    0    0  0.13845125792E+01  0.49921370998E+01 -0.20060761036E+03  0.20067449176E+03  0.00000000000E+00 0. -1.
         -5    1    5    5    0  501  0.93857879069E+01 -0.39214793033E+02  0.18142136306E+02  0.44464818869E+02  0.47000000000E+01 0.  1.
         11    1    6    6    0    0  0.11851302395E+03 -0.14866494369E+03 -0.11792538543E+03  0.22372527541E+03  0.00000000000E+00 0. -1.
        -12    1    6    6    0    0  0.64027718155E+02 -0.57992756290E+02 -0.12794321351E+03  0.15437672868E+03  0.00000000000E+00 0.  1.
</event>
<event>
12    1  0.1081556E+000  0.3098621E+03  0.7818608E-02  0.1080412E+00
         -2   -1    0    0    0  501 -0.00000000000E+00  0.00000000000E+00  0.26607437053E+03  0.26607437053E+03  0.00000000000E+00 0.  1.
          2   -1    0    0  502    0  0.00000000000E+00 -0.00000000000E+00 -0.16538130247E+04  0.16538130247E+04  0.00000000000E+00 0. -1.
          6    2    1    2  502    0  0.25555367675E+03  0.22194046288E+02  0.15531344984E+03  0.34586712664E+03  0.17234135951E+03 0.  0.
         24    2    3    3    0    0  0.15782654895E+03  0.76508470873E+02  0.72236546898E+02  0.20649528577E+03  0.81605261279E+02 0.  0.
         -6    2    1    2    0  501 -0.25555367675E+03 -0.22194046288E+02 -0.15430521040E+04  0.15740202686E+04  0.17529903836E+03 0.  0.
        -24    2    5    5    0    0 -0.21361542427E+03 -0.60057880253E+02 -0.14076464454E+04  0.14272235748E+04  0.79120911005E+02 0.  0.
          5    1    3    3  502    0  0.97727127796E+02 -0.54314424585E+02  0.83076902939E+02  0.13937184087E+03  0.47000000000E+01 0. -1.
        -11    1    4    4    0    0  0.78090334855E+02  0.90221187299E+01  0.64611905243E+02  0.10175557637E+03  0.00000000000E+00 0.  1.
         12    1    4    4    0    0  0.79736214097E+02  0.67486352143E+02  0.76246416551E+01  0.10473970940E+03  0.00000000000E+00 0. -1.
         -5    1    5    5    0  501 -0.41938252477E+02  0.37863833965E+02 -0.13540565860E+03  0.14679669385E+03  0.47000000000E+01 0.  1.
         13    1    6    6    0    0 -0.11727039634E+03 -0.19569501510E+02 -0.51849019330E+03  0.53194679414E+03  0.00000000000E+00 0. -1.
        -14    1    6    6    0    0 -0.96345027932E+02 -0.40488378743E+02 -0.88915625215E+03  0.89527678064E+03  0.00000000000E+00 0.  1.
</event>
<event>
12    1  0.1081556E+000  0.4607969E+03  0.7818608E-02  0.1024550E+00
         -2   -1    0    0    0  501 -0.00000000000E+00  0.00000000000E+00  0.83163639047E+02  0.83163639047E+02  0.00000000000E+00 0.  1.
          2   -1    0    0  502    0  0.00000000000E+00 -0.00000000000E+00 -0.26950038676E+04  0.26950038676E+04  0.00000000000E+00 0. -1.
          6    2    1    2  502    0  0.41662483689E+03  0.98369236890E+02 -0.98475270127E+03  0.10868292453E+04  0.16794988595E+03 0.  0.
         24    2    3    3    0    0  0.41860141749E+03  0.83181006771E+02 -0.97660509364E+03  0.10688552998E+04  0.80919196524E+02 0.  0.
         -6    2    1    2    0  501 -0.41662483689E+03 -0.98369236890E+02 -0.16270875273E+04  0.16913382614E+04  0.17308533024E+03 0.  0.
        -24    2    5    5    0    0 -0.11894710288E+03 -0.61117985999E+02 -0.54891589510E+03  0.57219758773E+03  0.90650968063E+02 0.  0.
          5    1    3    3  502    0 -0.19765806038E+01  0.15188230119E+02 -0.81476076297E+01  0.17973945452E+02  0.47000000000E+01 0. -1.
        -13    1    4    4    0    0  0.27174133413E+03  0.77136009479E+02 -0.56261764695E+03  0.62954899197E+03  0.00000000000E+00 0.  1.
         14    1    4    4    0    0  0.14686008336E+03  0.60449972918E+01 -0.41398744670E+03  0.43930630783E+03  0.00000000000E+00 0. -1.
         -5    1    5    5    0  501 -0.29767773401E+03 -0.37251250892E+02 -0.10781716322E+04  0.11191406737E+04  0.47000000000E+01 0.  1.
         11    1    6    6    0    0 -0.10657159220E+03 -0.43192609136E+02 -0.53288788590E+03  0.54515374408E+03  0.00000000000E+00 0. -1.
        -12    1    6    6    0    0 -0.12375510681E+02 -0.17925376863E+02 -0.16028009206E+02  0.27043843650E+02  0.00000000000E+00 0.  1.
</event>
<event>
12    1  0.1081556E+000  0.3758869E+03  0.7818608E-02  0.1052465E+00
          2   -1    0    0  502    0  0.00000000000E+00  0.00000000000E+00  0.29192795546E+03  0.29192795546E+03  0.00000000000E+00 0. -1.
         -2   -1    0    0    0  501 -0.00000000000E+00 -0.00000000000E+00 -0.97570183113E+03  0.97570183113E+03  0.00000000000E+00 0.  1.
          6    2    1    2  502    0  0.31299752275E+03 -0.11226824289E+03 -0.79238654357E+03  0.87755516214E+03  0.17791857843E+03 0.  0.
         24    2    3    3    0    0  0.55611094218E+02 -0.14861551679E+02 -0.27156916391E+03  0.28848074405E+03  0.78472093017E+02 0.  0.
         -6    2    1    2    0  501 -0.31299752275E+03  0.11226824289E+03  0.10861266791E+03  0.39007462444E+03  0.17259748953E+03 0.  0.
        -24    2    5    5    0    0 -0.84765037392E+02  0.67713590822E+02  0.77518869399E+02  0.15541721736E+03  0.79844188215E+02 0.  0.
          5    1    3    3  502    0  0.25738642854E+03 -0.97406691215E+02 -0.52081737966E+03  0.58907441809E+03  0.47000000000E+01 0. -1.
        -11    1    4    4    0    0  0.60451448824E+02 -0.93866404673E+01 -0.27402549728E+03  0.28077118770E+03  0.00000000000E+00 0.  1.
         12    1    4    4    0    0 -0.48403546068E+01 -0.54749112122E+01  0.24563333675E+01  0.77095563500E+01  0.00000000000E+00 0. -1.
         -5    1    5    5    0  501 -0.22823248536E+03  0.44554652072E+02  0.31093798508E+02  0.23465740709E+03  0.47000000000E+01 0.  1.
         11    1    6    6    0    0 -0.74539643519E+02  0.51960450187E+02  0.93777348685E+02  0.13057655979E+03  0.00000000000E+00 0. -1.
        -12    1    6    6    0    0 -0.10225393873E+02  0.15753140635E+02 -0.16258479286E+02  0.24840657569E+02  0.00000000000E+00 0.  1.
</event>
<event>
12    1  0.1081556E+000  0.1362565E+04  0.7818608E-02  0.8981371E-01
         -2   -1    0    0    0  501 -0.00000000000E+00  0.00000000000E+00  0.12665438842E+04  0.12665438842E+04  0.00000000000E+00 0.  1.
          2   -1    0    0  502    0  0.00000000000E+00 -0.00000000000E+00 -0.16276567405E+04  0.16276567405E+04  0.00000000000E+00 0. -1.
          6    2    1    2  502    0  0.69424718427E+03  0.11598410960E+04  0.27567884093E+03  0.13902252457E+04  0.17180480137E+03 0.  0.
         24    2    3    3    0    0  0.69479305968E+03  0.11146665172E+04  0.27648723039E+03  0.13447963558E+04  0.82542169082E+02 0.  0.
         -6    2    1    2    0  501 -0.69424718427E+03 -0.11598410960E+04 -0.63679169726E+03  0.15039753790E+04  0.17096126492E+03 0.  0.
        -24    2    5    5    0    0 -0.11495684290E+03 -0.21621209761E+03 -0.12754981590E+03  0.28522094519E+03  0.71549179978E+02 0.  0.
          5    1    3    3  502    0 -0.54587541045E+00  0.45174578734E+02 -0.80838946186E+00  0.45428889897E+02  0.47000000000E+01 0. -1.
        -11    1    4    4    0    0  0.22246821583E+03  0.37537658783E+03  0.53551412748E+02  0.43962193252E+03  0.00000000000E+00 0.  1.
         12    1    4    4    0    0  0.47232484385E+03  0.73928992941E+03  0.22293581764E+03  0.90517442332E+03  0.00000000000E+00 0. -1.
         -5    1    5    5    0  501 -0.57929034137E+03 -0.94362899836E+03 -0.50924188136E+03  0.12187544338E+04  0.47000000000E+01 0.  1.
         13    1    6    6    0    0 -0.12308349231E+03 -0.18369112880E+03 -0.11648205138E+03  0.24992007757E+03  0.00000000000E+00 0. -1.
        -14    1    6    6    0    0  0.81266494121E+01 -0.32520968813E+02 -0.11067764518E+02  0.35300867618E+02  0.00000000000E+00 0.  1.
</event>
<event>
12    1  0.1081556E+000  0.2897708E+03  0.7818608E-02  0.1090469E+00
          2   -1    0    0  502    0  0.00000000000E+00  0.00000000000E+00  0.10244356707E+04  0.10244356707E+04  0.00000000000E+00 0. -1.
         -2   -1    0    0    0  501 -0.00000000000E+00 -0.00000000000E+00 -0.14888425371E+03  0.14888425371E+03  0.00000000000E+00 0.  1.
          6    2    1    2  502    0  0.17818662215E+03 -0.14509491606E+03  0.42357955579E+02  0.29032721691E+03  0.17231566818E+03 0.  0.
         24    2    3    3    0    0  0.20219911931E+02 -0.22655617581E+02 -0.14135148000E+02  0.82581160149E+02  0.75483268054E+02 0.  0.
         -6    2    1    2    0  501 -0.17818662215E+03  0.14509491606E+03  0.83319346143E+03  0.88299270751E+03  0.18072567709E+03 0.  0.
        -24    2    5    5    0    0 -0.89955399405E+02  0.59335301383E+02  0.22065275088E+03  0.25819860361E+03  0.79788661880E+02 0.  0.
          5    1    3    3  502    0  0.15796671022E+03 -0.12243929848E+03  0.56493103579E+02  0.20774605676E+03  0.47000000000E+01 0. -1.
        -13    1    4    4    0    0  0.39702475830E+02 -0.39114092202E+02 -0.11815233958E+02  0.56971910178E+02  0.00000000000E+00 0.  1.
         14    1    4    4    0    0 -0.19482563899E+02  0.16458474621E+02 -0.23199140423E+01  0.25609249971E+02  0.00000000000E+00 0. -1.
         -5    1    5    5    0  501 -0.88231222743E+02  0.85759614679E+02  0.61254071056E+03  0.62479410390E+03  0.47000000000E+01 0.  1.
         13    1    6    6    0    0 -0.58551879177E+02  0.15262827742E+02  0.18172999323E+03  0.19153868253E+03  0.00000000000E+00 0. -1.
        -14    1    6    6    0    0 -0.31403520228E+02  0.44072473640E+02  0.38922757643E+02  0.66659921077E+02  0.00000000000E+00 0.  1.
</event>
<event>
12    1  0.1081556E+000  0.3447938E+03  0.7818608E-02  0.1064772E+00
         -2   -1    0    0    0  501 -0.00000000000E+00  0.00000000000E+00  0.51014689562E+02  0.51014689562E+02  0.00000000000E+00 0.  1.
          2   -1    0    0  502    0  0.00000000000E+00 -0.00000000000E+00 -0.32736682748E+04  0.32736682748E+04  0.00000000000E+00 0. -1.
          6    2    1    2  502    0  0.71719026530E+02  0.29062264231E+03 -0.72016749566E+03  0.79860381733E+03  0.17181878902E+03 0.  0.
         24    2    3    3    0    0  0.45722045233E+02  0.29246075158E+03 -0.59702677647E+03  0.67264768050E+03  0.91597672603E+02 0.  0.
         -6    2    1    2    0  501 -0.71719026530E+02 -0.29062264231E+03 -0.25024860896E+04  0.25260791470E+04  0.17039392458E+03 0.  0.
        -24    2    5    5    0    0 -0.52847407416E+02 -0.16531506058E+03 -0.19447922869E+04  0.19541503092E+04  0.79777652593E+02 0.  0.
          5    1    3    3  502    0  0.25996981298E+02 -0.18381092731E+01 -0.12314071919E+03  0.12595613683E+03  0.47000000000E+01 0. -1.
        -11    1    4    4    0    0  0.64346486021E+02  0.23024131629E+03 -0.40928203022E+03  0.47398661822E+03  0.00000000000E+00 0.  1.
         12    1    4    4    0    0 -0.18624440789E+02  0.62219435293E+02 -0.18774474625E+03  0.19866106228E+03  0.00000000000E+00 0. -1.
         -5    1    5    5    0  501 -0.18871619114E+02 -0.12530758173E+03 -0.55769380265E+03  0.57192883785E+03  0.47000000000E+01 0.  1.
         13    1    6    6    0    0 -0.26988570998E+02 -0.15280062947E+03 -0.17901623115E+04  0.17968743742E+04  0.00000000000E+00 0. -1.
        -14    1    6    6    0    0 -0.25858836418E+02 -0.12514431106E+02 -0.15462997546E+03  0.15727593496E+03  0.00000000000E+00 0.  1.
</event>
<event>
12    1  0.1081556E+000  0.1849540E+03  0.7818608E-02  0.1163093E+00
          2   -1    0    0  502    0  0.00000000000E+00  0.00000000000E+00  0.27414821293E+03  0.27414821293E+03  0.00000000000E+00 0. -1.
         -2   -1    0    0    0  501 -0.00000000000E+00 -0.00000000000E+00 -0.19303359510E+03  0.19303359510E+03  0.00000000000E+00 0.  1.
          6    2    1    2  502    0 -0.49401036404E+02 -0.46385288528E+02 -0.98228597132E+02  0.21011915742E+03  0.17294260791E+03 0.  0.
         24    2    3    3    0    0  0.21863293575E+02 -0.54713061313E+02 -0.13255669910E+02  0.98806782153E+02  0.78201948381E+02 0.  0.
         -6    2    1    2    0  501  0.49401036404E+02  0.46385288528E+02  0.17934321496E+03  0.25706265062E+03  0.17124590565E+03 0.  0.
        -24    2    5    5    0    0  0.34050124354E+02  0.83342765850E+02  0.67116075815E+02  0.13782118807E+03  0.79904221785E+02 0.  0.
          5    1    3    3  502    0 -0.71264329980E+02  0.83277727842E+01 -0.84972927222E+02  0.11131237527E+03  0.47000000000E+01 0. -1.
        -13    1    4    4    0    0 -0.26988435024E+02 -0.88875152595E+01  0.61481859117E+01  0.29071700028E+02  0.00000000000E+00 0.  1.
         14    1    4    4    0    0  0.48851728600E+02 -0.45825546053E+02 -0.19403855821E+02  0.69735082125E+02  0.00000000000E+00 0. -1.
         -5    1    5    5    0  501  0.15350912050E+02 -0.36957477321E+02  0.11222713915E+03  0.11924146255E+03  0.47000000000E+01 0.  1.
         11    1    6    6    0    0  0.18648763064E+02 -0.54900022903E+01  0.38671044228E+02  0.43282400010E+02  0.00000000000E+00 0. -1.
        -12    1    6    6    0    0  0.15401361290E+02  0.88832768140E+02  0.28445031587E+02  0.94538788055E+02  0.00000000000E+00 0.  1.
</event>
<event>
12    1  0.1081556E+000  0.2412821E+03  0.7818608E-02  0.1118942E+00
         -1   -1    0    0    0  501 -0.00000000000E+00  0.00000000000E+00  0.62516152950E+02  0.62516152950E+02  0.00000000000E+00 0.  1.
          1   -1    0    0  502    0  0.00000000000E+00 -0.00000000000E+00 -0.97132178579E+03  0.97132178579E+03  0.00000000000E+00 0. -1.
          6    2    1    2  502    0 -0.85847276491E+02  0.14322145933E+03 -0.34694985399E+03  0.42182088629E+03  0.17226873667E+03 0.  0.
         24    2    3    3    0    0 -0.87622345278E+02  0.15311930048E+03 -0.25062550754E+03  0.32485910079E+03  0.10768980808E+03 0.  0.
         -6    2    1    2    0  501  0.85847276491E+02 -0.14322145933E+03 -0.56185577885E+03  0.61201705245E+03  0.17607048295E+03 0.  0.
        -24    2    5    5    0    0  0.12759877141E+03 -0.12687038638E+03 -0.45308935162E+03  0.49427678488E+03  0.81498700069E+02 0.  0.
          5    1    3    3  502    0  0.17750687871E+01 -0.98978411465E+01 -0.96324346449E+02  0.96961785500E+02  0.47000000000E+01 0. -1.
        -11    1    4    4    0    0 -0.38624811948E+01  0.11218864977E+03 -0.11932121382E+03  0.16382540697E+03  0.00000000000E+00 0.  1.
         12    1    4    4    0    0 -0.83759864084E+02  0.40930650706E+02 -0.13130429372E+03  0.16103369383E+03  0.00000000000E+00 0. -1.
         -5    1    5    5    0  501 -0.41751494921E+02 -0.16351072949E+02 -0.10876642722E+03  0.11774026756E+03  0.47000000000E+01 0.  1.
         13    1    6    6    0    0  0.32692321335E+02 -0.19009306474E+02 -0.32629003522E+02  0.49947907642E+02  0.00000000000E+00 0. -1.
        -14    1    6    6    0    0  0.94906450077E+02 -0.10786107991E+03 -0.42046034810E+03  0.44432887724E+03  0.00000000000E+00 0.  1.
</event>
<event>
12    1  0.1081556E+000  0.5562359E+03  0.7818608E-02  0.1000061E+00
         -2   -1    0    0    0  501 -0.00000000000E+00  0.00000000000E+00  0.54749089022E+03  0.54749089022E+03  0.00000000000E+00 0.  1.
          2   -1    0    0  502    0  0.00000000000E+00 -0.00000000000E+00 -0.27294712117E+04  0.27294712117E+04  0.00000000000E+00 0. -1.
          6    2    1    2  502    0 -0.39740710943E+03 -0.34971102078E+03  0.36807159533E+03  0.66693640817E+03  0.17057920324E+03 0.  0.
         24    2    3    3    0    0 -0.34012388010E+03 -0.25715685157E+03  0.34788334997E+03  0.55613343957E+03  0.80297430220E+02 0.  0.
         -6    2    1    2    0  501  0.39740710943E+03  0.34971102078E+03 -0.25500519168E+04  0.26100256938E+04  0.17099454660E+03 0.  0.
        -24    2    5    5    0    0  0.32129899672E+03  0.24487552329E+03 -0.21659050453E+04  0.22045952617E+04  0.76801923284E+02 0.  0.
          5    1    3    3  502    0 -0.57283229329E+02 -0.92554169205E+02  0.20188245363E+02  0.11080296860E+03  0.47000000000E+01 0. -1.
        -13    1    4    4    0    0 -0.26770058935E+03 -0.16427154586E+03  0.22834291224E+03  0.38831589188E+03  0.00000000000E+00 0.  1.
         14    1    4    4    0    0 -0.72423290750E+02 -0.92885305713E+02  0.11954043773E+03  0.16781754769E+03  0.00000000000E+00 0. -1.
         -5    1    5    5    0  501  0.76108112713E+02  0.10483549749E+03 -0.38414687154E+03  0.40543043210E+03  0.47000000000E+01 0.  1.
         13    1    6    6    0    0  0.18322678657E+03  0.12674237456E+03 -0.13866864736E+04  0.14044696724E+04  0.00000000000E+00 0. -1.
        -14    1    6    6    0    0  0.13807221015E+03  0.11813314873E+03 -0.77921857170E+03  0.80012558922E+03  0.00000000000E+00 0.  1.
</event>
<event>
12    1  0.1081556E+000  0.2183291E+03  0.7818608E-02  0.1135135E+00
         -2   -1    0    0    0  501 -0.00000000000E+00  0.00000000000E+00  0.69763458195E+02  0.69763458195E+02  0.00000000000E+00 0.  1.
          2   -1    0    0  502    0  0.00000000000E+00 -0.00000000000E+00 -0.88877808691E+03  0.88877808691E+03  0.00000000000E+00 0. -1.
          6    2    1    2  502    0 -0.11036632584E+03 -0.77020236922E+02 -0.17982742525E+03  0.28326875249E+03  0.17259907441E+03 0.  0.
         24    2    3    3    0    0 -0.13174468462E+03 -0.82393059876E+02 -0.19062226199E+03  0.25827835531E+03  0.78902368877E+02 0.  0.
         -6    2    1    2    0  501  0.11036632584E+03  0.77020236922E+02 -0.63918720347E+03  0.67527279262E+03  0.17123148252E+03 0.  0.
        -24    2    5    5    0    0  0.12071529510E+03  0.55367791911E+02 -0.63066758341E+03  0.64937678008E+03  0.79440713026E+02 0.  0.
          5    1    3    3  502    0  0.21378358781E+02  0.53728229544E+01  0.10794836742E+02  0.24990397175E+02  0.47000000000E+01 0. -1.
        -13    1    4    4    0    0 -0.21464188779E+02 -0.54254262713E+02 -0.46337929775E+02  0.74507987211E+02  0.00000000000E+00 0.  1.
         14    1    4    4    0    0 -0.11028049584E+03 -0.28138797164E+02 -0.14428433222E+03  0.18377036810E+03  0.00000000000E+00 0. -1.
         -5    1    5    5    0  501 -0.10348969263E+02  0.21652445011E+02 -0.85196200548E+01  0.25896012543E+02  0.47000000000E+01 0.  1.
         11    1    6    6    0    0  0.46111155818E+02  0.39509005675E+02 -0.13702546408E+03  0.14987720983E+03  0.00000000000E+00 0. -1.
        -12    1    6    6    0    0  0.74604139281E+02  0.15858786236E+02 -0.49364211933E+03  0.49949957025E+03  0.00000000000E+00 0.  1.
</event>
<event>
12    1  0.1081556E+000  0.1930545E+03  0.7818608E-02  0.1155735E+00
          2   -1    0    0  502    0  0.00000000000E+00  0.00000000000E+00  0.13378116896E+04  0.13378116896E+04  0.00000000000E+00 0. -1.
         -2   -1    0    0    0  501 -0.00000000000E+00 -0.00000000000E+00 -0.55757880206E+02  0.55757880206E+02  0.00000000000E+00 0.  1.
          6    2    1    2  502    0  0.13772779014E+01 -0.82321830157E+02  0.14942341350E+03  0.24473205893E+03  0.17546408052E+03 0.  0.
         24    2    3    3    0    0  0.48828762898E+02  0.12510006928E+01  0.99560870746E+02  0.13636036219E+03  0.79347137973E+02 0.  0.
         -6    2    1    2    0  501 -0.13772779014E+01  0.82321830157E+02  0.11326303959E+04  0.11488375109E+04  0.17377350795E+03 0.  0.
        -24    2    5    5    0    0 -0.54997288674E+02  0.93142145153E+01  0.45456698372E+03  0.46473423035E+03  0.78963952614E+02 0.  0.
          5    1    3    3  502    0 -0.47451484997E+02 -0.83572830849E+02  0.49862542750E+02  0.10837169674E+03  0.47000000000E+01 0. -1.
        -13    1    4    4    0    0  0.28238778625E+02 -0.14163945593E+02  0.10535942412E+03  0.10999388267E+03  0.00000000000E+00 0.  1.
         14    1    4    4    0    0  0.20589984273E+02  0.15414946285E+02 -0.57985533744E+01  0.26366479526E+02  0.00000000000E+00 0. -1.
         -5    1    5    5    0  501  0.53620010773E+02  0.73007615641E+02  0.67806341216E+03  0.68410328051E+03  0.47000000000E+01 0.  1.
         11    1    6    6    0    0 -0.25676552584E+02  0.16356039581E+02  0.40876480591E+03  0.40989690404E+03  0.00000000000E+00 0. -1.
        -12    1    6    6    0    0 -0.29320736090E+02 -0.70418250659E+01  0.45802177809E+02  0.54837326313E+02  0.00000000000E+00 0.  1.
</event>
<event>
12    1  0.1081556E+000  0.2786895E+03  0.7818608E-02  0.1096407E+00
          1   -1    0    0  502    0  0.00000000000E+00  0.00000000000E+00  0.34668243011E+03  0.34668243011E+03  0.00000000000E+00 0. -1.
         -1   -1    0    0    0  501 -0.00000000000E+00 -0.00000000000E+00 -0.10925517563E+04  0.10925517563E+04  0.00000000000E+00 0.  1.
          6    2    1    2  502    0  0.15767498880E+03  0.15070097626E+03 -0.10145004768E+04  0.10520416484E+04  0.17322882599E+03 0.  0.
         24    2    3    3    0    0  0.17363219628E+03  0.16697967846E+03 -0.90724874543E+03  0.94229351628E+03  0.82379804217E+02 0.  0.
         -6    2    1    2    0  501 -0.15767498880E+03 -0.15070097626E+03  0.26863115060E+03  0.38719253803E+03  0.17373307139E+03 0.  0.
        -24    2    5    5    0    0 -0.16102197847E+03 -0.17652344591E+03  0.24575580390E+03  0.35221577767E+03  0.81064384179E+02 0.  0.
          5    1    3    3  502    0 -0.15957207488E+02 -0.16278702194E+02 -0.10725173142E+03  0.10974813214E+03  0.47000000000E+01 0. -1.
        -13    1    4    4    0    0  0.99717896486E+02  0.53195073004E+02 -0.31383601471E+03  0.33356621352E+03  0.00000000000E+00 0.  1.
         14    1    4    4    0    0  0.73914299798E+02  0.11378460545E+03 -0.59341273072E+03  0.60872730277E+03  0.00000000000E+00 0. -1.
         -5    1    5    5    0  501  0.33469896775E+01  0.25822469647E+02  0.22875346704E+02  0.34976760362E+02  0.47000000000E+01 0.  1.
         13    1    6    6    0    0 -0.11262879982E+03 -0.10627146618E+03  0.20701869475E+03  0.25852584213E+03  0.00000000000E+00 0. -1.
        -14    1    6    6    0    0 -0.48393178654E+02 -0.70251979735E+02  0.38737109151E+02  0.93689935544E+02  0.00000000000E+00 0.  1.
</event>
<event>
12    1  0.1081556E+000  0.4117964E+03  0.7818608E-02  0.1039770E+00
         -2   -1    0    0    0  501 -0.00000000000E+00  0.00000000000E+00  0.17160291358E+03  0.17160291358E+03  0.00000000000E+00 0.  1.
          2   -1    0    0  502    0  0.00000000000E+00 -0.00000000000E+00 -0.15579938917E+04  0.15579938917E+04  0.00000000000E+00 0. -1.
          6    2    1    2  502    0 -0.81893299079E+02 -0.36501289665E+03 -0.16983963852E+03  0.44512999956E+03  0.17133092698E+03 0.  0.
         24    2    3    3    0    0  0.26184167235E+01 -0.26560664728E+03 -0.88102719548E+02  0.29109478785E+03  0.80127018789E+02 0.  0.
         -6    2    1    2    0  501  0.81893299079E+02  0.36501289665E+03 -0.12165513396E+04  0.12844668057E+04  0.17296498486E+03 0.  0.
        -24    2    5    5    0    0  0.91149505371E+02  0.27685404656E+03 -0.74308875432E+03  0.80275468230E+03  0.85309950921E+02 0.  0.
          5    1    3    3  502    0 -0.84511715803E+02 -0.99406249375E+02 -0.81736918976E+02  0.15403521171E+03  0.47000000000E+01 0. -1.
        -11    1    4    4    0    0 -0.23110245551E+02 -0.50124276103E+02 -0.41698894345E+02  0.69176038437E+02  0.00000000000E+00 0.  1.
         12    1    4    4    0    0  0.25728662274E+02 -0.21548237117E+03 -0.46403825203E+02  0.22191874942E+03  0.00000000000E+00 0. -1.
         -5    1    5    5    0  501 -0.92562062915E+01  0.88158850093E+02 -0.47346258528E+03  0.48171212344E+03  0.47000000000E+01 0.  1.
         11    1    6    6    0    0  0.55144856895E+02  0.24871852034E+03 -0.58210850381E+03  0.63541495718E+03  0.00000000000E+00 0. -1.
        -12    1    6    6    0    0  0.36004648476E+02  0.28135526222E+02 -0.16098025051E+03  0.16733972512E+03  0.00000000000E+00 0.  1.
</event>
<event>
12    1  0.1081556E+000  0.2420691E+03  0.7818608E-02  0.1118422E+00
         -1   -1    0    0    0  501 -0.00000000000E+00  0.00000000000E+00  0.26511232253E+03  0.26511232253E+03  0.00000000000E+00 0.  1.
          1   -1    0    0  502    0  0.00000000000E+00 -0.00000000000E+00 -0.29845183911E+04  0.29845183911E+04  0.00000000000E+00 0. -1.
          6    2    1    2  502    0 -0.64571453426E+02 -0.15755748650E+03  0.20376376022E+03  0.31646018119E+03  0.17214395764E+03 0.  0.
         24    2    3    3    0    0 -0.32787377010E+02 -0.35854137771E+02  0.15807551713E+03  0.18255186120E+03  0.77309647695E+02 0.  0.
         -6    2    1    2    0  501  0.64571453426E+02  0.15755748650E+03 -0.29231698288E+04  0.29331705325E+04  0.17197002702E+03 0.  0.
        -24    2    5    5    0    0  0.21922173936E+02  0.36058508259E+02 -0.62755105062E+03  0.63393835027E+03  0.79225709755E+02 0.  0.
          5    1    3    3  502    0 -0.31784076416E+02 -0.12170334873E+03  0.45688243093E+02  0.13390831999E+03  0.47000000000E+01 0. -1.
        -11    1    4    4    0    0  0.14701878890E+02  0.35993090004E+01  0.27208439437E+01  0.15378662488E+02  0.00000000000E+00 0.  1.
         12    1    4    4    0    0 -0.47489255899E+02 -0.39453446771E+02  0.15535467319E+03  0.16717319872E+03  0.00000000000E+00 0. -1.
         -5    1    5    5    0  501  0.42649279490E+02  0.12149897824E+03 -0.22956187782E+04  0.22992321822E+04  0.47000000000E+01 0.  1.
         11    1    6    6    0    0  0.37799343549E+01  0.55882400564E+02 -0.52293945716E+03  0.52593041978E+03  0.00000000000E+00 0. -1.
        -12    1    6    6    0    0  0.18142239581E+02 -0.19823892305E+02 -0.10461159346E+03  0.10800793050E+03  0.00000000000E+00 0.  1.
</event>
<event>
12    1  0.1081556E+000  0.6573192E+03  0.7818608E-02  0.9793141E-01
         -1   -1    0    0    0  501 -0.00000000000E+00  0.00000000000E+00  0.56864652178E+03  0.56864652178E+03  0.00000000000E+00 0.  1.
          1   -1    0    0  502    0  0.00000000000E+00 -0.00000000000E+00 -0.76017653216E+03  0.76017653216E+03  0.00000000000E+00 0. -1.
          6    2    1    2  502    0  0.34347276616E+03 -0.53351826043E+03 -0.11017434033E+03  0.66650339288E+03  0.17167734897E+03 0.  0.
         24    2    3    3    0    0  0.10630201172E+03 -0.16502058863E+03 -0.41007845877E+02  0.22282941930E+03  0.97156545391E+02 0.  0.
         -6    2    1    2    0  501 -0.34347276616E+03  0.53351826043E+03 -0.81355670050E+02  0.66231966107E+03  0.17156139743E+03 0.  0.
        -24    2    5    5    0    0 -0.16515229419E+03  0.17663764712E+03 -0.65448955782E+02  0.26302393553E+03  0.80136671945E+02 0.  0.
          5    1    3    3  502    0  0.23717075444E+03 -0.36849767179E+03 -0.69166494449E+02  0.44367397358E+03  0.47000000000E+01 0. -1.
        -11    1    4    4    0    0  0.11161358433E+03 -0.17081794282E+03 -0.25754495781E+02  0.20566880135E+03  0.00000000000E+00 0.  1.
         12    1    4    4    0    0 -0.53115726109E+01  0.57973541856E+01 -0.15253350096E+02  0.17160617947E+02  0.00000000000E+00 0. -1.
         -5    1    5    5    0  501 -0.17832047197E+03  0.35688061331E+03 -0.15906714268E+02  0.39929572554E+03  0.47000000000E+01 0.  1.
         13    1    6    6    0    0 -0.12261042658E+03  0.15941134564E+03 -0.26540289407E+02  0.20285384095E+03  0.00000000000E+00 0. -1.
        -14    1    6    6    0    0 -0.42541867613E+02  0.17226301477E+02 -0.38908666376E+02  0.60170094580E+02  0.00000000000E+00 0.  1.
</event>
<event>
12    1  0.1081556E+000  0.4346063E+03  0.7818608E-02  0.1032415E+00
          1   -1    0    0  502    0  0.00000000000E+00  0.00000000000E+00  0.40113137118E+03  0.40113137118E+03  0.00000000000E+00 0. -1.
         -1   -1    0    0    0  501 -0.00000000000E+00 -0.00000000000E+00 -0.94155771126E+03  0.94155771126E+03  0.00000000000E+00 0.  1.
          6    2    1    2  502    0  0.10009441258E+03 -0.38776403672E+03 -0.74520154186E+03  0.86320499190E+03  0.17151583148E+03 0.  0.
         24    2    3    3    0    0  0.32366901220E+02 -0.33199373363E+03 -0.53578196275E+03  0.63610150752E+03  0.79343309749E+02 0.  0.
         -6    2    1    2    0  501 -0.10009441258E+03  0.38776403672E+03  0.20477520179E+03  0.47948409053E+03  0.16610921166E+03 0.  0.
        -24    2    5    5    0    0 -0.13125638699E+03  0.28155065238E+03  0.13149715467E+03  0.34665294263E+03  0.79860828730E+02 0.  0.
          5    1    3    3  502    0  0.67727511359E+02 -0.55770303096E+02 -0.20941957912E+03  0.22710348439E+03  0.47000000000E+01 0. -1.
        -13    1    4    4    0    0  0.33597906948E+02 -0.50896314794E+02 -0.11283812040E+03  0.12826416345E+03  0.00000000000E+00 0.  1.
         14    1    4    4    0    0 -0.12310057282E+01 -0.28109741883E+03 -0.42294384235E+03  0.50783734407E+03  0.00000000000E+00 0. -1.
         -5    1    5    5    0  501  0.31161974415E+02  0.10621338434E+03  0.73278047120E+02  0.13283114790E+03  0.47000000000E+01 0.  1.
         11    1    6    6    0    0 -0.71467883728E+02  0.17223569369E+03  0.11950094618E+03  0.22147972531E+03  0.00000000000E+00 0. -1.
        -12    1    6    6    0    0 -0.59788503266E+02  0.10931495869E+03  0.11996208490E+02  0.12517321732E+03  0.00000000000E+00 0.  1.
</event>
<event>
12    1  0.1081556E+000  0.4384781E+03  0.7818608E-02  0.1031215E+00
          2   -1    0    0  502    0  0.00000000000E+00  0.00000000000E+00  0.17677606903E+04  0.17677606903E+04  0.00000000000E+00 0. -1.
         -2   -1    0    0    0  501 -0.00000000000E+00 -0.00000000000E+00 -0.12434890099E+03  0.12434890099E+03  0.00000000000E+00 0.  1.
          6    2    1    2  502    0  0.26275191683E+03  0.30642399797E+03  0.48671600443E+03  0.65508720268E+03  0.17120904712E+03 0.  0.
         24    2    3    3    0    0  0.10171898013E+03  0.64602681135E+02  0.20563481350E+03  0.25081268967E+03  0.78109355686E+02 0.  0.
         -6    2    1    2    0  501 -0.26275191683E+03 -0.30642399797E+03  0.11566957849E+04  0.12370223886E+04  0.17130386694E+03 0.  0.
        -24    2    5    5    0    0 -0.74073788176E+02 -0.62298924321E+02  0.43065799631E+03  0.44813111077E+03  0.77376356778E+02 0.  0.
          5    1    3    3  502    0  0.16103293670E+03  0.24182131684E+03  0.28108119093E+03  0.40427451301E+03  0.47000000000E+01 0. -1.
        -11    1    4    4    0    0  0.20633483236E+02  0.45178255835E+02  0.34582892667E+02  0.60521003758E+02  0.00000000000E+00 0.  1.
         12    1    4    4    0    0  0.81085496897E+02  0.19424425301E+02  0.17105192083E+03  0.19029168591E+03  0.00000000000E+00 0. -1.
         -5    1    5    5    0  501 -0.18867812865E+03 -0.24412507365E+03  0.72603778860E+03  0.78889127786E+03  0.47000000000E+01 0.  1.
         13    1    6    6    0    0 -0.72316710460E+02 -0.78173408578E+02  0.39413757535E+03  0.40827100892E+03  0.00000000000E+00 0. -1.
        -14    1    6    6    0    0 -0.17570777163E+01  0.15874484257E+02  0.36520420955E+02  0.39860101847E+02  0.00000000000E+00 0.  1.
</event>
<event>
12    1  0.1081556E+000  0.1811529E+03  0.7818608E-02  0.1166692E+00
          2   -1    0    0  502    0  0.00000000000E+00  0.00000000000E+00  0.60202714938E+03  0.60202714938E+03  0.00000000000E+00 0. -1.
         -2   -1    0    0    0  501 -0.00000000000E+00 -0.00000000000E+00 -0.97209952199E+02  0.97209952199E+02  0.00000000000E+00 0.  1.
          6    2    1    2  502    0 -0.65491839576E+01 -0.52117708296E+02  0.21635844049E+02  0.18362978565E+03  0.17462142223E+03 0.  0.
         24    2    3    3    0    0  0.13337289871E+02  0.33875602095E+02 -0.13364227922E+02  0.88564459103E+02  0.79621737672E+02 0.  0.
         -6    2    1    2    0  501  0.65491839576E+01  0.52117708296E+02  0.48318135313E+03  0.51560731593E+03  0.17212651422E+03 0.  0.
        -24    2    5    5    0    0  0.22148389400E+01 -0.38888309666E+02  0.21777531778E+03  0.23495925260E+03  0.79136307757E+02 0.  0.
          5    1    3    3  502    0 -0.19886473828E+02 -0.85993310391E+02  0.35000071971E+02  0.95065326546E+02  0.47000000000E+01 0. -1.
        -13    1    4    4    0    0  0.21335121774E+02  0.71000527490E+01 -0.42569815353E+02  0.48143404007E+02  0.00000000000E+00 0.  1.
         14    1    4    4    0    0 -0.79978319032E+01  0.26775549346E+02  0.29205587431E+02  0.40421055097E+02  0.00000000000E+00 0. -1.
         -5    1    5    5    0  501  0.43343450176E+01  0.91006017963E+02  0.26540603534E+03  0.28064806333E+03  0.47000000000E+01 0.  1.
         13    1    6    6    0    0  0.10850496434E+01 -0.23442854343E+02  0.21820814202E+03  0.21946648490E+03  0.00000000000E+00 0. -1.
        -14    1    6    6    0    0  0.11297892967E+01 -0.15445455324E+02 -0.43282423539E+00  0.15492767695E+02  0.00000000000E+00 0.  1.
</event>
<event>
12    1  0.1081556E+000  0.7686329E+03  0.7818608E-02  0.9606563E-01
         -2   -1    0    0    0  501 -0.00000000000E+00  0.00000000000E+00  0.49244193036E+03  0.49244193036E+03  0.00000000000E+00 0.  1.
          2   -1    0    0  502    0  0.00000000000E+00 -0.00000000000E+00 -0.24854727931E+04  0.24854727931E+04  0.00000000000E+00 0. -1.
          6    2    1    2  502    0 -0.74499240309E+03 -0.78592512087E+02  0.74399751382E+02  0.77222529016E+03  0.17206426750E+03 0.  0.
         24    2    3    3    0    0 -0.73932114086E+03 -0.71185033451E+02  0.91200517406E+02  0.75244171885E+03  0.78663508578E+02 0.  0.
         -6    2    1    2    0  501  0.74499240309E+03  0.78592512087E+02 -0.20674306141E+04  0.22056894333E+04  0.17206414009E+03 0.  0.
        -24    2    5    5    0    0  0.52051301693E+03  0.11854577828E+03 -0.14941032675E+04  0.15886695027E+04  0.80866016969E+02 0.  0.
          5    1    3    3  502    0 -0.56712622282E+01 -0.74074786358E+01 -0.16800766025E+02  0.19783571316E+02  0.47000000000E+01 0. -1.
        -13    1    4    4    0    0 -0.20986745925E+03  0.89848488355E+00  0.54578318068E+02  0.21685006463E+03  0.00000000000E+00 0.  1.
         14    1    4    4    0    0 -0.52945368160E+03 -0.72083518335E+02  0.36622199338E+02  0.53559165421E+03  0.00000000000E+00 0. -1.
         -5    1    5    5    0  501  0.22447938615E+03 -0.39953266193E+02 -0.57332734664E+03  0.61701993055E+03  0.47000000000E+01 0.  1.
         11    1    6    6    0    0  0.23407050524E+03  0.27788215643E+02 -0.75073470786E+03  0.78686961305E+03  0.00000000000E+00 0. -1.
        -12    1    6    6    0    0  0.28644251169E+03  0.90757562637E+02 -0.74336855961E+03  0.80179988969E+03  0.00000000000E+00 0.  1.
</event>
<event>
12    1  0.1081556E+000  0.3510607E+03  0.7818608E-02  0.1062181E+00
         -2   -1    0    0    0  501 -0.00000000000E+00  0.00000000000E+00  0.10887112341E+04  0.10887112341E+04  0.00000000000E+00 0.  1.
          2   -1    0    0  502    0  0.00000000000E+00 -0.00000000000E+00 -0.30477917571E+04  0.30477917571E+04  0.00000000000E+00 0. -1.
          6    2    1    2  502    0  0.68265991807E+02 -0.29806826289E+03  0.10499098807E+04  0.11071341715E+04  0.17300399199E+03 0.  0.
         24    2    3    3    0    0  0.93108275272E+02 -0.28513873120E+03  0.84050076464E+03  0.89580840472E+03  0.77832613049E+02 0.  0.
         -6    2    1    2    0  501 -0.68265991807E+02  0.29806826289E+03 -0.30089904037E+04  0.30293688197E+04  0.17189316816E+03 0.  0.
        -24    2    5    5    0    0 -0.42159404435E+02  0.59304751419E+02 -0.86986561053E+03  0.87679674447E+03  0.82534125134E+02 0.  0.
          5    1    3    3  502    0 -0.24842283465E+02 -0.12929531690E+02  0.20940911605E+03  0.21132576682E+03  0.47000000000E+01 0. -1.
        -13    1    4    4    0    0  0.50983986844E+02 -0.20983783189E+03  0.68165113232E+03  0.71503814500E+03  0.00000000000E+00 0.  1.
         14    1    4    4    0    0  0.42124288428E+02 -0.75300899316E+02  0.15884963232E+03  0.18077025973E+03  0.00000000000E+00 0. -1.
         -5    1    5    5    0  501 -0.26106587372E+02  0.23876351147E+03 -0.21391247932E+04  0.21525720752E+04  0.47000000000E+01 0.  1.
         11    1    6    6    0    0  0.21118313579E+02  0.32839944245E+02 -0.23304446947E+03  0.23629255142E+03  0.00000000000E+00 0. -1.
        -12    1    6    6    0    0 -0.63277718013E+02  0.26464807173E+02 -0.63682114106E+03  0.64050419305E+03  0.00000000000E+00 0.  1.
</event>
<event>
12    1  0.1081556E+000  0.6704182E+03  0.7818608E-02  0.9769203E-01
          2   -1    0    0  502    0  0.00000000000E+00  0.00000000000E+00  0.97689703093E+03  0.97689703093E+03  0.00000000000E+00 0. -1.
         -2   -1    0    0    0  501 -0.00000000000E+00 -0.00000000000E+00 -0.49197634311E+03  0.49197634311E+03  0.00000000000E+00 0.  1.
          6    2    1    2  502    0 -0.14385579555E+03 -0.63167655726E+03  0.55527659088E+02  0.67283962978E+03  0.17297422808E+03 0.  0.
         24    2    3    3    0    0 -0.79070917370E+02 -0.51032755724E+03 -0.52906466773E+01  0.52236166939E+03  0.78404700487E+02 0.  0.
         -6    2    1    2    0  501  0.14385579555E+03  0.63167655726E+03  0.42939302874E+03  0.79603374426E+03  0.17199298233E+03 0.  0.
        -24    2    5    5    0    0  0.47496772762E+02  0.14216305201E+03  0.13369917047E+03  0.21606350286E+03  0.79634743070E+02 0.  0.
          5    1    3    3  502    0 -0.64784878184E+02 -0.12134900002E+03  0.60818305765E+02  0.15047796039E+03  0.47000000000E+01 0. -1.
        -11    1    4    4    0    0  0.14043099521E+01 -0.95532518050E+02 -0.26969690775E+02  0.99276373382E+02  0.00000000000E+00 0.  1.
         12    1    4    4    0    0 -0.80475227322E+02 -0.41479503919E+03  0.21679044098E+02  0.42308529601E+03  0.00000000000E+00 0. -1.
         -5    1    5    5    0  501  0.96359022792E+02  0.48951350525E+03  0.29569385827E+03  0.57997024140E+03  0.47000000000E+01 0.  1.
         11    1    6    6    0    0  0.10031865097E+02  0.11624742409E+03  0.12245214436E+03  0.16914085723E+03  0.00000000000E+00 0. -1.
        -12    1    6    6    0    0  0.37464907664E+02  0.25915627920E+02  0.11247026109E+02  0.46922645632E+02  0.00000000000E+00 0.  1.
</event>
<event>
12    1  0.1081556E+000  0.1971540E+03  0.7818608E-02  0.1152163E+00
         -2   -1    0    0    0  501 -0.00000000000E+00  0.00000000000E+00  0.17092801971E+03  0.17092801971E+03  0.00000000000E+00 0.  1.
          2   -1    0    0  502    0  0.00000000000E+00 -0.00000000000E+00 -0.30686982181E+03  0.30686982181E+03  0.00000000000E+00 0. -1.
          6    2    1    2  502    0  0.78780743033E+02 -0.56225000139E+02  0.53478203518E+02  0.20473194130E+03  0.17230088050E+03 0.  0.
         24    2    3    3    0    0  0.80201570657E+02 -0.82433813327E+02  0.83713316901E+02  0.16441851027E+03  0.82449387974E+02 0.  0.
         -6    2    1    2    0  501 -0.78780743033E+02  0.56225000139E+02 -0.18942000562E+03  0.27306590023E+03  0.17122322046E+03 0.  0.
        -24    2    5    5    0    0 -0.11146879443E+03  0.74135697962E+02 -0.13535423139E+03  0.20722898244E+03  0.81863846510E+02 0.  0.
          5    1    3    3  502    0 -0.14208276237E+01  0.26208813188E+02 -0.30235113384E+02  0.40313431027E+02  0.47000000000E+01 0. -1.
        -11    1    4    4    0    0 -0.51470413844E+01  0.11595952510E+02  0.16270385916E+02  0.20632101383E+02  0.00000000000E+00 0.  1.
         12    1    4    4    0    0  0.85348612041E+02 -0.94029765836E+02  0.67442930985E+02  0.14378640889E+03  0.00000000000E+00 0. -1.
         -5    1    5    5    0  501  0.32688051395E+02 -0.17910697823E+02 -0.54065774223E+02  0.65836917781E+02  0.47000000000E+01 0.  1.
         11    1    6    6    0    0 -0.94759246638E+02  0.53690624005E+02 -0.14298785947E+03  0.17974294391E+03  0.00000000000E+00 0. -1.
        -12    1    6    6    0    0 -0.16709547790E+02  0.20445073957E+02  0.76336280816E+01  0.27486038531E+02  0.00000000000E+00 0.  1.
</event>
<event>
12    1  0.1081556E+000  0.2451747E+03  0.7818608E-02  0.1116393E+00
         -2   -1    0    0    0  501 -0.00000000000E+00  0.00000000000E+00  0.51672968857E+03  0.51672968857E+03  0.00000000000E+00 0.  1.
          2   -1    0    0  502    0  0.00000000000E+00 -0.00000000000E+00 -0.96338536082E+03  0.96338536082E+03  0.00000000000E+00 0. -1.
          6    2    1    2  502    0  0.14143385290E+03 -0.10248063134E+03  0.47061801010E+03  0.53062571387E+03  0.17197826097E+03 0.  0.
         24    2    3    3    0    0  0.14568660317E+03 -0.13322282685E+03  0.41469905940E+03  0.46649937360E+03  0.81691173084E+02 0.  0.
         -6    2    1    2    0  501 -0.14143385290E+03  0.10248063134E+03 -0.91727368235E+03  0.94948933552E+03  0.17214289236E+03 0.  0.
        -24    2    5    5    0    0 -0.75022763475E+01  0.48989288048E+02 -0.47697463179E+03  0.48614892618E+03  0.79873303172E+02 0.  0.
          5    1    3    3  502    0 -0.42527502677E+01  0.30742195514E+02  0.55918950696E+02  0.64126340273E+02  0.47000000000E+01 0. -1.
        -13    1    4    4    0    0  0.96036125063E+02 -0.13090188984E+03  0.34001856874E+03  0.37679021905E+03  0.00000000000E+00 0.  1.
         14    1    4    4    0    0  0.49650478110E+02 -0.23209370181E+01  0.74680490658E+02  0.89709154550E+02  0.00000000000E+00 0. -1.
         -5    1    5    5    0  501 -0.13393157656E+03  0.53491343293E+02 -0.44029905056E+03  0.46334040935E+03  0.47000000000E+01 0.  1.
         11    1    6    6    0    0 -0.26747388827E+02  0.58960715688E+02 -0.25394015823E+03  0.26206371891E+03  0.00000000000E+00 0. -1.
        -12    1    6    6    0    0  0.19245112479E+02 -0.99714276402E+01 -0.22303447356E+03  0.22408520727E+03  0.00000000000E+00 0.  1.
</event>
<event>
12    1  0.1081556E+000  0.1226183E+04  0.7818608E-02  0.9090242E-01
          1   -1    0    0  502    0  0.00000000000E+00  0.00000000000E+00  0.22926785117E+04  0.22926785117E+04  0.00000000000E+00 0. -1.
         -1   -1    0    0    0  501 -0.00000000000E+00 -0.00000000000E+00 -0.67535445052E+03  0.67535445052E+03  0.00000000000E+00 0.  1.
          6    2    1    2  502    0  0.24105437113E+03 -0.11899248822E+04  0.55599669713E+03  0.13461939840E+04  0.17052120187E+03 0.  0.
         24    2    3    3    0    0  0.10654617521E+03 -0.76013877097E+03  0.29927259937E+03  0.82779461236E+03  0.80726655618E+02 0.  0.
         -6    2    1    2    0  501 -0.24105437113E+03  0.11899248822E+04  0.10613273641E+04  0.16218389782E+04  0.17296665135E+03 0.  0.
        -24    2    5    5    0    0 -0.25876057540E+03  0.11173593763E+04  0.10156757579E+04  0.15341724427E+04  0.81478999772E+02 0.  0.
          5    1    3    3  502    0  0.13450819592E+03 -0.42978611122E+03  0.25672409777E+03  0.51839937167E+03  0.47000000000E+01 0. -1.
        -11    1    4    4    0    0  0.79854681182E+02 -0.39443595110E+03  0.19103000603E+03  0.44547609681E+03  0.00000000000E+00 0.  1.
         12    1    4    4    0    0  0.26691494025E+02 -0.36570281987E+03  0.10824259334E+03  0.38231851554E+03  0.00000000000E+00 0. -1.
         -5    1    5    5    0  501  0.17706204271E+02  0.72565505889E+02  0.45651606162E+02  0.87666535576E+02  0.47000000000E+01 0.  1.
         13    1    6    6    0    0 -0.76716290279E+02  0.50773521031E+03  0.46359357148E+03  0.69180881210E+03  0.00000000000E+00 0. -1.
        -14    1    6    6    0    0 -0.18204428512E+03  0.60962416600E+03  0.55208218643E+03  0.84236363056E+03  0.00000000000E+00 0.  1.
</event>
<event>
12    1  0.1081556E+000  0.6297031E+03  0.7818608E-02  0.9845628E-01
         -1   -1    0    0    0  501 -0.00000000000E+00  0.00000000000E+00  0.35687357005E+03  0.35687357005E+03  0.00000000000E+00 0.  1.
          1   -1    0    0  502    0  0.00000000000E+00 -0.00000000000E+00 -0.11325333942E+04  0.11325333942E+04  0.00000000000E+00 0. -1.
          6    2    1    2  502    0  0.45731082275E+03 -0.39749020251E+03 -0.28540788243E+03  0.69136452858E+03  0.17145145766E+03 0.  0.
         24    2    3    3    0    0  0.46195231624E+03 -0.39749775238E+03 -0.26335983377E+03  0.66834823070E+03  0.76984088047E+02 0.  0.
         -6    2    1    2    0  501 -0.45731082275E+03  0.39749020251E+03 -0.49025194175E+03  0.79804243570E+03  0.17144419817E+03 0.  0.
        -24    2    5    5    0    0 -0.26320714199E+03  0.22827261431E+03 -0.36903027352E+03  0.51338893776E+03  0.77449806960E+02 0.  0.
          5    1    3    3  502    0 -0.46414934823E+01  0.75498706621E-02 -0.22048048658E+02  0.23016297886E+02  0.47000000000E+01 0. -1.
        -13    1    4    4    0    0  0.58422042413E+02 -0.35262261900E+02 -0.71806039820E+01  0.68615765153E+02  0.00000000000E+00 0.  1.
         14    1    4    4    0    0  0.40353027382E+03 -0.36223549048E+03 -0.25617922979E+03  0.59973246555E+03  0.00000000000E+00 0. -1.
         -5    1    5    5    0  501 -0.19410368076E+03  0.16921758820E+03 -0.12122166823E+03  0.28465349794E+03  0.47000000000E+01 0.  1.
         11    1    6    6    0    0 -0.12282558321E+03  0.14210470255E+03 -0.15638640548E+03  0.24441067529E+03  0.00000000000E+00 0. -1.
        -12    1    6    6    0    0 -0.14038155878E+03  0.86167911754E+02 -0.21264386805E+03  0.26897826247E+03  0.00000000000E+00 0.  1.
</event>
<event>
12    1  0.1081556E+000  0.4456528E+03  0.7818608E-02  0.1029026E+00
          2   -1    0    0  502    0  0.00000000000E+00  0.00000000000E+00  0.71915331650E+03  0.71915331650E+03  0.00000000000E+00 0. -1.
         -2   -1    0    0    0  501 -0.00000000000E+00 -0.00000000000E+00 -0.71751954173E+03  0.71751954173E+03  0.00000000000E+00 0.  1.
          6    2    1    2  502    0 -0.22810999899E+03  0.34214520507E+03 -0.56256615007E+03  0.71776904554E+03  0.17208781635E+03 0.  0.
         24    2    3    3    0    0 -0.19644040009E+03  0.17544025106E+03 -0.34312789082E+03  0.44033663069E+03  0.82410474989E+02 0.  0.
         -6    2    1    2    0  501  0.22810999899E+03 -0.34214520507E+03  0.56419992484E+03  0.71890381269E+03  0.17147484864E+03 0.  0.
        -24    2    5    5    0    0  0.17591552061E+03 -0.19063086205E+03  0.43753617894E+03  0.51458383266E+03  0.77924431304E+02 0.  0.
          5    1    3    3  502    0 -0.31669598899E+02  0.16670495401E+03 -0.21943825925E+03  0.27743241485E+03  0.47000000000E+01 0. -1.
        -11    1    4    4    0    0 -0.24513083421E+02  0.62604785016E+02 -0.58054548763E+02  0.88828942343E+02  0.00000000000E+00 0.  1.
         12    1    4    4    0    0 -0.17192731667E+03  0.11283546604E+03 -0.28507334206E+03  0.35150768835E+03  0.00000000000E+00 0. -1.
         -5    1    5    5    0  501  0.52194478381E+02 -0.15151434302E+03  0.12666374590E+03  0.20431998003E+03  0.47000000000E+01 0.  1.
         13    1    6    6    0    0  0.10102298885E+03 -0.16141009193E+03  0.31162279875E+03  0.36519533233E+03  0.00000000000E+00 0. -1.
        -14    1    6    6    0    0  0.74892531760E+02 -0.29220770117E+02  0.12591338019E+03  0.14938850033E+03  0.00000000000E+00 0.  1.
</event>
<event>
12    1  0.1081556E+000  0.2794732E+03  0.7818608E-02  0.1095977E+00
         -2   -1    0    0    0  501 -0.00000000000E+00  0.00000000000E+00  0.48236730776E+02  0.48236730776E+02  0.00000000000E+00 0.  1.
          2   -1    0    0  502    0  0.00000000000E+00 -0.00000000000E+00 -0.25911766740E+04  0.25911766740E+04  0.00000000000E+00 0. -1.
          6    2    1    2  502    0 -0.20430575881E+03  0.72387489727E+02 -0.45598992698E+03  0.53349028468E+03  0.17234929241E+03 0.  0.
         24    2    3    3    0    0 -0.17752029584E+03  0.45904677606E+02 -0.45301719738E+03  0.49541499761E+03  0.81183396538E+02 0.  0.
         -6    2    1    2    0  501  0.20430575881E+03 -0.72387489727E+02 -0.20869500163E+04  0.21059231201E+04  0.18047444610E+03 0.  0.
        -24    2    5    5    0    0  0.20830718037E+03 -0.10089334328E+03 -0.16625172495E+04  0.16804893902E+04  0.80682324705E+02 0.  0.
          5    1    3    3  502    0 -0.26785462972E+02  0.26482812121E+02 -0.29727295989E+01  0.38075287074E+02  0.47000000000E+01 0. -1.
        -11    1    4    4    0    0 -0.10918573594E+03  0.61782043892E+02 -0.23502120652E+03  0.26640854602E+03  0.00000000000E+00 0.  1.
         12    1    4    4    0    0 -0.68334559894E+02 -0.15877366286E+02 -0.21799599086E+03  0.22900645159E+03  0.00000000000E+00 0. -1.
         -5    1    5    5    0  501 -0.40014215589E+01  0.28505853552E+02 -0.42443276672E+03  0.42543372989E+03  0.47000000000E+01 0.  1.
         13    1    6    6    0    0  0.91918932805E+02 -0.88925781267E+02 -0.90358207692E+03  0.91258832696E+03  0.00000000000E+00 0. -1.
        -14    1    6    6    0    0  0.11638824756E+03 -0.11967562012E+02 -0.75893517262E+03  0.76790106326E+03  0.00000000000E+00 0.  1.
</event>
<event>
12    1  0.1081556E+000  0.5225755E+03  0.7818608E-02  0.1008049E+00
         -2   -1    0    0    0  501 -0.00000000000E+00  0.00000000000E+00  0.22492173570E+03  0.22492173570E+03  0.00000000000E+00 0.  1.
          2   -1    0    0  502    0  0.00000000000E+00 -0.00000000000E+00 -0.12147341913E+04  0.12147341913E+04  0.00000000000E+00 0. -1.
          6    2    1    2  502    0  0.30518917333E+03  0.38835058378E+03 -0.47938807275E+03  0.70951558138E+03  0.17217092810E+03 0.  0.
         24    2    3    3    0    0  0.15696121517E+03  0.29732247570E+03 -0.35547351275E+03  0.49589312886E+03  0.80691383422E+02 0.  0.
         -6    2    1    2    0  501 -0.30518917333E+03 -0.38835058378E+03 -0.51042438280E+03  0.73014034557E+03  0.16916047480E+03 0.  0.
        -24    2    5    5    0    0 -0.24603678982E+03 -0.27107987069E+03 -0.29013604375E+03  0.47362432863E+03  0.78247572187E+02 0.  0.
          5    1    3    3  502    0  0.14822795816E+03  0.91028108081E+02 -0.12391456000E+03  0.21362245252E+03  0.47000000000E+01 0. -1.
        -13    1    4    4    0    0  0.11456891631E+03  0.13711186185E+03 -0.20629174301E+03  0.27291387374E+03  0.00000000000E+00 0.  1.
         14    1    4    4    0    0  0.42392298867E+02  0.16021061384E+03 -0.14918176974E+03  0.22297925512E+03  0.00000000000E+00 0. -1.
         -5    1    5    5    0  501 -0.59152383514E+02 -0.11727071309E+03 -0.22028833906E+03  0.25651601694E+03  0.47000000000E+01 0.  1.
         11    1    6    6    0    0 -0.85452854916E+02 -0.46114268950E+02 -0.61719467574E+02  0.11505654650E+03  0.00000000000E+00 0. -1.
        -12    1    6    6    0    0 -0.16058393490E+03 -0.22496560173E+03 -0.22841657617E+03  0.35856778213E+03  0.00000000000E+00 0.  1.
</event>
<event>
12    1  0.1081556E+000  0.2234844E+03  0.7818608E-02  0.1131312E+00
         -1   -1    0    0    0  501 -0.00000000000E+00  0.00000000000E+00  0.50283283535E+02  0.50283283535E+02  0.00000000000E+00 0.  1.
          1   -1    0    0  502    0  0.00000000000E+00 -0.00000000000E+00 -0.10957504060E+04  0.10957504060E+04  0.00000000000E+00 0. -1.
          6    2    1    2  502    0  0.14081630844E+03 -0.29214533837E+02 -0.34884146785E+03  0.41462938357E+03  0.17188494501E+03 0.  0.
         24    2    3    3    0    0  0.94553439340E+02  0.25211683975E+02 -0.11562305426E+03  0.17067163174E+03  0.78639260580E+02 0.  0.
         -6    2    1    2    0  501 -0.14081630844E+03  0.29214533837E+02 -0.69662565466E+03  0.73140430601E+03  0.17024169408E+03 0.  0.
        -24    2    5    5    0    0 -0.15306346350E+03  0.87176323381E+01 -0.68113505742E+03  0.70255704650E+03  0.78339110104E+02 0.  0.
          5    1    3    3  502    0  0.46262869100E+02 -0.54426217812E+02 -0.23321841359E+03  0.24395775183E+03  0.47000000000E+01 0. -1.
        -11    1    4    4    0    0  0.19265116985E+02 -0.26298690576E+02 -0.43618873745E+02  0.54455229366E+02  0.00000000000E+00 0.  1.
         12    1    4    4    0    0  0.75288322355E+02  0.51510374550E+02 -0.72004180518E+02  0.11621640238E+03  0.00000000000E+00 0. -1.
         -5    1    5    5    0  501  0.12247155059E+02  0.20496901499E+02 -0.15490597246E+02  0.28847259508E+02  0.47000000000E+01 0.  1.
         11    1    6    6    0    0 -0.70823865895E+02 -0.18277546826E+02 -0.44679109113E+03  0.45273874123E+03  0.00000000000E+00 0. -1.
        -12    1    6    6    0    0 -0.82239597604E+02  0.26995179164E+02 -0.23434396629E+03  0.24981830527E+03  0.00000000000E+00 0.  1.
</event>
<event>
12    1  0.1081556E+000  0.9976731E+03  0.7818608E-02  0.9311101E-01
          2   -1    0    0  502    0  0.00000000000E+00  0.00000000000E+00  0.35553734503E+04  0.35553734503E+04  0.00000000000E+00 0. -1.
         -2   -1    0    0    0  501 -0.00000000000E+00 -0.00000000000E+00 -0.28778664708E+03  0.28778664708E+03  0.00000000000E+00 0.  1.
          6    2    1    2  502    0  0.59496734377E+02  0.98113299303E+03  0.19509820021E+04  0.21913416077E+04  0.17171330065E+03 0.  0.
         24    2    3    3    0    0  0.80694267784E+02  0.56859503015E+03  0.10293309605E+04  0.11813417865E+04  0.78957692406E+02 0.  0.
         -6    2    1    2    0  501 -0.59496734377E+02 -0.98113299303E+03  0.13166048011E+04  0.16518184897E+04  0.16998326139E+03 0.  0.
        -24    2    5    5    0    0 -0.85768952471E+02 -0.70359247427E+03  0.86418722678E+03  0.11203839024E+04  0.77729291616E+02 0.  0.
          5    1    3    3  502    0 -0.21197533407E+02  0.41253796288E+03  0.92165104166E+03  0.10099998212E+04  0.47000000000E+01 0. -1.
        -13    1    4    4    0    0  0.24808210013E+02  0.29310746887E+03  0.59911942465E+03  0.66743652925E+03  0.00000000000E+00 0.  1.
         14    1    4    4    0    0  0.55886057771E+02  0.27548756128E+03  0.43021153581E+03  0.51390525724E+03  0.00000000000E+00 0. -1.
         -5    1    5    5    0  501  0.26272218095E+02 -0.27754051876E+03  0.45241757436E+03  0.53143458731E+03  0.47000000000E+01 0.  1.
         11    1    6    6    0    0 -0.58637386812E+02 -0.48707013031E+03  0.53973798037E+03  0.72937832599E+03  0.00000000000E+00 0. -1.
        -12    1    6    6    0    0 -0.27131565659E+02 -0.21652234397E+03  0.32444924640E+03  0.39100557641E+03  0.00000000000E+00 0.  1.
</event>
<event>
12    1  0.1081556E+000  0.3450359E+03  0.7818608E-02  0.1064671E+00
          2   -1    0    0  502    0  0.00000000000E+00  0.00000000000E+00  0.80078748202E+03  0.80078748202E+03  0.00000000000E+00 0. -1.
         -2   -1    0    0    0  501 -0.00000000000E+00 -0.00000000000E+00 -0.22516463228E+03  0.22516463228E+03  0.00000000000E+00 0.  1.
          6    2    1    2  502    0  0.26326715867E+03 -0.14171611393E+03 -0.11272223586E+02  0.34507181726E+03  0.17191405487E+03 0.  0.
         24    2    3    3    0    0  0.74123415602E+02 -0.14902108686E+02  0.27746059932E+02  0.11398381689E+03  0.80660480332E+02 0.  0.
         -6    2    1    2    0  501 -0.26326715867E+03  0.14171611393E+03  0.58689507333E+03  0.68088029704E+03  0.17250825493E+03 0.  0.
        -24    2    5    5    0    0 -0.12065620709E+03  0.99776345075E+02  0.43093444977E+03  0.46537476620E+03  0.79724109734E+02 0.  0.
          5    1    3    3  502    0  0.18914374307E+03 -0.12681400524E+03 -0.39018283518E+02  0.23108800037E+03  0.47000000000E+01 0. -1.
        -13    1    4    4    0    0  0.57232550950E+02 -0.11194052491E+02 -0.21216957038E+02  0.62056675429E+02  0.00000000000E+00 0.  1.
         14    1    4    4    0    0  0.16890864652E+02 -0.37080561956E+01  0.48963016971E+02  0.51927141461E+02  0.00000000000E+00 0. -1.
         -5    1    5    5    0  501 -0.14261095157E+03  0.41939768854E+02  0.15596062356E+03  0.21550553084E+03  0.47000000000E+01 0.  1.
         11    1    6    6    0    0 -0.15021874646E+02  0.60316233812E+02  0.13279318938E+03  0.14662106235E+03  0.00000000000E+00 0. -1.
        -12    1    6    6    0    0 -0.10563433245E+03  0.39460111263E+02  0.29814126038E+03  0.31875370385E+03  0.00000000000E+00 0.  1.
</event>
<event>
12    1  0.1081556E+000  0.3191428E+03  0.7818608E-02  0.1076044E+00
         -1   -1    0    0    0  501 -0.00000000000E+00  0.00000000000E+00  0.78183722335E+02  0.78183722335E+02  0.00000000000E+00 0.  1.
          1   -1    0    0  502    0  0.00000000000E+00 -0.00000000000E+00 -0.33514773211E+04  0.33514773211E+04  0.00000000000E+00 0. -1.
          6    2    1    2  502    0  0.26965777691E+03 -0.14914238972E+02 -0.29317290338E+03  0.43235360799E+03  0.16745608347E+03 0.  0.
         24    2    3    3    0    0  0.26742875968E+03  0.22406112940E+02 -0.27205128251E+03  0.38915650099E+03  0.73557505040E+02 0.  0.
         -6    2    1    2    0  501 -0.26965777691E+03  0.14914238972E+02 -0.29801206954E+04  0.29973074355E+04  0.17261156501E+03 0.  0.
        -24    2    5    5    0    0 -0.23868356205E+03 -0.37311192593E+02 -0.21634206704E+04  0.21783398423E+04  0.80084354930E+02 0.  0.
          5    1    3    3  502    0  0.22290172305E+01 -0.37320351912E+02 -0.21121620868E+02  0.43197106995E+02  0.47000000000E+01 0. -1.
        -13    1    4    4    0    0  0.11732227565E+03  0.53818279682E+00 -0.16915401370E+03  0.20585889914E+03  0.00000000000E+00 0.  1.
         14    1    4    4    0    0  0.15010648402E+03  0.21867930143E+02 -0.10289726881E+03  0.18329760185E+03  0.00000000000E+00 0. -1.
         -5    1    5    5    0  501 -0.30974214859E+02  0.52225431565E+02 -0.81670002504E+03  0.81896759313E+03  0.47000000000E+01 0.  1.
         11    1    6    6    0    0 -0.76474587167E+02 -0.49983815105E+02 -0.84092594126E+03  0.84587421224E+03  0.00000000000E+00 0. -1.
        -12    1    6    6    0    0 -0.16220897488E+03  0.12672622512E+02 -0.13224947291E+04  0.13324656301E+04  0.00000000000E+00 0.  1.
</event>
<event>
12    1  0.1081556E+000  0.2677429E+03  0.7818608E-02  0.1102578E+00
         -2   -1    0    0    0  501 -0.00000000000E+00  0.00000000000E+00  0.11009271076E+04  0.11009271076E+04  0.00000000000E+00 0.  1.
          2   -1    0    0  502    0  0.00000000000E+00 -0.00000000000E+00 -0.28881650301E+03  0.28881650301E+03  0.00000000000E+00 0. -1.
          6    2    1    2  502    0 -0.20464212535E+03 -0.36867857966E+02  0.10182105181E+04  0.10532861824E+04  0.17152692065E+03 0.  0.
         24    2    3    3    0    0 -0.20438244264E+03 -0.55617843694E+02  0.10045438739E+04  0.10296113738E+04  0.78266589826E+02 0.  0.
         -6    2    1    2    0  501  0.20464212535E+03  0.36867857966E+02 -0.20609991354E+03  0.33645742816E+03  0.16579743119E+03 0.  0.
        -24    2    5    5    0    0  0.26274746176E+02  0.16893656125E+02 -0.51151666012E+02  0.99297271092E+02  0.79168789347E+02 0.  0.
          5    1    3    3  502    0 -0.25968270332E+00  0.18749985728E+02  0.13666644218E+02  0.23674808639E+02  0.47000000000E+01 0. -1.
        -13    1    4    4    0    0 -0.65642305569E+02 -0.37825780345E+02  0.51259234726E+03  0.51816080169E+03  0.00000000000E+00 0.  1.
         14    1    4    4    0    0 -0.13874013708E+03 -0.17792063349E+02  0.49195152663E+03  0.51145057211E+03  0.00000000000E+00 0. -1.
         -5    1    5    5    0  501  0.17836737917E+03  0.19974201841E+02 -0.15494824752E+03  0.23716015707E+03  0.47000000000E+01 0.  1.
         11    1    6    6    0    0  0.26039879745E+02 -0.25942479020E+02 -0.41403177661E+02  0.55365247902E+02  0.00000000000E+00 0. -1.
        -12    1    6    6    0    0  0.23486643149E+00  0.42836135146E+02 -0.97484883510E+01  0.43932023190E+02  0.00000000000E+00 0.  1.
</event>
<event>
12    1  0.1081556E+000  0.2417937E+03  0.7818608E-02  0.1118604E+00
          2   -1    0    0  502    0  0.00000000000E+00  0.00000000000E+00  0.23087612877E+04  0.23087612877E+04  0.00000000000E+00 0. -1.
         -2   -1    0    0    0  501 -0.00000000000E+00 -0.00000000000E+00 -0.43510624656E+02  0.43510624656E+02  0.00000000000E+00 0.  1.
          6    2    1    2  502    0  0.20232928189E+01  0.17076524515E+03  0.37404050909E+03  0.44575224169E+03  0.17211593728E+03 0.  0.
         24    2    3    3    0    0  0.70042717765E+01  0.13488056067E+02  0.96390326525E+02  0.12657730809E+03  0.80620917862E+02 0.  0.
         -6    2    1    2    0  501 -0.20232928189E+01 -0.17076524515E+03  0.18912101540E+04  0.19065196707E+04  0.17022498513E+03 0.  0.
        -24    2    5    5    0    0  0.34965724476E+02 -0.71119475173E+02  0.13660706782E+04  0.13707109120E+04  0.80116944478E+02 0.  0.
          5    1    3    3  502    0 -0.49809789577E+01  0.15727718908E+03  0.27765018257E+03  0.31917493360E+03  0.47000000000E+01 0. -1.
        -11    1    4    4    0    0 -0.16433855239E+02  0.27295187482E+02  0.94019961264E+02  0.99271607088E+02  0.00000000000E+00 0.  1.
         12    1    4    4    0    0  0.23438127015E+02 -0.13807131415E+02  0.23703652607E+01  0.27305701005E+02  0.00000000000E+00 0. -1.
         -5    1    5    5    0  501 -0.36989017295E+02 -0.99645769976E+02  0.52513947580E+03  0.53580875872E+03  0.47000000000E+01 0.  1.
         11    1    6    6    0    0 -0.13347158213E+02 -0.53983301158E+02  0.49077206024E+03  0.49391250090E+03  0.00000000000E+00 0. -1.
        -12    1    6    6    0    0  0.48312882689E+02 -0.17136174015E+02  0.87529861796E+03  0.87679841109E+03  0.00000000000E+00 0.  1.
</event>
<event>
12    1  0.1081556E+000  0.3317711E+03  0.7818608E-02  0.1070356E+00
          2   -1    0    0  502    0  0.00000000000E+00  0.00000000000E+00  0.10491388344E+04  0.10491388344E+04  0.00000000000E+00 0. -1.
         -2   -1    0    0    0  501 -0.00000000000E+00 -0.00000000000E+00 -0.12359195725E+03  0.12359195725E+03  0.00000000000E+00 0.  1.
          6    2    1    2  502    0  0.27086437598E+03  0.58681381078E+02  0.24081974212E+03  0.41397435173E+03  0.19123179923E+03 0.  0.
         24    2    3    3    0    0  0.38977024313E+02 -0.21628750938E+02  0.46388945780E+01  0.73350007454E+02  0.58066280742E+02 0.  0.
         -6    2    1    2    0  501 -0.27086437598E+03 -0.58681381078E+02  0.68472713506E+03  0.75875643994E+03  0.17334667868E+03 0.  0.
        -24    2    5    5    0    0 -0.27967090768E+03 -0.64474462476E+02  0.68525163875E+03  0.74720308992E+03  0.79811504579E+02 0.  0.
          5    1    3    3  502    0  0.23188735167E+03  0.80310132016E+02  0.23618084754E+03  0.34062434427E+03  0.47000000000E+01 0. -1.
        -13    1    4    4    0    0 -0.42558223597E+01  0.67478460605E+01  0.18213692929E+02  0.19884266658E+02  0.00000000000E+00 0.  1.
         14    1    4    4    0    0  0.43232846673E+02 -0.28376596999E+02 -0.13574798351E+02  0.53465740797E+02  0.00000000000E+00 0. -1.
         -5    1    5    5    0  501  0.88065317033E+01  0.57930813980E+01 -0.52450368534E+00  0.11553350027E+02  0.47000000000E+01 0.  1.
         11    1    6    6    0    0 -0.30969988039E+02 -0.67538815761E+01  0.16096318956E+03  0.16405457466E+03  0.00000000000E+00 0. -1.
        -12    1    6    6    0    0 -0.24870091964E+03 -0.57720580900E+02  0.52428844919E+03  0.58314851525E+03  0.00000000000E+00 0.  1.
</event>
<event>
12    1  0.1081556E+000  0.7286669E+03  0.7818608E-02  0.9669426E-01
         -2   -1    0    0    0  501 -0.00000000000E+00  0.00000000000E+00  0.78056324580E+03  0.78056324580E+03  0.00000000000E+00 0.  1.
          2   -1    0    0  502    0  0.00000000000E+00 -0.00000000000E+00 -0.68405921694E+03  0.68405921694E+03  0.00000000000E+00 0. -1.
          6    2    1    2  502    0 -0.62227511571E+03  0.33961280427E+03  0.10311717357E+03  0.73608208097E+03  0.16917594978E+03 0.  0.
         24    2    3    3    0    0 -0.29964824773E+03  0.12455400440E+03  0.95796486697E+02  0.34824955810E+03  0.82450078656E+02 0.  0.
         -6    2    1    2    0  501  0.62227511571E+03 -0.33961280427E+03 -0.66131447115E+01  0.72854038177E+03  0.16782186310E+03 0.  0.
        -24    2    5    5    0    0  0.42865058977E+03 -0.20410726368E+03  0.54369012214E+02  0.48442335648E+03  0.79428556667E+02 0.  0.
          5    1    3    3  502    0 -0.32262686798E+03  0.21505879987E+03  0.73206868716E+01  0.38783252288E+03  0.47000000000E+01 0. -1.
        -11    1    4    4    0    0 -0.20590807385E+03  0.46030016981E+02  0.44440398577E+02  0.21561967992E+03  0.00000000000E+00 0.  1.
         12    1    4    4    0    0 -0.93740173874E+02  0.78523987423E+02  0.51356088121E+02  0.13262987818E+03  0.00000000000E+00 0. -1.
         -5    1    5    5    0  501  0.19362452594E+03 -0.13550554059E+03 -0.60982156926E+02  0.24411702530E+03  0.47000000000E+01 0.  1.
         13    1    6    6    0    0  0.87528857909E+02 -0.74676327811E+02 -0.29689338219E+01  0.11509417653E+03  0.00000000000E+00 0. -1.
        -14    1    6    6    0    0  0.34112173186E+03 -0.12943093587E+03  0.57337946036E+02  0.36932917995E+03  0.00000000000E+00 0.  1.
</event>
<event>
12    1  0.1081556E+000  0.2963047E+03  0.7818608E-02  0.1087103E+00
         -1   -1    0    0    0  501 -0.00000000000E+00  0.00000000000E+00  0.10775805561E+03  0.10775805561E+03  0.00000000000E+00 0.  1.
          1   -1    0    0  502    0  0.00000000000E+00 -0.00000000000E+00 -0.17050676728E+04  0.17050676728E+04  0.00000000000E+00 0. -1.
          6    2    1    2  502    0  0.14843996680E+01  0.24155345031E+03 -0.14397120676E+03  0.32963524804E+03  0.17199248697E+03 0.  0.
         24    2    3    3    0    0 -0.65743868908E+02  0.13854573996E+03 -0.94895664210E+02  0.19711835340E+03  0.79581906243E+02 0.  0.
         -6    2    1    2    0  501 -0.14843996680E+01 -0.24155345031E+03 -0.14533384104E+04  0.14831904803E+04  0.17120511975E+03 0.  0.
        -24    2    5    5    0    0 -0.13763281404E+02 -0.24179872639E+03 -0.10900586070E+04  0.11196727549E+04  0.82360546001E+02 0.  0.
          5    1    3    3  502    0  0.67228268576E+02  0.10300771035E+03 -0.49075542547E+02  0.13251689464E+03  0.47000000000E+01 0. -1.
        -13    1    4    4    0    0  0.45728430497E+00 -0.91389904301E+01 -0.12546451227E+02  0.15528802059E+02  0.00000000000E+00 0.  1.
         14    1    4    4    0    0 -0.66201153213E+02  0.14768473039E+03 -0.82349212983E+02  0.18158955134E+03  0.00000000000E+00 0. -1.
         -5    1    5    5    0  501  0.12278881736E+02  0.24527607300E+00 -0.36327980343E+03  0.36351772540E+03  0.47000000000E+01 0.  1.
         11    1    6    6    0    0 -0.23929429150E+02 -0.61160404691E+02 -0.44123999621E+03  0.44610082597E+03  0.00000000000E+00 0. -1.
        -12    1    6    6    0    0  0.10166147746E+02 -0.18063832169E+03 -0.64881861076E+03  0.67357192897E+03  0.00000000000E+00 0.  1.
</event>
<event>
12    1  0.1081556E+000  0.2139000E+03  0.7818608E-02  0.1138514E+00
         -2   -1    0    0    0  501 -0.00000000000E+00  0.00000000000E+00  0.64110761665E+02  0.64110761665E+02  0.00000000000E+00 0.  1.
          2   -1    0    0  502    0  0.00000000000E+00 -0.00000000000E+00 -0.33049108038E+04  0.33049108038E+04  0.00000000000E+00 0. -1.
          6    2    1    2  502    0  0.12143562414E+03  0.54105045464E+02 -0.13292082161E+03  0.25395860166E+03  0.17074267124E+03 0.  0.
         24    2    3    3    0    0  0.74438143980E+02 -0.17432921456E+02 -0.12582451426E+03  0.16794179266E+03  0.80794141513E+02 0.  0.
         -6    2    1    2    0  501 -0.12143562414E+03 -0.54105045464E+02 -0.31078792205E+04  0.31150629638E+04  0.16440818830E+03 0.  0.
        -24    2    5    5    0    0 -0.11885288089E+03  0.52598011677E+01 -0.16961958111E+04  0.17021217074E+04  0.77358932629E+02 0.  0.
          5    1    3    3  502    0  0.46997480157E+02  0.71537966919E+02 -0.70963073518E+01  0.86016808998E+02  0.47000000000E+01 0. -1.
        -11    1    4    4    0    0  0.29218948236E+02  0.31883973246E+02 -0.38278129479E+02  0.57754219606E+02  0.00000000000E+00 0.  1.
         12    1    4    4    0    0  0.45219195745E+02 -0.49316894702E+02 -0.87546384782E+02  0.11018757305E+03  0.00000000000E+00 0. -1.
         -5    1    5    5    0  501 -0.25827432474E+01 -0.59364846631E+02 -0.14116834094E+04  0.14129412564E+04  0.47000000000E+01 0.  1.
         11    1    6    6    0    0 -0.14152946301E+01 -0.15856258059E+02 -0.82591448683E+02  0.84111660156E+02  0.00000000000E+00 0. -1.
        -12    1    6    6    0    0 -0.11743758626E+03  0.21116059226E+02 -0.16136043624E+04  0.16180100472E+04  0.00000000000E+00 0.  1.
</event>
<event>
12    1  0.1081556E+000  0.3081078E+03  0.7818608E-02  0.1081256E+00
         -1   -1    0    0    0  501 -0.00000000000E+00  0.00000000000E+00  0.14008139702E+03  0.14008139702E+03  0.00000000000E+00 0.  1.
          1   -1    0    0  502    0  0.00000000000E+00 -0.00000000000E+00 -0.88743433945E+03  0.88743433945E+03  0.00000000000E+00 0. -1.
          6    2    1    2  502    0 -0.10848557444E+03  0.23097298127E+03 -0.12425486393E+03  0.33257066802E+03  0.17333880142E+03 0.  0.
         24    2    3    3    0    0 -0.13449565122E+03  0.22801233719E+03 -0.92724141925E+02  0.29132062634E+03  0.78684399540E+02 0.  0.
         -6    2    1    2    0  501  0.10848557444E+03 -0.23097298127E+03 -0.62309807850E+03  0.69494506846E+03  0.17198777515E+03 0.  0.
        -24    2    5    5    0    0  0.96720453204E+02 -0.24567140929E+03 -0.50632195941E+03  0.57656764724E+03  0.79743575633E+02 0.  0.
          5    1    3    3  502    0  0.26010076786E+02  0.29606440859E+01 -0.31530722006E+02  0.41250041673E+02  0.47000000000E+01 0. -1.
        -11    1    4    4    0    0 -0.43617405426E+01  0.38342401311E+02 -0.39502018586E+02  0.55222948049E+02  0.00000000000E+00 0.  1.
         12    1    4    4    0    0 -0.13013391068E+03  0.18966993588E+03 -0.53222123339E+02  0.23609767830E+03  0.00000000000E+00 0. -1.
         -5    1    5    5    0  501  0.11765121232E+02  0.14698428015E+02 -0.11677611909E+03  0.11837742122E+03  0.47000000000E+01 0.  1.
         13    1    6    6    0    0  0.49653509428E+02 -0.17541131517E+03 -0.40802015112E+03  0.44689489168E+03  0.00000000000E+00 0. -1.
        -14    1    6    6    0    0  0.47066943776E+02 -0.70260094120E+02 -0.98301808284E+02  0.12967275556E+03  0.00000000000E+00 0.  1.
</event>
<event>
12    1  0.1081556E+000  0.6138306E+03  0.7818608E-02  0.9877120E-01
          1   -1    0    0  502    0  0.00000000000E+00  0.00000000000E+00  0.12863357956E+04  0.12863357956E+04  0.00000000000E+00 0. -1.
         -1   -1    0    0    0  501 -0.00000000000E+00 -0.00000000000E+00 -0.29658324267E+03  0.29658324267E+03  0.00000000000E+00 0.  1.
          6    2    1    2  502    0 -0.52646407472E+03  0.26922221272E+03  0.58436126052E+03  0.84888039914E+03  0.17168234459E+03 0.  0.
         24    2    3    3    0    0 -0.23661590402E+03  0.56277333752E+02  0.23978262745E+03  0.35076996168E+03  0.79935181593E+02 0.  0.
         -6    2    1    2    0  501  0.52646407472E+03 -0.26922221272E+03  0.40539129242E+03  0.73403863914E+03  0.15756142290E+03 0.  0.
        -24    2    5    5    0    0  0.28554658921E+03 -0.19127164980E+03  0.18532186515E+03  0.39852385869E+03  0.79720597158E+02 0.  0.
          5    1    3    3  502    0 -0.28984817070E+03  0.21294487897E+03  0.34457863307E+03  0.49811043746E+03  0.47000000000E+01 0. -1.
        -11    1    4    4    0    0 -0.19954658424E+03  0.76310216543E+02  0.20575823788E+03  0.29661176795E+03  0.00000000000E+00 0.  1.
         12    1    4    4    0    0 -0.37069319786E+02 -0.20032882791E+02  0.34024389574E+02  0.54158193731E+02  0.00000000000E+00 0. -1.
         -5    1    5    5    0  501  0.24091748551E+03 -0.77950562918E+02  0.22006942728E+03  0.33551478046E+03  0.47000000000E+01 0.  1.
         11    1    6    6    0    0  0.11311405996E+02 -0.30289221548E+02  0.32024643788E+02  0.45507830725E+02  0.00000000000E+00 0. -1.
        -12    1    6    6    0    0  0.27423518322E+03 -0.16098242825E+03  0.15329722136E+03  0.35301602796E+03  0.00000000000E+00 0.  1.
</event>
<event>
12    1  0.1081556E+000  0.3738295E+03  0.7818608E-02  0.1053238E+00
          1   -1    0    0  502    0  0.00000000000E+00  0.00000000000E+00  0.11905429002E+04  0.11905429002E+04  0.00000000000E+00 0. -1.
         -1   -1    0    0    0  501 -0.00000000000E+00 -0.00000000000E+00 -0.84362548439E+03  0.84362548439E+03  0.00000000000E+00 0.  1.
          6    2    1    2  502    0 -0.20873598890E+03  0.25742803113E+03 -0.77025258155E+03  0.85593915315E+03  0.17176405401E+03 0.  0.
         24    2    3    3    0    0 -0.49536480795E+02  0.89191874040E+02 -0.18008970299E+03  0.22193426266E+03  0.80084096416E+02 0.  0.
         -6    2    1    2    0  501  0.20873598890E+03 -0.25742803113E+03  0.11171699974E+04  0.11782292314E+04  0.17411322342E+03 0.  0.
        -24    2    5    5    0    0  0.11501891998E+03 -0.17215195303E+03  0.48655932052E+03  0.53499769130E+03  0.81344393931E+02 0.  0.
          5    1    3    3  502    0 -0.15919950810E+03  0.16823615709E+03 -0.59016287856E+03  0.63400489049E+03  0.47000000000E+01 0. -1.
        -13    1    4    4    0    0 -0.18932975446E+02  0.18656449408E+02 -0.12385696505E+03  0.12667702418E+03  0.00000000000E+00 0.  1.
         14    1    4    4    0    0 -0.30603505349E+02  0.70535424632E+02 -0.56232737931E+02  0.95257238480E+02  0.00000000000E+00 0. -1.
         -5    1    5    5    0  501  0.93717068921E+02 -0.85276078098E+02  0.63061067683E+03  0.64323154015E+03  0.47000000000E+01 0.  1.
         13    1    6    6    0    0  0.11863072007E+03 -0.11609040879E+03  0.37501394630E+03  0.41010448751E+03  0.00000000000E+00 0. -1.
        -14    1    6    6    0    0 -0.36118000903E+01 -0.56061544237E+02  0.11154537422E+03  0.12489320379E+03  0.00000000000E+00 0.  1.
</event>
<event>
12    1  0.1081556E+000  0.2155594E+03  0.7818608E-02  0.1137238E+00
          1   -1    0    0  502    0  0.00000000000E+00  0.00000000000E+00  0.22115693358E+04  0.22115693358E+04  0.00000000000E+00 0. -1.
         -1   -1    0    0    0  501 -0.00000000000E+00 -0.00000000000E+00 -0.77521009318E+02  0.77521009318E+02  0.00000000000E+00 0.  1.
          6    2    1    2  502    0  0.12118545161E+03 -0.46358703663E+02  0.91125479446E+02  0.23492827080E+03  0.17335626994E+03 0.  0.
         24    2    3    3    0    0  0.47518566373E+01 -0.42912447765E+02  0.95748474690E+01  0.92656508687E+02  0.81421696023E+02 0.  0.
         -6    2    1    2    0  501 -0.12118545161E+03  0.46358703663E+02  0.20429228470E+04  0.20541620743E+04  0.17091818376E+03 0.  0.
        -24    2    5    5    0    0 -0.14573294861E+03  0.25704074135E+02  0.13337245413E+04  0.13442229783E+04  0.78838260619E+02 0.  0.
          5    1    3    3  502    0  0.11643359498E+03 -0.34462558979E+01  0.81550631977E+02  0.14227176211E+03  0.47000000000E+01 0. -1.
        -11    1    4    4    0    0  0.19350141167E+02  0.19817879143E+02  0.14009999962E+01  0.27733357133E+02  0.00000000000E+00 0.  1.
         12    1    4    4    0    0 -0.14598284530E+02 -0.62730326908E+02  0.81738474729E+01  0.64923151554E+02  0.00000000000E+00 0. -1.
         -5    1    5    5    0  501  0.24547496992E+02  0.20654629528E+02  0.70919830564E+03  0.70993909601E+03  0.47000000000E+01 0.  1.
         11    1    6    6    0    0 -0.74352482658E+02 -0.17483845091E+02  0.84338217995E+03  0.84683379596E+03  0.00000000000E+00 0. -1.
        -12    1    6    6    0    0 -0.71380465949E+02  0.43187919226E+02  0.49034236139E+03  0.49738918229E+03  0.00000000000E+00 0.  1.
</event>
<event>
12    1  0.1081556E+000  0.6525271E+03  0.7818608E-02  0.9802049E-01
          1   -1    0    0  502    0  0.00000000000E+00  0.00000000000E+00  0.99002402893E+03  0.99002402893E+03  0.00000000000E+00 0. -1.
         -1   -1    0    0    0  501 -0.00000000000E+00 -0.00000000000E+00 -0.65435438945E+03  0.65435438945E+03  0.00000000000E+00 0.  1.
          6    2    1    2  502    0  0.55341543041E+03  0.29989517026E+03 -0.31349590304E+03  0.72398360436E+03  0.17224060614E+03 0.  0.
         24    2    3    3    0    0  0.54107041921E+03  0.27237733821E+03 -0.26222332444E+03  0.66431286029E+03  0.74859144710E+02 0.  0.
         -6    2    1    2    0  501 -0.55341543041E+03 -0.29989517026E+03  0.64916554252E+03  0.92039481402E+03  0.17177007983E+03 0.  0.
        -24    2    5    5    0    0 -0.41464809903E+03 -0.18435877761E+03  0.38619909970E+03  0.60136743222E+03  0.81066879952E+02 0.  0.
          5    1    3    3  502    0  0.12345011196E+02  0.27517832050E+02 -0.51272578598E+02  0.59670744074E+02  0.47000000000E+01 0. -1.
        -11    1    4    4    0    0  0.37738622042E+03  0.22631520449E+03 -0.19815420344E+03  0.48260130489E+03  0.00000000000E+00 0.  1.
         12    1    4    4    0    0  0.16368419879E+03  0.46062133717E+02 -0.64069121005E+02  0.18171155539E+03  0.00000000000E+00 0. -1.
         -5    1    5    5    0  501 -0.13876733138E+03 -0.11553639265E+03  0.26296644283E+03  0.31902738180E+03  0.47000000000E+01 0.  1.
         13    1    6    6    0    0 -0.22788709577E+03 -0.87728791774E+02  0.15692099348E+03  0.29026378954E+03  0.00000000000E+00 0. -1.
        -14    1    6    6    0    0 -0.18676100326E+03 -0.96629985833E+02  0.22927810622E+03  0.31110364269E+03  0.00000000000E+00 0.  1.
</event>
<event>
12    1  0.1081556E+000  0.2337761E+03  0.7818608E-02  0.1124010E+00
         -3   -1    0    0    0  501 -0.00000000000E+00  0.00000000000E+00  0.37440275152E+03  0.37440275152E+03  0.00000000000E+00 0.  1.
          3   -1    0    0  502    0  0.00000000000E+00 -0.00000000000E+00 -0.21128954402E+03  0.21128954402E+03  0.00000000000E+00 0. -1.
          6    2    1    2  502    0  0.14126382152E+02  0.15694263292E+03  0.24449222286E+03  0.33858803932E+03  0.17330570858E+03 0.  0.
         24    2    3    3    0    0  0.10926130209E+00  0.14496452743E+03  0.10226561207E+03  0.19509429902E+03  0.81171447852E+02 0.  0.
         -6    2    1    2    0  501 -0.14126382152E+02 -0.15694263292E+03 -0.81379015359E+02  0.24710425623E+03  0.17206808131E+03 0.  0.
        -24    2    5    5    0    0  0.49167839618E+02 -0.10301295200E+03 -0.15163280213E+02  0.14070321030E+03  0.80859901000E+02 0.  0.
          5    1    3    3  502    0  0.14017120850E+02  0.11978105490E+02  0.14222661079E+03  0.14349374030E+03  0.47000000000E+01 0. -1.
        -11    1    4    4    0    0  0.20585833812E+02  0.31058588086E+02  0.62419114066E+02  0.72694967146E+02  0.00000000000E+00 0.  1.
         12    1    4    4    0    0 -0.20476572510E+02  0.11390593935E+03  0.39846498009E+02  0.12239933188E+03  0.00000000000E+00 0. -1.
         -5    1    5    5    0  501 -0.63294221770E+02 -0.53929680925E+02 -0.66215735146E+02  0.10640104593E+03  0.47000000000E+01 0.  1.
         11    1    6    6    0    0  0.10552188162E+02 -0.51722313764E+02 -0.45503644908E+02  0.69693099487E+02  0.00000000000E+00 0. -1.
        -12    1    6    6    0    0  0.38615651456E+02 -0.51290638234E+02  0.30340364695E+02  0.71010110813E+02  0.00000000000E+00 0.  1.
</event>
<event>
12    1  0.1081556E+000  0.3314135E+03  0.7818608E-02  0.1070513E+00
         -1   -1    0    0    0  501 -0.00000000000E+00  0.00000000000E+00  0.42357432637E+03  0.42357432637E+03  0.00000000000E+00 0.  1.
          1   -1    0    0  502    0  0.00000000000E+00 -0.00000000000E+00 -0.29018657847E+03  0.29018657847E+03  0.00000000000E+00 0. -1.
          6    2    1    2  502    0 -0.13496358854E+03 -0.24974069823E+03  0.18312892587E+03  0.37870811057E+03  0.17116671094E+03 0.  0.
         24    2    3    3    0    0 -0.54197260653E+02 -0.37042938993E+02  0.74346764416E+02  0.12647967213E+03  0.78486582880E+02 0.  0.
         -6    2    1    2    0  501  0.13496358854E+03  0.24974069823E+03 -0.49741177975E+02  0.33505279427E+03  0.17088184099E+03 0.  0.
        -24    2    5    5    0    0  0.11279758122E+03  0.26810351303E+03 -0.41616020493E+02  0.30477684620E+03  0.80958290426E+02 0.  0.
          5    1    3    3  502    0 -0.80766327882E+02 -0.21269775924E+03  0.10878216146E+03  0.25222843844E+03  0.47000000000E+01 0. -1.
        -11    1    4    4    0    0  0.16181688091E+02 -0.25887103086E+02  0.16527645851E+02  0.34715302290E+02  0.00000000000E+00 0.  1.
         12    1    4    4    0    0 -0.70378948744E+02 -0.11155835907E+02  0.57819118565E+02  0.91764369843E+02  0.00000000000E+00 0. -1.
         -5    1    5    5    0  501  0.22166007317E+02 -0.18362814798E+02 -0.81251574817E+01  0.30275948074E+02  0.47000000000E+01 0.  1.
         11    1    6    6    0    0  0.39015269401E+02  0.92637329382E+02 -0.53855180437E+02  0.11403616313E+03  0.00000000000E+00 0. -1.
        -12    1    6    6    0    0  0.73782311818E+02  0.17546618365E+03  0.12239159943E+02  0.19074068307E+03  0.00000000000E+00 0.  1.
</event>
<event>
12    1  0.1081556E+000  0.5021385E+03  0.7818608E-02  0.1013222E+00
          1   -1    0    0  502    0  0.00000000000E+00  0.00000000000E+00  0.17485103083E+04  0.17485103083E+04  0.00000000000E+00 0. -1.
         -1   -1    0    0    0  501 -0.00000000000E+00 -0.00000000000E+00 -0.24523719529E+03  0.24523719529E+03  0.00000000000E+00 0.  1.
          6    2    1    2  502    0  0.37430610148E+03 -0.28679785525E+03  0.11179827344E+03  0.51444615814E+03  0.17262076438E+03 0.  0.
         24    2    3    3    0    0  0.27667634730E+03 -0.16785116554E+03  0.16666451658E+02  0.33347091836E+03  0.78748129221E+02 0.  0.
         -6    2    1    2    0  501 -0.37430610148E+03  0.28679785525E+03  0.13914748396E+04  0.14793013455E+04  0.17254615070E+03 0.  0.
        -24    2    5    5    0    0 -0.27923269724E+03  0.27372802070E+03  0.10051261442E+04  0.10811843059E+04  0.76046098175E+02 0.  0.
          5    1    3    3  502    0  0.97629754178E+02 -0.11894668972E+03  0.95131821782E+02  0.18097523977E+03  0.47000000000E+01 0. -1.
        -11    1    4    4    0    0  0.12380798921E+03 -0.11646486180E+03  0.25866587755E+02  0.17193476260E+03  0.00000000000E+00 0.  1.
         12    1    4    4    0    0  0.15286835809E+03 -0.51386303738E+02 -0.92001360965E+01  0.16153615577E+03  0.00000000000E+00 0. -1.
         -5    1    5    5    0  501 -0.95073404239E+02  0.13069834556E+02  0.38634869536E+03  0.39811703954E+03  0.47000000000E+01 0.  1.
         13    1    6    6    0    0 -0.23553363575E+03  0.19682817965E+03  0.72127302562E+03  0.78387001688E+03  0.00000000000E+00 0. -1.
        -14    1    6    6    0    0 -0.43699061486E+02  0.76899841045E+02  0.28385311860E+03  0.29731428904E+03  0.00000000000E+00 0.  1.
</event>
<event>
12    1  0.1081556E+000  0.1144162E+04  0.7818608E-02  0.9163187E-01
         -2   -1    0    0    0  501 -0.00000000000E+00  0.00000000000E+00  0.78657933173E+03  0.78657933173E+03  0.00000000000E+00 0.  1.
          2   -1    0    0  502    0  0.00000000000E+00 -0.00000000000E+00 -0.21797844342E+04  0.21797844342E+04  0.00000000000E+00 0. -1.
          6    2    1    2  502    0  0.60028300343E+03  0.95863022688E+03 -0.14179802605E+04  0.18221781292E+04  0.17422261431E+03 0.  0.
         24    2    3    3    0    0  0.42695528070E+03  0.73838873878E+03 -0.11532062584E+04  0.14365926332E+04  0.80031107008E+02 0.  0.
         -6    2    1    2    0  501 -0.60028300343E+03 -0.95863022688E+03  0.24775158026E+02  0.11441856367E+04  0.17098352766E+03 0.  0.
        -24    2    5    5    0    0 -0.48962863228E+03 -0.71471538923E+03 -0.31007962347E+02  0.87055690212E+03  0.79709102064E+02 0.  0.
          5    1    3    3  502    0  0.17332772273E+03  0.22024148810E+03 -0.26477400209E+03  0.38558549600E+03  0.47000000000E+01 0. -1.
        -11    1    4    4    0    0  0.41177601188E+03  0.66974189762E+03 -0.10664430690E+04  0.13249205685E+04  0.00000000000E+00 0.  1.
         12    1    4    4    0    0  0.15179268827E+02  0.68646841158E+02 -0.86763189395E+02  0.11167206471E+03  0.00000000000E+00 0. -1.
         -5    1    5    5    0  501 -0.11065437115E+03 -0.24391483765E+03  0.55783120373E+02  0.27362873460E+03  0.47000000000E+01 0.  1.
         13    1    6    6    0    0 -0.20468509162E+03 -0.32437335695E+03  0.23144984386E+02  0.38425219808E+03  0.00000000000E+00 0. -1.
        -14    1    6    6    0    0 -0.28494354067E+03 -0.39034203228E+03 -0.54152946733E+02  0.48630470404E+03  0.00000000000E+00 0.  1.
</event>
<event>
12    1  0.1081556E+000  0.1151756E+04  0.7818608E-02  0.9156165E-01
         -1   -1    0    0    0  501 -0.00000000000E+00  0.00000000000E+00  0.80842825472E+03  0.80842825472E+03  0.00000000000E+00 0.  1.
          1   -1    0    0  502    0  0.00000000000E+00 -0.00000000000E+00 -0.24004895908E+04  0.24004895908E+04  0.00000000000E+00 0. -1.
          6    2    1    2  502    0 -0.82278963540E+03  0.78731079016E+03  0.10653068403E+03  0.11566483075E+04  0.17217855875E+03 0.  0.
         24    2    3    3    0    0 -0.81149050134E+03  0.74412050800E+03  0.85887260453E+02  0.11072386744E+04  0.79804112461E+02 0.  0.
         -6    2    1    2    0  501  0.82278963540E+03 -0.78731079016E+03 -0.16985920201E+04  0.20522695380E+04  0.17249446819E+03 0.  0.
        -24    2    5    5    0    0  0.71677357978E+03 -0.62018740452E+03 -0.13512311016E+04  0.16524554215E+04  0.79916510914E+02 0.  0.
          5    1    3    3  502    0 -0.11299134065E+02  0.43190282163E+02  0.20643423580E+02  0.49409633079E+02  0.47000000000E+01 0. -1.
        -11    1    4    4    0    0 -0.27631000597E+03  0.24483963966E+03  0.66138591648E+02  0.37505730475E+03  0.00000000000E+00 0.  1.
         12    1    4    4    0    0 -0.53518049537E+03  0.49928086835E+03  0.19748668805E+02  0.73218136964E+03  0.00000000000E+00 0. -1.
         -5    1    5    5    0  501  0.10601605562E+03 -0.16712338565E+03 -0.34736091848E+03  0.39981411652E+03  0.47000000000E+01 0.  1.
         13    1    6    6    0    0  0.39088424549E+03 -0.35958436292E+03 -0.81917937602E+03  0.97629209642E+03  0.00000000000E+00 0. -1.
        -14    1    6    6    0    0  0.32588933429E+03 -0.26060304160E+03 -0.53205172559E+03  0.67616332509E+03  0.00000000000E+00 0.  1.
</event>
<event>
12    1  0.1081556E+000  0.2171900E+03  0.7818608E-02  0.1135995E+00
          1   -1    0    0  502    0  0.00000000000E+00  0.00000000000E+00  0.28000439764E+04  0.28000439764E+04  0.00000000000E+00 0. -1.
         -1   -1    0    0    0  501 -0.00000000000E+00 -0.00000000000E+00 -0.27863657547E+03  0.27863657547E+03  0.00000000000E+00 0.  1.
          6    2    1    2  502    0  0.92164943947E+02 -0.96911949932E+02 -0.23116272228E+03  0.31760257833E+03  0.17189790765E+03 0.  0.
         24    2    3    3    0    0 -0.19831244143E+01 -0.78912141271E+01 -0.51003692478E+02  0.95638806058E+02  0.80493481319E+02 0.  0.
         -6    2    1    2    0  501 -0.92164943947E+02  0.96911949932E+02  0.27525701232E+04  0.27610779736E+04  0.17036135093E+03 0.  0.
        -24    2    5    5    0    0 -0.10384270316E+03  0.12784518633E+03  0.23545296793E+04  0.23616389668E+04  0.80005623779E+02 0.  0.
          5    1    3    3  502    0  0.94148068361E+02 -0.89020735805E+02 -0.18015902981E+03  0.22196377227E+03  0.47000000000E+01 0. -1.
        -11    1    4    4    0    0 -0.16200391321E+02 -0.40920855599E+02 -0.35216419381E+02  0.56366348968E+02  0.00000000000E+00 0.  1.
         12    1    4    4    0    0  0.14217266906E+02  0.33029641472E+02 -0.15787273097E+02  0.39272457090E+02  0.00000000000E+00 0. -1.
         -5    1    5    5    0  501  0.11677759212E+02 -0.30933236401E+02  0.39804044390E+03  0.39943900680E+03  0.47000000000E+01 0.  1.
         13    1    6    6    0    0 -0.10038222138E+03  0.91653029943E+02  0.21152362429E+04  0.21195993092E+04  0.00000000000E+00 0. -1.
        -14    1    6    6    0    0 -0.34604817840E+01  0.36192156390E+02  0.23929343641E+03  0.24203965756E+03  0.00000000000E+00 0.  1.
</event>
<event>
12    1  0.1081556E+000  0.8217750E+03  0.7818608E-02  0.9529023E-01
         -1   -1    0    0    0  501 -0.00000000000E+00  0.00000000000E+00  0.38039832424E+03  0.38039832424E+03  0.00000000000E+00 0.  1.
          1   -1    0    0  502    0  0.00000000000E+00 -0.00000000000E+00 -0.18620201834E+04  0.18620201834E+04  0.00000000000E+00 0. -1.
          6    2    1    2  502    0  0.61511190193E+03  0.51693209755E+03 -0.49902811574E+03  0.96163539697E+03  0.17358609111E+03 0.  0.
         24    2    3    3    0    0  0.47118267553E+03  0.31406366604E+03 -0.37287610450E+03  0.68269518356E+03  0.79918860750E+02 0.  0.
         -6    2    1    2    0  501 -0.61511190193E+03 -0.51693209755E+03 -0.98259374338E+03  0.12807831106E+04  0.17127015672E+03 0.  0.
        -24    2    5    5    0    0 -0.35914286164E+03 -0.38768434910E+03 -0.67660687274E+03  0.86140835571E+03  0.70318883959E+02 0.  0.
          5    1    3    3  502    0  0.14392922640E+03  0.20286843151E+03 -0.12615201124E+03  0.27894021341E+03  0.47000000000E+01 0. -1.
        -13    1    4    4    0    0  0.20482496589E+03  0.17499499443E+03 -0.14790867748E+03  0.30733286775E+03  0.00000000000E+00 0.  1.
         14    1    4    4    0    0  0.26635770964E+03  0.13906867161E+03 -0.22496742702E+03  0.37536231580E+03  0.00000000000E+00 0. -1.
         -5    1    5    5    0  501 -0.25596904028E+03 -0.12924774845E+03 -0.30598687063E+03  0.41937475492E+03  0.47000000000E+01 0.  1.
         11    1    6    6    0    0 -0.89946604262E+02 -0.99590631591E+02 -0.22420937416E+03  0.26130160539E+03  0.00000000000E+00 0. -1.
        -12    1    6    6    0    0 -0.26919625738E+03 -0.28809371751E+03 -0.45239749858E+03  0.60010675032E+03  0.00000000000E+00 0.  1.
</event>
<event>
12    1  0.1081556E+000  0.3094987E+03  0.7818608E-02  0.1080586E+00
         -2   -1    0    0    0  501 -0.00000000000E+00  0.00000000000E+00  0.72127904735E+02  0.72127904735E+02  0.00000000000E+00 0.  1.
          2   -1    0    0  502    0  0.00000000000E+00 -0.00000000000E+00 -0.15847865559E+04  0.15847865559E+04  0.00000000000E+00 0. -1.
          6    2    1    2  502    0 -0.21150371009E+03  0.14591842192E+03 -0.42188469226E+03  0.52294814063E+03  0.17164515427E+03 0.  0.
         24    2    3    3    0    0 -0.41472535097E+02  0.31593812121E+02 -0.19632513007E+03  0.21818606463E+03  0.79645853422E+02 0.  0.
         -6    2    1    2    0  501  0.21150371009E+03 -0.14591842192E+03 -0.10907739589E+04  0.11339663200E+04  0.17339486803E+03 0.  0.
        -24    2    5    5    0    0  0.14368582627E+03 -0.34625915193E+02 -0.75976648737E+03  0.77819487142E+03  0.80607517673E+02 0.  0.
          5    1    3    3  502    0 -0.17003117499E+03  0.11432460980E+03 -0.22555956219E+03  0.30476207600E+03  0.47000000000E+01 0. -1.
        -11    1    4    4    0    0 -0.65140878154E+02  0.21047271967E+02 -0.12884268890E+03  0.14589982915E+03  0.00000000000E+00 0.  1.
         12    1    4    4    0    0  0.23668343056E+02  0.10546540155E+02 -0.67482441176E+02  0.72286235476E+02  0.00000000000E+00 0. -1.
         -5    1    5    5    0  501  0.67817883817E+02 -0.11129250672E+03 -0.33100747154E+03  0.35577144859E+03  0.47000000000E+01 0.  1.
         11    1    6    6    0    0  0.12784631912E+03 -0.48138555391E+02 -0.72428834953E+03  0.73705875960E+03  0.00000000000E+00 0. -1.
        -12    1    6    6    0    0  0.15839507149E+02  0.13512640199E+02 -0.35478137833E+02  0.41136111823E+02  0.00000000000E+00 0.  1.
</event>
<event>
12    1  0.1081556E+000  0.5806477E+03  0.7818608E-02  0.9946390E-01
          2   -1    0    0  502    0  0.00000000000E+00  0.00000000000E+00  0.52616723378E+03  0.52616723378E+03  0.00000000000E+00 0. -1.
         -2   -1    0    0    0  501 -0.00000000000E+00 -0.00000000000E+00 -0.67470256177E+03  0.67470256177E+03  0.00000000000E+00 0.  1.
          6    2    1    2  502    0 -0.54938364411E+03 -0.80512192431E+02 -0.20888085882E+03  0.61675443568E+03  0.16867192772E+03 0.  0.
         24    2    3    3    0    0 -0.31230130522E+03 -0.94568194177E+02 -0.77310853033E+02  0.34520634965E+03  0.81946368162E+02 0.  0.
         -6    2    1    2    0  501  0.54938364411E+03  0.80512192431E+02  0.60345530832E+02  0.58411535988E+03  0.17101043538E+03 0.  0.
        -24    2    5    5    0    0  0.53206639018E+03  0.54385814825E+02  0.80690707702E+02  0.54645249870E+03  0.77761704007E+02 0.  0.
          5    1    3    3  502    0 -0.23708233889E+03  0.14056001746E+02 -0.13157000579E+03  0.27154808602E+03  0.47000000000E+01 0. -1.
        -11    1    4    4    0    0 -0.22215186101E+03 -0.30301260338E+02 -0.67049495377E+02  0.23401976532E+03  0.00000000000E+00 0.  1.
         12    1    4    4    0    0 -0.90149444207E+02 -0.64266933839E+02 -0.10261357656E+02  0.11118658434E+03  0.00000000000E+00 0. -1.
         -5    1    5    5    0  501  0.17317253930E+02  0.26126377606E+02 -0.20345176870E+02  0.37662861181E+02  0.47000000000E+01 0.  1.
         11    1    6    6    0    0  0.28769656329E+03  0.54702621478E+02  0.73700369064E+02  0.30198250566E+03  0.00000000000E+00 0. -1.
        -12    1    6    6    0    0  0.24436982689E+03 -0.31680665304E+00  0.69903386382E+01  0.24446999304E+03  0.00000000000E+00 0.  1.
</event>
<event>
12    1  0.1081556E+000  0.3110462E+03  0.7818608E-02  0.1079845E+00
         -1   -1    0    0    0  501 -0.00000000000E+00  0.00000000000E+00  0.99030000025E+02  0.99030000025E+02  0.00000000000E+00 0.  1.
          1   -1    0    0  502    0  0.00000000000E+00 -0.00000000000E+00 -0.13727083167E+04  0.13727083167E+04  0.00000000000E+00 0. -1.
          6    2    1    2  502    0 -0.25159163030E+03 -0.41805898058E+02 -0.24095974831E+03  0.39304046279E+03  0.17712459889E+03 0.  0.
         24    2    3    3    0    0 -0.60007469876E+02  0.24740035892E+01 -0.14340824119E+02  0.92968093152E+02  0.69501006995E+02 0.  0.
         -6    2    1    2    0  501  0.25159163030E+03  0.41805898058E+02 -0.10327185684E+04  0.10786978540E+04  0.17898418116E+03 0.  0.
        -24    2    5    5    0    0  0.18931399025E+03 -0.27627258212E+02 -0.82870420954E+03  0.85432446816E+03  0.80725322506E+02 0.  0.
          5    1    3    3  502    0 -0.19158416042E+03 -0.44279901648E+02 -0.22661892419E+03  0.30007236963E+03  0.47000000000E+01 0. -1.
        -11    1    4    4    0    0 -0.27382518211E+02  0.35165889099E+02 -0.14216407571E+02  0.46781922833E+02  0.00000000000E+00 0.  1.
         12    1    4    4    0    0 -0.32624951665E+02 -0.32691885510E+02 -0.12441654784E+00  0.46186170320E+02  0.00000000000E+00 0. -1.
         -5    1    5    5    0  501  0.62277640050E+02  0.69433156271E+02 -0.20401435886E+03  0.22437338581E+03  0.47000000000E+01 0.  1.
         11    1    6    6    0    0  0.19273365000E+03 -0.34021069388E+02 -0.81981791782E+03  0.84285533242E+03  0.00000000000E+00 0. -1.
        -12    1    6    6    0    0 -0.34196597558E+01  0.63938111760E+01 -0.88862917141E+01  0.11469135740E+02  0.00000000000E+00 0.  1.
</event>
<event>
12    1  0.1081556E+000  0.2267981E+03  0.7818608E-02  0.1128914E+00
         -4   -1    0    0    0  501 -0.00000000000E+00  0.00000000000E+00  0.41247228592E+02  0.41247228592E+02  0.00000000000E+00 0.  1.
          4   -1    0    0  502    0  0.00000000000E+00 -0.00000000000E+00 -0.16669237660E+04  0.16669237660E+04  0.00000000000E+00 0. -1.
          6    2    1    2  502    0  0.14896809920E+02  0.14427798824E+03 -0.38288524140E+03  0.44476719355E+03  0.17372016446E+03 0.  0.
         24    2    3    3    0    0 -0.29230599823E+02  0.42581979528E+02 -0.95733620559E+02  0.13692397074E+03  0.83160054785E+02 0.  0.
         -6    2    1    2    0  501 -0.14896809920E+02 -0.14427798824E+03 -0.12427912960E+04  0.12634038010E+04  0.17498830307E+03 0.  0.
        -24    2    5    5    0    0  0.13718397893E+02 -0.76682558158E+02 -0.10568641729E+04  0.10634564145E+04  0.88934000033E+02 0.  0.
          5    1    3    3  502    0  0.44127409743E+02  0.10169600871E+03 -0.28715162084E+03  0.30784322281E+03  0.47000000000E+01 0. -1.
        -11    1    4    4    0    0 -0.38747129679E+02  0.63416118254E+02 -0.79651626426E+02  0.10893725582E+03  0.00000000000E+00 0.  1.
         12    1    4    4    0    0  0.95165298561E+01 -0.20834138726E+02 -0.16081994134E+02  0.27986714925E+02  0.00000000000E+00 0. -1.
         -5    1    5    5    0  501 -0.28615207814E+02 -0.67595430082E+02 -0.18592712308E+03  0.19994738654E+03  0.47000000000E+01 0.  1.
         11    1    6    6    0    0 -0.10563723206E+02  0.15454654932E+02 -0.91114528314E+02  0.93017718080E+02  0.00000000000E+00 0. -1.
        -12    1    6    6    0    0  0.24282121100E+02 -0.92137213091E+02 -0.96574964462E+03  0.97043869643E+03  0.00000000000E+00 0.  1.
</event>
<event>
12    1  0.1081556E+000  0.7787918E+03  0.7818608E-02  0.9591233E-01
         -2   -1    0    0    0  501 -0.00000000000E+00  0.00000000000E+00  0.86019009367E+03  0.86019009367E+03  0.00000000000E+00 0.  1.
          2   -1    0    0  502    0  0.00000000000E+00 -0.00000000000E+00 -0.70509729159E+03  0.70509729159E+03  0.00000000000E+00 0. -1.
          6    2    1    2  502    0  0.58477766200E+03 -0.48373262725E+03  0.76792740336E+02  0.78182516126E+03  0.17143887882E+03 0.  0.
         24    2    3    3    0    0  0.49165409576E+03 -0.45480065010E+03  0.99569083530E+02  0.68157592336E+03  0.77873973165E+02 0.  0.
         -6    2    1    2    0  501 -0.58477766200E+03  0.48373262725E+03  0.78300061736E+02  0.78346222400E+03  0.17810106152E+03 0.  0.
        -24    2    5    5    0    0 -0.33640587022E+03  0.26737443327E+03 -0.34941939229E+02  0.43511576451E+03  0.58709388688E+02 0.  0.
          5    1    3    3  502    0  0.93123566242E+02 -0.28931977154E+02 -0.22776343194E+02  0.10024923791E+03  0.47000000000E+01 0. -1.
        -13    1    4    4    0    0  0.42480804280E+02 -0.61460507680E+02  0.29890044239E+02  0.80470040892E+02  0.00000000000E+00 0.  1.
         14    1    4    4    0    0  0.44917329148E+03 -0.39334014242E+03  0.69679039291E+02  0.60110588247E+03  0.00000000000E+00 0. -1.
         -5    1    5    5    0  501 -0.24837179179E+03  0.21635819398E+03  0.11324200097E+03  0.34834645949E+03  0.47000000000E+01 0.  1.
         13    1    6    6    0    0 -0.24992544227E+03  0.17439748927E+03 -0.56872596956E+01  0.30481068860E+03  0.00000000000E+00 0. -1.
        -14    1    6    6    0    0 -0.86480427943E+02  0.92976944003E+02 -0.29254679534E+02  0.13030507591E+03  0.00000000000E+00 0.  1.
</event>
<event>
12    1  0.1081556E+000  0.2824584E+03  0.7818608E-02  0.1094354E+00
         -2   -1    0    0    0  501 -0.00000000000E+00  0.00000000000E+00  0.42090788307E+03  0.42090788307E+03  0.00000000000E+00 0.  1.
          2   -1    0    0  502    0  0.00000000000E+00 -0.00000000000E+00 -0.80746335704E+03  0.80746335704E+03  0.00000000000E+00 0. -1.
          6    2    1    2  502    0 -0.27894296886E+02 -0.22349601820E+03  0.34391064331E+03  0.44540440255E+03  0.17141175362E+03 0.  0.
         24    2    3    3    0    0 -0.37086971143E+02 -0.22138026930E+03  0.35631449668E+03  0.42912781716E+03  0.82498459701E+02 0.  0.
         -6    2    1    2    0  501  0.27894296886E+02  0.22349601820E+03 -0.73046611729E+03  0.78296683756E+03  0.16949264961E+03 0.  0.
        -24    2    5    5    0    0  0.45625294168E+02  0.10932619516E+03 -0.24138722064E+03  0.28040401174E+03  0.79528203136E+02 0.  0.
          5    1    3    3  502    0  0.91926742574E+01 -0.21157488958E+01 -0.12403853371E+02  0.16276585386E+02  0.47000000000E+01 0. -1.
        -11    1    4    4    0    0  0.13217273300E+02 -0.15295434016E+03  0.24476195615E+03  0.28892584112E+03  0.00000000000E+00 0.  1.
         12    1    4    4    0    0 -0.50304244443E+02 -0.68425929139E+02  0.11155254053E+03  0.14020197605E+03  0.00000000000E+00 0. -1.
         -5    1    5    5    0  501 -0.17730997282E+02  0.11416982303E+03 -0.48907889665E+03  0.50256282582E+03  0.47000000000E+01 0.  1.
         13    1    6    6    0    0  0.29195452394E+02  0.95158427963E+02 -0.23860183462E+03  0.25853111290E+03  0.00000000000E+00 0. -1.
        -14    1    6    6    0    0  0.16429841774E+02  0.14167767200E+02 -0.27853860142E+01  0.21872898834E+02  0.00000000000E+00 0.  1.
</event>
<event>
12    1  0.1081556E+000  0.1232454E+04  0.7818608E-02  0.9084914E-01
          2   -1    0    0  502    0  0.00000000000E+00  0.00000000000E+00  0.31259430620E+04  0.31259430620E+04  0.00000000000E+00 0. -1.
         -2   -1    0    0    0  501 -0.00000000000E+00 -0.00000000000E+00 -0.13766294706E+04  0.13766294706E+04  0.00000000000E+00 0.  1.
          6    2    1    2  502    0 -0.12069011541E+04 -0.17590425869E+03 -0.93604956433E+03  0.15481955589E+04  0.18212083292E+03 0.  0.
         24    2    3    3    0    0 -0.83163782778E+03 -0.12563254482E+03 -0.73324908074E+03  0.11186610022E+04  0.79644274444E+02 0.  0.
         -6    2    1    2    0  501  0.12069011541E+04  0.17590425869E+03  0.26853631558E+04  0.29543769736E+04  0.17209102190E+03 0.  0.
        -24    2    5    5    0    0  0.11604030547E+04  0.17425857550E+03  0.24938683707E+04  0.27572548687E+04  0.78572643427E+02 0.  0.
          5    1    3    3  502    0 -0.37526332636E+03 -0.50271713867E+02 -0.20280048358E+03  0.42953455678E+03  0.47000000000E+01 0. -1.
        -11    1    4    4    0    0 -0.28827457537E+03 -0.60130197371E+01 -0.25943222707E+03  0.38787042637E+03  0.00000000000E+00 0.  1.
         12    1    4    4    0    0 -0.54336325241E+03 -0.11961952508E+03 -0.47381685368E+03  0.73079057580E+03  0.00000000000E+00 0. -1.
         -5    1    5    5    0  501  0.46498099430E+02  0.16456831898E+01  0.19149478511E+03  0.19712210492E+03  0.47000000000E+01 0.  1.
         13    1    6    6    0    0  0.99482095873E+03  0.15541770164E+03  0.20730188320E+04  0.23046107002E+04  0.00000000000E+00 0. -1.
        -14    1    6    6    0    0  0.16558209598E+03  0.18840873859E+02  0.42084953871E+03  0.45264416849E+03  0.00000000000E+00 0.  1.
</event>
<event>
12    1  0.1081556E+000  0.6460131E+03  0.7818608E-02  0.9814289E-01
         -2   -1    0    0    0  501 -0.00000000000E+00  0.00000000000E+00  0.27740314660E+03  0.27740314660E+03  0.00000000000E+00 0.  1.
          2   -1    0    0  502    0  0.00000000000E+00 -0.00000000000E+00 -0.16286663225E+04  0.16286663225E+04  0.00000000000E+00 0. -1.
          6    2    1    2  502    0 -0.17514709308E+03 -0.59823579365E+03 -0.93907192003E+03  0.11399483944E+04  0.17048079635E+03 0.  0.
         24    2    3    3    0    0 -0.15582673309E+03 -0.57621534528E+03 -0.82130815728E+03  0.10185047026E+04  0.80614174859E+02 0.  0.
         -6    2    1    2    0  501  0.17514709308E+03  0.59823579365E+03 -0.41219125586E+03  0.76612107468E+03  0.16875218710E+03 0.  0.
        -24    2    5    5    0    0  0.10016328077E+03  0.35160716497E+03 -0.31903499103E+03  0.49198893087E+03  0.81298839652E+02 0.  0.
          5    1    3    3  502    0 -0.19320359990E+02 -0.22020448365E+02 -0.11776376275E+03  0.12144369178E+03  0.47000000000E+01 0. -1.
        -11    1    4    4    0    0 -0.12875314727E+03 -0.35020240298E+03 -0.47377869579E+03  0.60306330395E+03  0.00000000000E+00 0.  1.
         12    1    4    4    0    0 -0.27073585813E+02 -0.22601294230E+03 -0.34752946149E+03  0.41544139869E+03  0.00000000000E+00 0. -1.
         -5    1    5    5    0  501  0.74983812302E+02  0.24662862868E+03 -0.93156264828E+02  0.27413214381E+03  0.47000000000E+01 0.  1.
         11    1    6    6    0    0  0.52543369264E+02  0.63885809099E+02 -0.64371412769E+02  0.10481355370E+03  0.00000000000E+00 0. -1.
        -12    1    6    6    0    0  0.47619911510E+02  0.28772135587E+03 -0.25466357826E+03  0.38717537717E+03  0.00000000000E+00 0.  1.
</event>
<event>
12    1  0.1081556E+000  0.1075957E+04  0.7818608E-02  0.9228948E-01
          2   -1    0    0  502    0  0.00000000000E+00  0.00000000000E+00  0.98713656924E+03  0.98713656924E+03  0.00000000000E+00 0. -1.
         -2   -1    0    0    0  501 -0.00000000000E+00 -0.00000000000E+00 -0.11802517388E+04  0.11802517388E+04  0.00000000000E+00 0.  1.
          6    2    1    2  502    0  0.57236963152E+03  0.89476806997E+03 -0.18283344861E+03  0.10912252309E+04  0.17066792491E+03 0.  0.
         24    2    3    3    0    0  0.58068985127E+03  0.88114308787E+03 -0.18527552926E+03  0.10744050065E+04  0.80032815179E+02 0.  0.
         -6    2    1    2    0  501 -0.57236963152E+03 -0.89476806997E+03 -0.10281720951E+02  0.10761630771E+04  0.17263939468E+03 0.  0.
        -24    2    5    5    0    0 -0.39502380837E+03 -0.56187092823E+03  0.53277746413E+02  0.69362687768E+03  0.80851580178E+02 0.  0.
          5    1    3    3  502    0 -0.83202197416E+01  0.13624982098E+02  0.24420806474E+01  0.16820224482E+02  0.47000000000E+01 0. -1.
        -11    1    4    4    0    0  0.40052051506E+03  0.56478723520E+03 -0.15157716111E+03  0.70878553866E+03  0.00000000000E+00 0.  1.
         12    1    4    4    0    0  0.18016933620E+03  0.31635585267E+03 -0.33698368144E+02  0.36561946781E+03  0.00000000000E+00 0. -1.
         -5    1    5    5    0  501 -0.17734582315E+03 -0.33289714175E+03 -0.63559467364E+02  0.38253619942E+03  0.47000000000E+01 0.  1.
         13    1    6    6    0    0 -0.18124945524E+03 -0.28596311730E+03  0.63382590695E+02  0.34444683521E+03  0.00000000000E+00 0. -1.
        -14    1    6    6    0    0 -0.21377435313E+03 -0.27590781092E+03 -0.10104844282E+02  0.34918004247E+03  0.00000000000E+00 0.  1.
</event>
<event>
12    1  0.1081556E+000  0.2288720E+03  0.7818608E-02  0.1127436E+00
          2   -1    0    0  502    0  0.00000000000E+00  0.00000000000E+00  0.62025509049E+03  0.62025509049E+03  0.00000000000E+00 0. -1.
         -2   -1    0    0    0  501 -0.00000000000E+00 -0.00000000000E+00 -0.10551854934E+03  0.10551854934E+03  0.00000000000E+00 0.  1.
          6    2    1    2  502    0 -0.11425365535E+02  0.14577719703E+03  0.91692960972E+02  0.24282313202E+03  0.17080381788E+03 0.  0.
         24    2    3    3    0    0  0.44281586188E+02  0.26933999218E+02  0.51841890019E+02  0.10557456922E+03  0.75974396444E+02 0.  0.
         -6    2    1    2    0  501  0.11425365535E+02 -0.14577719703E+03  0.42304358018E+03  0.48295050781E+03  0.18136645807E+03 0.  0.
        -24    2    5    5    0    0  0.29713714677E+02 -0.73475973761E+01  0.22679662761E+03  0.24205182751E+03  0.78838346514E+02 0.  0.
          5    1    3    3  502    0 -0.55706951723E+02  0.11884319781E+03  0.39851070953E+02  0.13724856281E+03  0.47000000000E+01 0. -1.
        -11    1    4    4    0    0 -0.17235353755E+02  0.92071942925E+01 -0.47699210533E+01  0.20114223641E+02  0.00000000000E+00 0.  1.
         12    1    4    4    0    0  0.61516939943E+02  0.17726804925E+02  0.56611811072E+02  0.85460345575E+02  0.00000000000E+00 0. -1.
         -5    1    5    5    0  501 -0.18288349142E+02 -0.13842959966E+03  0.19624695257E+03  0.24089868030E+03  0.47000000000E+01 0.  1.
         11    1    6    6    0    0  0.45769582825E+02 -0.31428943102E+02  0.15477331987E+03  0.16443057416E+03  0.00000000000E+00 0. -1.
        -12    1    6    6    0    0 -0.16055868148E+02  0.24081345726E+02  0.72023307738E+02  0.77621253349E+02  0.00000000000E+00 0.  1.
</event>
<event>
12    1  0.1081556E+000  0.2735161E+03  0.7818608E-02  0.1099284E+00
          2   -1    0    0  502    0  0.00000000000E+00  0.00000000000E+00  0.11313002594E+04  0.11313002594E+04  0.00000000000E+00 0. -1.
         -2   -1    0    0    0  501 -0.00000000000E+00 -0.00000000000E+00 -0.25926778776E+03  0.25926778776E+03  0.00000000000E+00 0.  1.
          6    2    1    2  502    0 -0.15260910042E+03  0.14817733077E+03 -0.16410407054E+03  0.31892553272E+03  0.17186416314E+03 0.  0.
         24    2    3    3    0    0 -0.90524055104E+02  0.44429466995E+02 -0.15249723344E+03  0.19737315407E+03  0.74378583266E+02 0.  0.
         -6    2    1    2    0  501  0.15260910042E+03 -0.14817733077E+03  0.10361365422E+04  0.10716425145E+04  0.17202524765E+03 0.  0.
        -24    2    5    5    0    0  0.12401673624E+03 -0.17812464718E+03  0.90870825526E+03  0.93757378820E+03  0.78647150839E+02 0.  0.
          5    1    3    3  502    0 -0.62085045313E+02  0.10374786378E+03 -0.11606837096E+02  0.12155237866E+03  0.47000000000E+01 0. -1.
        -13    1    4    4    0    0 -0.86170342544E+02  0.36978681071E+02 -0.76857746180E+02  0.12124299541E+03  0.00000000000E+00 0.  1.
         14    1    4    4    0    0 -0.43537125600E+01  0.74507859245E+01 -0.75639487262E+02  0.76130158658E+02  0.00000000000E+00 0. -1.
         -5    1    5    5    0  501  0.28592364173E+02  0.29947316409E+02  0.12742828696E+03  0.13406872628E+03  0.47000000000E+01 0.  1.
         13    1    6    6    0    0  0.73425265517E+02 -0.81675503347E+02  0.60592423595E+03  0.61579731826E+03  0.00000000000E+00 0. -1.
        -14    1    6    6    0    0  0.50591470727E+02 -0.96449143834E+02  0.30278401931E+03  0.32177646994E+03  0.00000000000E+00 0.  1.
</event>
<event>
12    1  0.1081556E+000  0.9039049E+03  0.7818608E-02  0.9420713E-01
          1   -1    0    0  502    0  0.00000000000E+00  0.00000000000E+00  0.56618197234E+03  0.56618197234E+03  0.00000000000E+00 0. -1.
         -1   -1    0    0    0  501 -0.00000000000E+00 -0.00000000000E+00 -0.15585094393E+04  0.15585094393E+04  0.00000000000E+00 0.  1.
          6    2    1    2  502    0  0.88316504254E+03 -0.84618368148E+02 -0.78538465235E+03  0.11975970393E+04  0.17397946915E+03 0.  0.
         24    2    3    3    0    0  0.73006517640E+03 -0.40891768725E+02 -0.57786839581E+03  0.93599300404E+03  0.86508509428E+02 0.  0.
         -6    2    1    2    0  501 -0.88316504254E+03  0.84618368148E+02 -0.20694281466E+03  0.92709437243E+03  0.17186589615E+03 0.  0.
        -24    2    5    5    0    0 -0.38773136926E+03  0.98312164167E+02 -0.94992021906E+02  0.41896337095E+03  0.80659318362E+02 0.  0.
          5    1    3    3  502    0  0.15309986614E+03 -0.43726599422E+02 -0.20751625654E+03  0.26160403521E+03  0.47000000000E+01 0. -1.
        -11    1    4    4    0    0  0.66049127593E+03 -0.58363966587E+02 -0.50265306580E+03  0.83205479551E+03  0.00000000000E+00 0.  1.
         12    1    4    4    0    0  0.69573900470E+02  0.17472197862E+02 -0.75215330006E+02  0.10393820853E+03  0.00000000000E+00 0. -1.
         -5    1    5    5    0  501 -0.49543367328E+03 -0.13693796020E+02 -0.11195079275E+03  0.50813100149E+03  0.47000000000E+01 0.  1.
         13    1    6    6    0    0 -0.31725267188E+03  0.78486151850E+02 -0.44054496407E+02  0.32977284986E+03  0.00000000000E+00 0. -1.
        -14    1    6    6    0    0 -0.70478697373E+02  0.19826012318E+02 -0.50937525499E+02  0.89190521087E+02  0.00000000000E+00 0.  1.
</event>
<event>
12    1  0.1081556E+000  0.4378294E+03  0.7818608E-02  0.1031415E+00
          2   -1    0    0  502    0  0.00000000000E+00  0.00000000000E+00  0.61734353729E+03  0.61734353729E+03  0.00000000000E+00 0. -1.
         -2   -1    0    0    0  501 -0.00000000000E+00 -0.00000000000E+00 -0.32945863119E+03  0.32945863119E+03  0.00000000000E+00 0.  1.
          6    2    1    2  502    0  0.21886017878E+03 -0.33821981099E+03  0.30401168128E+02  0.43880189924E+03  0.17126137147E+03 0.  0.
         24    2    3    3    0    0  0.17184197766E+03 -0.22832699457E+03  0.82705938879E+02  0.30824531618E+03  0.80697093435E+02 0.  0.
         -6    2    1    2    0  501 -0.21886017878E+03  0.33821981099E+03  0.25748373798E+03  0.50800026923E+03  0.17167987599E+03 0.  0.
        -24    2    5    5    0    0 -0.19270753843E+03  0.33993851388E+03  0.20384724423E+03  0.44811806822E+03  0.81004416538E+02 0.  0.
          5    1    3    3  502    0  0.47018201123E+02 -0.10989281642E+03 -0.52304770750E+02  0.13055658306E+03  0.47000000000E+01 0. -1.
        -11    1    4    4    0    0  0.11973998753E+02 -0.13101126588E+02 -0.14647935832E+02  0.23012565875E+02  0.00000000000E+00 0.  1.
         12    1    4    4    0    0  0.15986797890E+03 -0.21522586798E+03  0.97353874711E+02  0.28523275031E+03  0.00000000000E+00 0. -1.
         -5    1    5    5    0  501 -0.26152640348E+02 -0.17187028923E+01  0.53636493744E+02  0.59882201011E+02  0.47000000000E+01 0.  1.
         13    1    6    6    0    0 -0.84412457307E+02  0.85395334993E+02  0.84617014283E+02  0.14689406146E+03  0.00000000000E+00 0. -1.
        -14    1    6    6    0    0 -0.10829508112E+03  0.25454317889E+03  0.11923022995E+03  0.30122400676E+03  0.00000000000E+00 0.  1.
</event>
<event>
12    1  0.1081556E+000  0.2473441E+03  0.7818608E-02  0.1114995E+00
         -1   -1    0    0    0  501 -0.00000000000E+00  0.00000000000E+00  0.25488309409E+03  0.25488309409E+03  0.00000000000E+00 0.  1.
          1   -1    0    0  502    0  0.00000000000E+00 -0.00000000000E+00 -0.80672692745E+03  0.80672692745E+03  0.00000000000E+00 0. -1.
          6    2    1    2  502    0 -0.35621359639E+02 -0.17445130938E+03  0.16930697521E+03  0.29888047832E+03  0.17018386485E+03 0.  0.
         24    2    3    3    0    0 -0.30698286209E+02 -0.12842391955E+03  0.19349138312E+03  0.24644258312E+03  0.76550268093E+02 0.  0.
         -6    2    1    2    0  501  0.35621359639E+02  0.17445130938E+03 -0.72115080857E+03  0.76272954323E+03  0.17319274465E+03 0.  0.
        -24    2    5    5    0    0  0.21991949075E+02  0.20107055378E+03 -0.60005514745E+03  0.63790729302E+03  0.77113689336E+02 0.  0.
          5    1    3    3  502    0 -0.49230734299E+01 -0.46027389834E+02 -0.24184407909E+02  0.52437895198E+02  0.47000000000E+01 0. -1.
        -11    1    4    4    0    0 -0.16051077824E+02 -0.56655985208E+02  0.15026564646E+03  0.16139176641E+03  0.00000000000E+00 0.  1.
         12    1    4    4    0    0 -0.14647208385E+02 -0.71767934341E+02  0.43225736657E+02  0.85050816707E+02  0.00000000000E+00 0. -1.
         -5    1    5    5    0  501  0.13629410564E+02 -0.26619244399E+02 -0.12109566112E+03  0.12482225020E+03  0.47000000000E+01 0.  1.
         11    1    6    6    0    0 -0.21910045790E+02  0.10437336066E+03 -0.24251129186E+03  0.26492560315E+03  0.00000000000E+00 0. -1.
        -12    1    6    6    0    0  0.43901994866E+02  0.96697193119E+02 -0.35754385559E+03  0.37298168987E+03  0.00000000000E+00 0.  1.
</event>
<event>
12    1  0.1081556E+000  0.9502992E+03  0.7818608E-02  0.9364801E-01
         -2   -1    0    0    0  501 -0.00000000000E+00  0.00000000000E+00  0.12418847656E+04  0.12418847656E+04  0.00000000000E+00 0.  1.
          2   -1    0    0  502    0  0.00000000000E+00 -0.00000000000E+00 -0.94773983697E+03  0.94773983697E+03  0.00000000000E+00 0. -1.
          6    2    1    2  502    0  0.85233889876E+03 -0.38343496269E+03  0.67522594171E+03  0.11657423876E+04  0.17181755707E+03 0.  0.
         24    2    3    3    0    0  0.78813361889E+03 -0.30655690948E+03  0.59147255698E+03  0.10350929617E+04  0.80286448138E+02 0.  0.
         -6    2    1    2    0  501 -0.85233889876E+03  0.38343496269E+03 -0.38108101306E+03  0.10238822150E+04  0.17206999357E+03 0.  0.
        -24    2    5    5    0    0 -0.64485334755E+03  0.29742772414E+03 -0.22157887598E+03  0.74836357537E+03  0.81558271900E+02 0.  0.
          5    1    3    3  502    0  0.64205279875E+02 -0.76878053211E+02  0.83753384730E+02  0.13064942588E+03  0.47000000000E+01 0. -1.
        -11    1    4    4    0    0  0.38240764562E+03 -0.18816967664E+03  0.27727461924E+03  0.50845319265E+03  0.00000000000E+00 0.  1.
         12    1    4    4    0    0  0.40572597327E+03 -0.11838723284E+03  0.31419793774E+03  0.52663976907E+03  0.00000000000E+00 0. -1.
         -5    1    5    5    0  501 -0.20748555121E+03  0.86007238546E+02 -0.15950213708E+03  0.27551863962E+03  0.47000000000E+01 0.  1.
         13    1    6    6    0    0 -0.23903222253E+03  0.13748095766E+03 -0.11858019406E+03  0.30016442086E+03  0.00000000000E+00 0. -1.
        -14    1    6    6    0    0 -0.40582112503E+03  0.15994676648E+03 -0.10299868192E+03  0.44819915451E+03  0.00000000000E+00 0.  1.
</event>
<event>
12    1  0.1081556E+000  0.1028894E+04  0.7818608E-02  0.9277410E-01
          2   -1    0    0  502    0  0.00000000000E+00  0.00000000000E+00  0.34838871558E+04  0.34838871558E+04  0.00000000000E+00 0. -1.
         -2   -1    0    0    0  501 -0.00000000000E+00 -0.00000000000E+00 -0.35236848987E+03  0.35236848987E+03  0.00000000000E+00 0.  1.
          6    2    1    2  502    0  0.77550019650E+03  0.65579703587E+03  0.85555175656E+03  0.13389833817E+04  0.17157325311E+03 0.  0.
         24    2    3    3    0    0  0.66903148020E+03  0.56626422652E+03  0.79912238729E+03  0.11887899224E+04  0.79790938699E+02 0.  0.
         -6    2    1    2    0  501 -0.77550019650E+03 -0.65579703587E+03  0.22759669094E+04  0.24972722640E+04  0.15771201921E+03 0.  0.
        -24    2    5    5    0    0 -0.70760295309E+03 -0.56579637920E+03  0.19336749709E+04  0.21368613665E+04  0.79057730953E+02 0.  0.
          5    1    3    3  502    0  0.10646871630E+03  0.89532809346E+02  0.56429369264E+02  0.15019345930E+03  0.47000000000E+01 0. -1.
        -11    1    4    4    0    0  0.21821689792E+03  0.23451152966E+03  0.29793437997E+03  0.43746904673E+03  0.00000000000E+00 0.  1.
         12    1    4    4    0    0  0.45081458228E+03  0.33175269687E+03  0.50118800732E+03  0.75132087563E+03  0.00000000000E+00 0. -1.
         -5    1    5    5    0  501 -0.67897243403E+02 -0.90000656674E+02  0.34229193851E+03  0.36041089749E+03  0.47000000000E+01 0.  1.
         13    1    6    6    0    0 -0.33817608840E+03 -0.31990488490E+03  0.10091655006E+04  0.11113582724E+04  0.00000000000E+00 0. -1.
        -14    1    6    6    0    0 -0.36942686470E+03 -0.24589149430E+03  0.92450947028E+03  0.10255030941E+04  0.00000000000E+00 0.  1.
</event>
<event>
12    1  0.1081556E+000  0.5709451E+03  0.7818608E-02  0.9967589E-01
          1   -1    0    0  502    0  0.00000000000E+00  0.00000000000E+00  0.15699724029E+04  0.15699724029E+04  0.00000000000E+00 0. -1.
         -1   -1    0    0    0  501 -0.00000000000E+00 -0.00000000000E+00 -0.21856888869E+03  0.21856888869E+03  0.00000000000E+00 0.  1.
          6    2    1    2  502    0 -0.41658792411E+03 -0.35118914915E+03  0.87503200020E+03  0.10444855467E+04  0.16849254871E+03 0.  0.
         24    2    3    3    0    0 -0.25922903052E+03 -0.14877704886E+03  0.54693058679E+03  0.62806615812E+03  0.77457934885E+02 0.  0.
         -6    2    1    2    0  501  0.41658792411E+03  0.35118914915E+03  0.47637151401E+03  0.74405574486E+03  0.17265519135E+03 0.  0.
        -24    2    5    5    0    0  0.18024779960E+03  0.18860988265E+03  0.30782450574E+03  0.41131131388E+03  0.79737779618E+02 0.  0.
          5    1    3    3  502    0 -0.15735889358E+03 -0.20241210028E+03  0.32810141341E+03  0.41641938861E+03  0.47000000000E+01 0. -1.
        -13    1    4    4    0    0 -0.24113419832E+03 -0.11464575251E+03  0.44365913422E+03  0.51780573341E+03  0.00000000000E+00 0.  1.
         14    1    4    4    0    0 -0.18094832201E+02 -0.34131296352E+02  0.10327145256E+03  0.11026042471E+03  0.00000000000E+00 0. -1.
         -5    1    5    5    0  501  0.23634012451E+03  0.16257926650E+03  0.16854700827E+03  0.33274443098E+03  0.47000000000E+01 0.  1.
         11    1    6    6    0    0  0.63780912740E+02  0.23816507646E+02  0.10545808051E+03  0.12552544607E+03  0.00000000000E+00 0. -1.
        -12    1    6    6    0    0  0.11646688686E+03  0.16479337500E+03  0.20236642524E+03  0.28578586781E+03  0.00000000000E+00 0.  1.
</event>
<event>
12    1  0.1081556E+000  0.4443188E+03  0.7818608E-02  0.1029430E+00
         -2   -1    0    0    0  501 -0.00000000000E+00  0.00000000000E+00  0.21842082586E+03  0.21842082586E+03  0.00000000000E+00 0.  1.
          2   -1    0    0  502    0  0.00000000000E+00 -0.00000000000E+00 -0.18240388246E+04  0.18240388246E+04  0.00000000000E+00 0. -1.
          6    2    1    2  502    0  0.31159822244E+03 -0.25948562169E+03 -0.76671548506E+02  0.45001334920E+03  0.17946377912E+03 0.  0.
         24    2    3    3    0    0  0.25881147399E+03 -0.25397422934E+03 -0.10984210183E+03  0.38725036755E+03  0.80070416510E+02 0.  0.
         -6    2    1    2    0  501 -0.31159822244E+03  0.25948562169E+03 -0.15289464503E+04  0.15924463013E+04  0.18379808112E+03 0.  0.
        -24    2    5    5    0    0 -0.42003404892E+02  0.57043433719E+02 -0.41700186585E+03  0.43050522966E+03  0.80162068920E+02 0.  0.
          5    1    3    3  502    0  0.52786748446E+02 -0.55113923551E+01  0.33170553321E+02  0.62762981644E+02  0.47000000000E+01 0. -1.
        -13    1    4    4    0    0  0.13064675982E+03 -0.75401849762E+02 -0.56385403257E+02  0.16103828271E+03  0.00000000000E+00 0.  1.
         14    1    4    4    0    0  0.12816471417E+03 -0.17857237958E+03 -0.53456698569E+02  0.22621208484E+03  0.00000000000E+00 0. -1.
         -5    1    5    5    0  501 -0.26959481754E+03  0.20244218797E+03 -0.11119445844E+04  0.11619410716E+04  0.47000000000E+01 0.  1.
         13    1    6    6    0    0 -0.41357474419E+02  0.41866973924E+02 -0.40923463092E+03  0.41344439450E+03  0.00000000000E+00 0. -1.
        -14    1    6    6    0    0 -0.64593047317E+00  0.15176459795E+02 -0.77672349235E+01  0.17060835163E+02  0.00000000000E+00 0.  1.
</event>
<event>
12    1  0.1081556E+000  0.4259436E+03  0.7818608E-02  0.1035149E+00
          1   -1    0    0  502    0  0.00000000000E+00  0.00000000000E+00  0.64292176800E+03  0.64292176800E+03  0.00000000000E+00 0. -1.
         -1   -1    0    0    0  501 -0.00000000000E+00 -0.00000000000E+00 -0.30407228408E+03  0.30407228408E+03  0.00000000000E+00 0.  1.
          6    2    1    2  502    0  0.38919348210E+03  0.19046370553E+02  0.42408000194E+02  0.42803770857E+03  0.17199857772E+03 0.  0.
         24    2    3    3    0    0  0.21249619221E+03  0.72640520968E+02 -0.16435949898E+01  0.23815116810E+03  0.79259071870E+02 0.  0.
         -6    2    1    2    0  501 -0.38919348210E+03 -0.19046370553E+02  0.29644148373E+03  0.51895634351E+03  0.17205755562E+03 0.  0.
        -24    2    5    5    0    0 -0.14417208911E+03  0.43652271976E+02  0.14776899456E+03  0.22554161682E+03  0.79638138088E+02 0.  0.
          5    1    3    3  502    0  0.17669728989E+03 -0.53594150415E+02  0.44051595184E+02  0.18988654047E+03  0.47000000000E+01 0. -1.
        -13    1    4    4    0    0  0.93878360100E+02 -0.81083051007E+01 -0.75968220524E+01  0.94533606786E+02  0.00000000000E+00 0.  1.
         14    1    4    4    0    0  0.11861783211E+03  0.80748826069E+02  0.59532270626E+01  0.14361756132E+03  0.00000000000E+00 0. -1.
         -5    1    5    5    0  501 -0.24502139299E+03 -0.62698642529E+02  0.14867248917E+03  0.29341472668E+03  0.47000000000E+01 0.  1.
         11    1    6    6    0    0 -0.13280305013E+03  0.20960252331E+02  0.88212477915E+02  0.16080243643E+03  0.00000000000E+00 0. -1.
        -12    1    6    6    0    0 -0.11369038979E+02  0.22692019645E+02  0.59556516647E+02  0.64739180394E+02  0.00000000000E+00 0.  1.
</event>
<event>
12    1  0.1081556E+000  0.7405474E+03  0.7818608E-02  0.9650298E-01
         -2   -1    0    0    0  501 -0.00000000000E+00  0.00000000000E+00  0.19164150350E+04  0.19164150350E+04  0.00000000000E+00 0.  1.
          2   -1    0    0  502    0  0.00000000000E+00 -0.00000000000E+00 -0.88749472976E+03  0.88749472976E+03  0.00000000000E+00 0. -1.
          6    2    1    2  502    0 -0.35150689435E+03 -0.62801559401E+03  0.16683442386E+04  0.18250993050E+04  0.17220421508E+03 0.  0.
         24    2    3    3    0    0 -0.11816583100E+03 -0.15014027740E+03  0.44379429754E+03  0.49004967367E+03  0.81792650166E+02 0.  0.
         -6    2    1    2    0  501  0.35150689435E+03  0.62801559401E+03 -0.63942393335E+03  0.97881045972E+03  0.17676613481E+03 0.  0.
        -24    2    5    5    0    0  0.32788265237E+03  0.57772285862E+03 -0.52188210070E+03  0.84871189529E+03  0.81732607252E+02 0.  0.
          5    1    3    3  502    0 -0.23334106335E+03 -0.47787531661E+03  0.12245499410E+04  0.13350496313E+04  0.47000000000E+01 0. -1.
        -13    1    4    4    0    0 -0.99148339014E+02 -0.13518331714E+03  0.29505833048E+03  0.33935871986E+03  0.00000000000E+00 0.  1.
         14    1    4    4    0    0 -0.19017491986E+02 -0.14956960261E+02  0.14873596706E+03  0.15069095381E+03  0.00000000000E+00 0. -1.
         -5    1    5    5    0  501  0.23624241976E+02  0.50292735398E+02 -0.11754183265E+03  0.13009856443E+03  0.47000000000E+01 0.  1.
         13    1    6    6    0    0  0.20700067344E+03  0.32936568364E+03 -0.35068441878E+03  0.52374668871E+03  0.00000000000E+00 0. -1.
        -14    1    6    6    0    0  0.12088197893E+03  0.24835717498E+03 -0.17119768192E+03  0.32496520658E+03  0.00000000000E+00 0.  1.
</event>
<event>
12    1  0.1081556E+000  0.5762105E+03  0.7818608E-02  0.9956029E-01
         -2   -1    0    0    0  501 -0.00000000000E+00  0.00000000000E+00  0.29166330069E+03  0.29166330069E+03  0.00000000000E+00 0.  1.
          2   -1    0    0  502    0  0.00000000000E+00 -0.00000000000E+00 -0.14065069277E+04  0.14065069277E+04  0.00000000000E+00 0. -1.
          6    2    1    2  502    0  0.54956289925E+03 -0.16792223690E+02 -0.18664392480E+03  0.60563432822E+03  0.17220808879E+03 0.  0.
         24    2    3    3    0    0  0.39783662345E+03 -0.72699664850E+02 -0.10968821010E+03  0.42649534092E+03  0.79420099250E+02 0.  0.
         -6    2    1    2    0  501 -0.54956289925E+03  0.16792223690E+02 -0.92819970219E+03  0.10925359001E+04  0.17256490648E+03 0.  0.
        -24    2    5    5    0    0 -0.41786538529E+03  0.70986205923E+02 -0.65087242034E+03  0.78074472941E+03  0.79226910052E+02 0.  0.
          5    1    3    3  502    0  0.15172627580E+03  0.55907441161E+02 -0.76955714698E+02  0.17913898730E+03  0.47000000000E+01 0. -1.
        -13    1    4    4    0    0  0.14080371298E+03 -0.57848717255E+02 -0.63432368469E+02  0.16491156735E+03  0.00000000000E+00 0.  1.
         14    1    4    4    0    0  0.25703291048E+03 -0.14850947595E+02 -0.46255841634E+02  0.26158377357E+03  0.00000000000E+00 0. -1.
         -5    1    5    5    0  501 -0.13169751396E+03 -0.54193982233E+02 -0.27732728185E+03  0.31179117074E+03  0.47000000000E+01 0.  1.
         11    1    6    6    0    0 -0.32018282557E+03  0.73390069882E+02 -0.54763778994E+03  0.63860026081E+03  0.00000000000E+00 0. -1.
        -12    1    6    6    0    0 -0.97682559723E+02 -0.24038639597E+01 -0.10323463041E+03  0.14214446859E+03  0.00000000000E+00 0.  1.
</event>
<event>
12    1  0.1081556E+000  0.9445745E+03  0.7818608E-02  0.9371515E-01
         -2   -1    0    0    0  501 -0.00000000000E+00  0.00000000000E+00  0.77532085564E+03  0.77532085564E+03  0.00000000000E+00 0.  1.
          2   -1    0    0  502    0  0.00000000000E+00 -0.00000000000E+00 -0.16942941041E+04  0.16942941041E+04  0.00000000000E+00 0. -1.
          6    2    1    2  502    0 -0.69298605248E+03 -0.61842340682E+03  0.23984486319E+03  0.97468451162E+03  0.17264750148E+03 0.  0.
         24    2    3    3    0    0 -0.64169115284E+03 -0.51313713579E+03  0.18849093895E+03  0.84671701133E+03  0.79521113265E+02 0.  0.
         -6    2    1    2    0  501  0.69298605248E+03  0.61842340682E+03 -0.11588181116E+04  0.14949304481E+04  0.17111531133E+03 0.  0.
        -24    2    5    5    0    0  0.22067337875E+03  0.26238896291E+03 -0.40368003020E+03  0.53571441454E+03  0.80546006801E+02 0.  0.
          5    1    3    3  502    0 -0.51294899645E+02 -0.10528627103E+03  0.51353924235E+02  0.12796750029E+03  0.47000000000E+01 0. -1.
        -11    1    4    4    0    0 -0.62396937266E+02 -0.82783014758E+02  0.29049000557E+02  0.10765802221E+03  0.00000000000E+00 0.  1.
         12    1    4    4    0    0 -0.57929421557E+03 -0.43035412103E+03  0.15944193839E+03  0.73905898912E+03  0.00000000000E+00 0. -1.
         -5    1    5    5    0  501  0.47231267374E+03  0.35603444390E+03 -0.75513808142E+03  0.95921603356E+03  0.47000000000E+01 0.  1.
         11    1    6    6    0    0  0.19317765901E+03  0.20026726226E+03 -0.35979702512E+03  0.45483896443E+03  0.00000000000E+00 0. -1.
        -12    1    6    6    0    0  0.27495719737E+02  0.62121700650E+02 -0.43883005083E+02  0.80875450111E+02  0.00000000000E+00 0.  1.
</event>
<event>
12    1  0.1081556E+000  0.5208071E+03  0.7818608E-02  0.1008486E+00
         -2   -1    0    0    0  501 -0.00000000000E+00  0.00000000000E+00  0.16701128805E+03  0.16701128805E+03  0.00000000000E+00 0.  1.
          2   -1    0    0  502    0  0.00000000000E+00 -0.00000000000E+00 -0.24983781330E+04  0.24983781330E+04  0.00000000000E+00 0. -1.
          6    2    1    2  502    0  0.20108792927E+03  0.44874842876E+03 -0.37644210526E+03  0.64212594009E+03  0.16972199831E+03 0.  0.
         24    2    3    3    0    0  0.43095813556E+02  0.10418746456E+03 -0.12864996067E+03  0.18923875370E+03  0.80921051666E+02 0.  0.
         -6    2    1    2    0  501 -0.20108792927E+03 -0.44874842876E+03 -0.19549247397E+04  0.20232634810E+04  0.17335763010E+03 0.  0.
        -24    2    5    5    0    0 -0.22261931401E+03 -0.43498825129E+03 -0.18710974603E+04  0.19355021809E+04  0.79930274120E+02 0.  0.
          5    1    3    3  502    0  0.15799211572E+03  0.34456096420E+03 -0.24779214459E+03  0.45288718639E+03  0.47000000000E+01 0. -1.
        -13    1    4    4    0    0  0.34469834548E+02  0.84570122847E+02 -0.42987886528E+02  0.10093678002E+03  0.00000000000E+00 0.  1.
         14    1    4    4    0    0  0.86259790078E+01  0.19617341716E+02 -0.85662074138E+02  0.88301973678E+02  0.00000000000E+00 0. -1.
         -5    1    5    5    0  501  0.21531384733E+02 -0.13760177474E+02 -0.83827279417E+02  0.87761300054E+02  0.47000000000E+01 0.  1.
         11    1    6    6    0    0 -0.15782194748E+03 -0.22343647362E+03 -0.10695774821E+04  0.11040052604E+04  0.00000000000E+00 0. -1.
        -12    1    6    6    0    0 -0.64797366529E+02 -0.21155177767E+03 -0.80151997824E+03  0.83149692053E+03  0.00000000000E+00 0.  1.
</event>
<event>
12    1  0.1081556E+000  0.2081405E+03  0.7818608E-02  0.1143047E+00
         -2   -1    0    0    0  501 -0.00000000000E+00  0.00000000000E+00  0.21491851444E+02  0.21491851444E+02  0.00000000000E+00 0. -1.
          2   -1    0    0  502    0  0.00000000000E+00 -0.00000000000E+00 -0.24700751896E+04  0.24700751896E+04  0.00000000000E+00 0.  1.
          6    2    1    2  502    0  0.11017230448E+03 -0.46175996843E+02 -0.17612090982E+04  0.17735305403E+04  0.17112256015E+03 0.  0.
         24    2    3    3    0    0  0.47188666197E+02 -0.16267542706E+02 -0.43522044898E+03  0.44570169513E+03  0.82108213163E+02 0.  0.
         -6    2    1    2    0  501 -0.11017230448E+03  0.46175996843E+02 -0.68737424001E+03  0.71803650075E+03  0.16977311692E+03 0.  0.
        -24    2    5    5    0    0 -0.73101300157E+02  0.50246321095E+02 -0.66199124341E+03  0.67267998615E+03  0.79984151835E+02 0.  0.
          5    1    3    3  502    0  0.62983638280E+02 -0.29908454137E+02 -0.13259886492E+04  0.13278288452E+04  0.47000000000E+01 0. -1.
        -11    1    4    4    0    0  0.17961228077E+02  0.29841796472E+02 -0.96142327569E+02  0.10225695908E+03  0.00000000000E+00 0.  1.
         12    1    4    4    0    0  0.29227438120E+02 -0.46109339179E+02 -0.33907812141E+03  0.34344473604E+03  0.00000000000E+00 0. -1.
         -5    1    5    5    0  501 -0.37071004320E+02 -0.40703242515E+01 -0.25382996601E+02  0.45356514606E+02  0.47000000000E+01 0.  1.
         11    1    6    6    0    0 -0.23284170073E+02  0.60476731347E+02 -0.28506092362E+03  0.29233425695E+03  0.00000000000E+00 0. -1.
        -12    1    6    6    0    0 -0.49817130085E+02 -0.10230410252E+02 -0.37693031979E+03  0.38034572920E+03  0.00000000000E+00 0.  1.
</event>
<event>
12    1  0.1081556E+000  0.3292236E+03  0.7818608E-02  0.1071481E+00
          2   -1    0    0  502    0  0.00000000000E+00  0.00000000000E+00  0.81317754084E+03  0.81317754084E+03  0.00000000000E+00 0. -1.
         -2   -1    0    0    0  501 -0.00000000000E+00 -0.00000000000E+00 -0.14181634096E+03  0.14181634096E+03  0.00000000000E+00 0.  1.
          6    2    1    2  502    0 -0.27094487883E+03 -0.72192672688E+02  0.21848641970E+03  0.39502999106E+03  0.17230632284E+03 0.  0.
         24    2    3    3    0    0 -0.26166690780E+03 -0.10423208488E+03  0.21033154015E+03  0.36037170576E+03  0.79337956685E+02 0.  0.
         -6    2    1    2    0  501  0.27094487883E+03  0.72192672688E+02  0.45287478019E+03  0.55996389074E+03  0.17274571787E+03 0.  0.
        -24    2    5    5    0    0  0.17629412444E+03 -0.21289707665E+02  0.29439830050E+03  0.35299866332E+03  0.80030163101E+02 0.  0.
          5    1    3    3  502    0 -0.92779710341E+01  0.32039412189E+02  0.81548795470E+01  0.34658285306E+02  0.47000000000E+01 0. -1.
        -13    1    4    4    0    0 -0.17966796993E+03 -0.91800932280E+02  0.18477661241E+03  0.27358798782E+03  0.00000000000E+00 0.  1.
         14    1    4    4    0    0 -0.81998937868E+02 -0.12431152597E+02  0.25554927742E+02  0.86783717933E+02  0.00000000000E+00 0. -1.
         -5    1    5    5    0  501  0.94650754392E+02  0.93482380353E+02  0.15847647969E+03  0.20696522741E+03  0.47000000000E+01 0.  1.
         11    1    6    6    0    0  0.56786369791E+02  0.13513210845E+02  0.43089171243E+02  0.72553258644E+02  0.00000000000E+00 0. -1.
        -12    1    6    6    0    0  0.11950775465E+03 -0.34802918510E+02  0.25130912926E+03  0.28044540468E+03  0.00000000000E+00 0.  1.
</event>
<event>
12    1  0.1081556E+000  0.8542128E+03  0.7818608E-02  0.9484700E-01
          2   -1    0    0  502    0  0.00000000000E+00  0.00000000000E+00  0.10287426071E+04  0.10287426071E+04  0.00000000000E+00 0. -1.
         -2   -1    0    0    0  501 -0.00000000000E+00 -0.00000000000E+00 -0.83641790892E+03  0.83641790892E+03  0.00000000000E+00 0.  1.
          6    2    1    2  502    0 -0.59495020797E+03  0.58819848254E+03 -0.26740465673E+03  0.89514104918E+03  0.17271086433E+03 0.  0.
         24    2    3    3    0    0 -0.32568441532E+03  0.24378764346E+03 -0.16443087698E+03  0.44597673349E+03  0.79718128596E+02 0.  0.
         -6    2    1    2    0  501  0.59495020797E+03 -0.58819848254E+03  0.45972935491E+03  0.97001946684E+03  0.17217282438E+03 0.  0.
        -24    2    5    5    0    0  0.15859517527E+03 -0.19369865278E+03  0.10504573915E+03  0.28309997554E+03  0.80245816886E+02 0.  0.
          5    1    3    3  502    0 -0.26926579265E+03  0.34441083909E+03 -0.10297377975E+03  0.44916431569E+03  0.47000000000E+01 0. -1.
        -13    1    4    4    0    0 -0.30189453141E+03  0.22688590805E+03 -0.12682143849E+03  0.39837319266E+03  0.00000000000E+00 0.  1.
         14    1    4    4    0    0 -0.23789883902E+02  0.16901735409E+02 -0.37609438493E+02  0.47603540831E+02  0.00000000000E+00 0. -1.
         -5    1    5    5    0  501  0.43635503270E+03 -0.39449982977E+03  0.35468361576E+03  0.68691949131E+03  0.47000000000E+01 0.  1.
         11    1    6    6    0    0  0.16587581498E+03 -0.18565447843E+03  0.10869082752E+03  0.27165431589E+03  0.00000000000E+00 0. -1.
        -12    1    6    6    0    0 -0.72806397027E+01 -0.80441743467E+01 -0.36450883764E+01  0.11445659643E+02  0.00000000000E+00 0.  1.
</event>
<event>
12    1  0.1081556E+000  0.3359720E+03  0.7818608E-02  0.1068525E+00
         -2   -1    0    0    0  501 -0.00000000000E+00  0.00000000000E+00  0.38150749283E+03  0.38150749283E+03  0.00000000000E+00 0.  1.
          2   -1    0    0  502    0  0.00000000000E+00 -0.00000000000E+00 -0.37346535028E+03  0.37346535028E+03  0.00000000000E+00 0. -1.
          6    2    1    2  502    0  0.19032533674E+03  0.21563602091E+03  0.17609015686E+03  0.37998128848E+03  0.17508686111E+03 0.  0.
         24    2    3    3    0    0  0.14757534356E+03  0.86690112302E+02  0.15188845608E+03  0.24191455974E+03  0.78478618283E+02 0.  0.
         -6    2    1    2    0  501 -0.19032533674E+03 -0.21563602091E+03 -0.16804801430E+03  0.37499155463E+03  0.17220889530E+03 0.  0.
        -24    2    5    5    0    0 -0.40891545936E+02 -0.77779470815E+02 -0.11860548588E+03  0.16570338045E+03  0.75290002008E+02 0.  0.
          5    1    3    3  502    0  0.42749993181E+02  0.12894590860E+03  0.24201700775E+02  0.13806672873E+03  0.47000000000E+01 0. -1.
        -13    1    4    4    0    0  0.82962997842E+02  0.79649102045E+02  0.61016797054E+02  0.13019173549E+03  0.00000000000E+00 0.  1.
         14    1    4    4    0    0  0.64612345717E+02  0.70410102572E+01  0.90871659027E+02  0.11172282425E+03  0.00000000000E+00 0. -1.
         -5    1    5    5    0  501 -0.14943379080E+03 -0.13785655009E+03 -0.49442528422E+02  0.20928817419E+03  0.47000000000E+01 0.  1.
         11    1    6    6    0    0 -0.60013722436E+02 -0.45077649924E+02 -0.60812204356E+02  0.96601064186E+02  0.00000000000E+00 0. -1.
        -12    1    6    6    0    0  0.19122176500E+02 -0.32701820892E+02 -0.57793281523E+02  0.69102316263E+02  0.00000000000E+00 0.  1.
</event>
<event>
12    1  0.1081556E+000  0.8444269E+03  0.7818608E-02  0.9497848E-01
          2   -1    0    0  502    0  0.00000000000E+00  0.00000000000E+00  0.11456660072E+04  0.11456660072E+04  0.00000000000E+00 0. -1.
         -2   -1    0    0    0  501 -0.00000000000E+00 -0.00000000000E+00 -0.87064204470E+03  0.87064204470E+03  0.00000000000E+00 0.  1.
          6    2    1    2  502    0  0.18500087179E+03 -0.80594276288E+03 -0.40081541054E+03  0.93475022204E+03  0.17127733265E+03 0.  0.
         24    2    3    3    0    0  0.75146424551E+02 -0.43559760578E+03 -0.14581682801E+03  0.47185725163E+03  0.77423893589E+02 0.  0.
         -6    2    1    2    0  501 -0.18500087179E+03  0.80594276288E+03  0.67583937304E+03  0.10815578298E+04  0.17099538457E+03 0.  0.
        -24    2    5    5    0    0 -0.49361431768E+02  0.26691681216E+03  0.27653079214E+03  0.39714825508E+03  0.87042070037E+02 0.  0.
          5    1    3    3  502    0  0.10985444724E+03 -0.37034515710E+03 -0.25499858254E+03  0.46289297041E+03  0.47000000000E+01 0. -1.
        -11    1    4    4    0    0  0.30025266619E+02 -0.37163511582E+02 -0.16095523685E+02  0.50415365825E+02  0.00000000000E+00 0.  1.
         12    1    4    4    0    0  0.45121157933E+02 -0.39843409420E+03 -0.12972130432E+03  0.42144188580E+03  0.00000000000E+00 0. -1.
         -5    1    5    5    0  501 -0.13563944002E+03  0.53902595072E+03  0.39930858089E+03  0.68440957476E+03  0.47000000000E+01 0.  1.
         13    1    6    6    0    0 -0.70558065824E+02  0.23810818563E+03  0.23024972051E+03  0.33865747078E+03  0.00000000000E+00 0. -1.
        -14    1    6    6    0    0  0.21196634056E+02  0.28808626522E+02  0.46281071634E+02  0.58490784308E+02  0.00000000000E+00 0.  1.
</event>
<event>
12    1  0.1081556E+000  0.3745859E+03  0.7818608E-02  0.1052953E+00
         -1   -1    0    0    0  501 -0.00000000000E+00  0.00000000000E+00  0.96295790186E+02  0.96295790186E+02  0.00000000000E+00 0.  1.
          1   -1    0    0  502    0  0.00000000000E+00 -0.00000000000E+00 -0.22695993546E+04  0.22695993546E+04  0.00000000000E+00 0. -1.
          6    2    1    2  502    0 -0.21025110566E+03 -0.25865412421E+03 -0.37945774465E+03  0.53342056763E+03  0.17158624242E+03 0.  0.
         24    2    3    3    0    0 -0.13338737315E+03 -0.19124645767E+03 -0.16741376194E+03  0.29797085434E+03  0.79949130449E+02 0.  0.
         -6    2    1    2    0  501  0.21025110566E+03  0.25865412421E+03 -0.17938458198E+04  0.18324745772E+04  0.17021388734E+03 0.  0.
        -24    2    5    5    0    0  0.21862513855E+03  0.18750740716E+03 -0.13240088309E+04  0.13571842807E+04  0.77419691373E+02 0.  0.
          5    1    3    3  502    0 -0.76863732515E+02 -0.67407666540E+02 -0.21204398271E+03  0.23544971329E+03  0.47000000000E+01 0. -1.
        -13    1    4    4    0    0 -0.27970918584E+02 -0.82651980507E+02 -0.26528244686E+02  0.91200164114E+02  0.00000000000E+00 0.  1.
         14    1    4    4    0    0 -0.10541645456E+03 -0.10859447717E+03 -0.14088551725E+03  0.20677069022E+03  0.00000000000E+00 0. -1.
         -5    1    5    5    0  501 -0.83740328893E+01  0.71146717058E+02 -0.46983698888E+03  0.47529029644E+03  0.47000000000E+01 0.  1.
         13    1    6    6    0    0  0.13477568872E+03  0.84823919582E+02 -0.58037531122E+03  0.60182645794E+03  0.00000000000E+00 0. -1.
        -14    1    6    6    0    0  0.83849449836E+02  0.10268348757E+03 -0.74363351968E+03  0.75535782279E+03  0.00000000000E+00 0.  1.
</event>
<event>
12    1  0.1081556E+000  0.8036301E+03  0.7818608E-02  0.9554778E-01
          2   -1    0    0  502    0  0.00000000000E+00  0.00000000000E+00  0.11769595266E+04  0.11769595266E+04  0.00000000000E+00 0. -1.
         -2   -1    0    0    0  501 -0.00000000000E+00 -0.00000000000E+00 -0.13081942871E+04  0.13081942871E+04  0.00000000000E+00 0.  1.
          6    2    1    2  502    0  0.74672412453E+03  0.24171913312E+03 -0.10123872014E+04  0.12926039957E+04  0.17283572211E+03 0.  0.
         24    2    3    3    0    0  0.30422345858E+03  0.83552804471E+02 -0.31372327750E+03  0.45059639755E+03  0.71286988714E+02 0.  0.
         -6    2    1    2    0  501 -0.74672412453E+03 -0.24171913312E+03  0.88115244085E+03  0.11925498180E+04  0.17239601748E+03 0.  0.
        -24    2    5    5    0    0 -0.65814426978E+03 -0.16289229903E+03  0.77891888011E+03  0.10359169626E+04  0.81985063693E+02 0.  0.
          5    1    3    3  502    0  0.44250066595E+03  0.15816632865E+03 -0.69866392386E+03  0.84200759817E+03  0.47000000000E+01 0. -1.
        -11    1    4    4    0    0  0.19951808964E+03  0.26997960270E+02 -0.22651545492E+03  0.30306040531E+03  0.00000000000E+00 0.  1.
         12    1    4    4    0    0  0.10470536894E+03  0.56554844200E+02 -0.87207822581E+02  0.14753599224E+03  0.00000000000E+00 0. -1.
         -5    1    5    5    0  501 -0.88579854747E+02 -0.78826834092E+02  0.10223356074E+03  0.15663285537E+03  0.47000000000E+01 0.  1.
         11    1    6    6    0    0 -0.26135595263E+03 -0.25738026172E+02  0.31910990133E+03  0.41328018231E+03  0.00000000000E+00 0. -1.
        -12    1    6    6    0    0 -0.39678831715E+03 -0.13715427286E+03  0.45980897878E+03  0.62263678028E+03  0.00000000000E+00 0.  1.
</event>
<event>
12    1  0.1081556E+000  0.9825091E+03  0.7818608E-02  0.9327939E-01
         -2   -1    0    0    0  501 -0.00000000000E+00  0.00000000000E+00  0.86941829736E+03  0.86941829736E+03  0.00000000000E+00 0.  1.
          2   -1    0    0  502    0  0.00000000000E+00 -0.00000000000E+00 -0.17669461925E+04  0.17669461925E+04  0.00000000000E+00 0. -1.
          6    2    1    2  502    0  0.32022006028E+03 -0.91284551972E+03  0.35484544806E+03  0.10445091531E+04  0.17104458197E+03 0.  0.
         24    2    3    3    0    0  0.32118456218E+03 -0.76632815154E+03  0.28432067567E+03  0.88183124137E+03  0.79810605994E+02 0.  0.
         -6    2    1    2    0  501 -0.32022006028E+03  0.91284551972E+03 -0.12523733432E+04  0.15918553367E+04  0.17244301223E+03 0.  0.
        -24    2    5    5    0    0 -0.23521911758E+03  0.57001313659E+03 -0.87449595609E+03  0.10745811223E+04  0.98683342713E+02 0.  0.
          5    1    3    3  502    0 -0.96450189699E+00 -0.14651736818E+03  0.70524772393E+02  0.16267791173E+03  0.47000000000E+01 0. -1.
        -11    1    4    4    0    0  0.23716066419E+03 -0.57903957609E+03  0.24946146056E+03  0.67361935218E+03  0.00000000000E+00 0.  1.
         12    1    4    4    0    0  0.84023897980E+02 -0.18728857545E+03  0.34859215107E+02  0.20821188920E+03  0.00000000000E+00 0. -1.
         -5    1    5    5    0  501 -0.85000942699E+02  0.34283238313E+03 -0.37787738708E+03  0.51727421437E+03  0.47000000000E+01 0.  1.
         11    1    6    6    0    0 -0.21234291389E+03  0.54468917345E+03 -0.78481750140E+03  0.97862879543E+03  0.00000000000E+00 0. -1.
        -12    1    6    6    0    0 -0.22876203693E+02  0.25323963143E+02 -0.89678454692E+02  0.95952326916E+02  0.00000000000E+00 0.  1.
</event>
<event>
12    1  0.1081556E+000  0.4471968E+03  0.7818608E-02  0.1028561E+00
         -1   -1    0    0    0  501 -0.00000000000E+00  0.00000000000E+00  0.12835172196E+03  0.12835172196E+03  0.00000000000E+00 0.  1.
          1   -1    0    0  502    0  0.00000000000E+00 -0.00000000000E+00 -0.16623295927E+04  0.16623295927E+04  0.00000000000E+00 0. -1.
          6    2    1    2  502    0 -0.37693934587E+03  0.17336216461E+03 -0.98825358248E+03  0.10839850028E+04  0.16198960619E+03 0.  0.
         24    2    3    3    0    0 -0.38128963113E+03  0.14602831279E+03 -0.94418150811E+03  0.10317307956E+04  0.79269561356E+02 0.  0.
         -6    2    1    2    0  501  0.37693934587E+03 -0.17336216461E+03 -0.54572428831E+03  0.70669631186E+03  0.17165945289E+03 0.  0.
        -24    2    5    5    0    0  0.29965525743E+03 -0.19805773319E+03 -0.44834795797E+03  0.57986200599E+03  0.78764938896E+02 0.  0.
          5    1    3    3  502    0  0.43502852543E+01  0.27333851814E+02 -0.44072074377E+02  0.52254207263E+02  0.47000000000E+01 0. -1.
        -13    1    4    4    0    0 -0.27465376732E+03  0.11651631181E+03 -0.59791280789E+03  0.66821438824E+03  0.00000000000E+00 0.  1.
         14    1    4    4    0    0 -0.10663586381E+03  0.29512000986E+02 -0.34626870022E+03  0.36351640734E+03  0.00000000000E+00 0. -1.
         -5    1    5    5    0  501  0.77284088447E+02  0.24695568587E+02 -0.97376330340E+02  0.12683430587E+03  0.47000000000E+01 0.  1.
         11    1    6    6    0    0  0.23473272446E+03 -0.12159465255E+03 -0.35677460702E+03  0.44404147518E+03  0.00000000000E+00 0. -1.
        -12    1    6    6    0    0  0.64922532962E+02 -0.76463080640E+02 -0.91573350951E+02  0.13582053082E+03  0.00000000000E+00 0.  1.
</event>
<event>
12    1  0.1081556E+000  0.2551736E+03  0.7818608E-02  0.1110078E+00
          2   -1    0    0  502    0  0.00000000000E+00  0.00000000000E+00  0.70139262105E+03  0.70139262105E+03  0.00000000000E+00 0. -1.
         -2   -1    0    0    0  501 -0.00000000000E+00 -0.00000000000E+00 -0.14359300533E+03  0.14359300533E+03  0.00000000000E+00 0.  1.
          6    2    1    2  502    0 -0.47240236250E+02 -0.18089710865E+03  0.28563495835E+02  0.25796424866E+03  0.17542598569E+03 0.  0.
         24    2    3    3    0    0 -0.51313936587E+02 -0.20740388827E+03  0.30709995024E+02  0.23065304475E+03  0.81291022247E+02 0.  0.
         -6    2    1    2    0  501  0.47240236250E+02  0.18089710865E+03  0.52923611989E+03  0.58702137772E+03  0.17189480349E+03 0.  0.
        -24    2    5    5    0    0  0.92704894750E+02  0.13170108759E+03  0.31543173472E+03  0.36291941705E+03  0.79208269879E+02 0.  0.
          5    1    3    3  502    0  0.40737003364E+01  0.26506779625E+02 -0.21464991893E+01  0.27311203915E+02  0.47000000000E+01 0. -1.
        -11    1    4    4    0    0 -0.35850567657E+02 -0.80074231036E+02 -0.24379764631E+02  0.91057776169E+02  0.00000000000E+00 0.  1.
         12    1    4    4    0    0 -0.15463368930E+02 -0.12732965723E+03  0.55089759655E+02  0.13959526858E+03  0.00000000000E+00 0. -1.
         -5    1    5    5    0  501 -0.45464658499E+02  0.49196021058E+02  0.21380438517E+03  0.22410196067E+03  0.47000000000E+01 0.  1.
         13    1    6    6    0    0  0.67907209020E+02  0.10025957832E+03  0.29296325269E+03  0.31700290142E+03  0.00000000000E+00 0. -1.
        -14    1    6    6    0    0  0.24797685729E+02  0.31441509267E+02  0.22468482033E+02  0.45916515627E+02  0.00000000000E+00 0.  1.
</event>
<event>
12    1  0.1395575E+000  0.2173290E+03  0.7818608E-02  0.1135890E+00
          1   -1    0    0  502    0  0.00000000000E+00  0.00000000000E+00  0.79537663111E+03  0.79537663111E+03  0.00000000000E+00 0. -1.
         -1   -1    0    0    0  501 -0.00000000000E+00 -0.00000000000E+00 -0.60217028925E+03  0.60217028925E+03  0.00000000000E+00 0.  1.
          6    2    1    2  502    0  0.11389417529E+03  0.69825058834E+02 -0.56685724254E+03  0.60679055637E+03  0.17035323266E+03 0.  0.
         24    2    3    3    0    0  0.13960092306E+03  0.33508757903E+02 -0.36582440662E+03  0.40083910163E+03  0.78950834946E+02 0.  0.
         -6    2    1    2    0  501 -0.11389417529E+03 -0.69825058834E+02  0.76006358440E+03  0.79075636399E+03  0.17248638454E+03 0.  0.
        -24    2    5    5    0    0 -0.68646812590E+02  0.28967436843E+02  0.36404317140E+03  0.38007213183E+03  0.79849217110E+02 0.  0.
          5    1    3    3  502    0 -0.25706747767E+02  0.36316300931E+02 -0.20103283592E+03  0.20595145475E+03  0.47000000000E+01 0. -1.
        -13    1    4    4    0    0  0.60837370345E+02  0.44248909576E+02 -0.24433838332E+03  0.25565679571E+03  0.00000000000E+00 0.  1.
         14    1    4    4    0    0  0.78763552714E+02 -0.10740151673E+02 -0.12148602330E+03  0.14518230592E+03  0.00000000000E+00 0. -1.
         -5    1    5    5    0  501 -0.45247362701E+02 -0.98792495678E+02  0.39602041300E+03  0.41068423216E+03  0.47000000000E+01 0.  1.
         13    1    6    6    0    0 -0.56551439648E+02 -0.96579165327E+01  0.29065261805E+03  0.29626050202E+03  0.00000000000E+00 0. -1.
        -14    1    6    6    0    0 -0.12095372942E+02  0.38625353376E+02  0.73390553354E+02  0.83811629811E+02  0.00000000000E+00 0.  1.
</event>
<event>
12    1  0.1081556E+000  0.3537467E+03  0.7818608E-02  0.1061088E+00
          2   -1    0    0  502    0  0.00000000000E+00  0.00000000000E+00  0.13067295026E+04  0.13067295026E+04  0.00000000000E+00 0. -1.
         -2   -1    0    0    0  501 -0.00000000000E+00 -0.00000000000E+00 -0.11513812772E+03  0.11513812772E+03  0.00000000000E+00 0.  1.
          6    2    1    2  502    0  0.39072031679E+02  0.30610156118E+03  0.30457121712E+03  0.46701943992E+03  0.17354751957E+03 0.  0.
         24    2    3    3    0    0  0.61554557229E+02  0.21218038250E+03  0.13259448733E+03  0.26972590899E+03  0.79757693513E+02 0.  0.
         -6    2    1    2    0  501 -0.39072031679E+02 -0.30610156118E+03  0.88702015773E+03  0.95484819037E+03  0.17235288513E+03 0.  0.
        -24    2    5    5    0    0  0.26020855431E+01 -0.23691063611E+03  0.50785612970E+03  0.56714783402E+03  0.87208926214E+02 0.  0.
          5    1    3    3  502    0 -0.22482525550E+02  0.93921178681E+02  0.17197672978E+03  0.19729353093E+03  0.47000000000E+01 0. -1.
        -11    1    4    4    0    0 -0.68327053461E+01  0.71032502700E+02  0.72604382495E+02  0.10180225272E+03  0.00000000000E+00 0.  1.
         12    1    4    4    0    0  0.68387262576E+02  0.14114787980E+03  0.59990104840E+02  0.16792365626E+03  0.00000000000E+00 0. -1.
         -5    1    5    5    0  501 -0.41674117222E+02 -0.69190925067E+02  0.37916402803E+03  0.38770035635E+03  0.47000000000E+01 0.  1.
         11    1    6    6    0    0 -0.13560326423E+01 -0.10671573583E+03  0.13435014447E+03  0.17158102581E+03  0.00000000000E+00 0. -1.
        -12    1    6    6    0    0  0.39581181854E+01 -0.13019490028E+03  0.37350598523E+03  0.39556680821E+03  0.00000000000E+00 0.  1.
</event>
<event>
12    1  0.1081556E+000  0.2770598E+03  0.7818608E-02  0.1097306E+00
          1   -1    0    0  502    0  0.00000000000E+00  0.00000000000E+00  0.10195119214E+04  0.10195119214E+04  0.00000000000E+00 0. -1.
         -1   -1    0    0    0  501 -0.00000000000E+00 -0.00000000000E+00 -0.12824014547E+03  0.12824014547E+03  0.00000000000E+00 0.  1.
          6    2    1    2  502    0  0.14619362082E+03 -0.16120737629E+03  0.77557022605E+02  0.28838900252E+03  0.17260571277E+03 0.  0.
         24    2    3    3    0    0  0.14826645572E+03 -0.97201838761E+02  0.92332086519E+01  0.19462739507E+03  0.79771118956E+02 0.  0.
         -6    2    1    2    0  501 -0.14619362082E+03  0.16120737629E+03  0.81371475335E+03  0.85936306437E+03  0.17033139362E+03 0.  0.
        -24    2    5    5    0    0 -0.64585850233E+02  0.14925760956E+03  0.42743756035E+03  0.46435067852E+03  0.80433317619E+02 0.  0.
          5    1    3    3  502    0 -0.20728349003E+01 -0.64005537524E+02  0.68323813954E+02  0.93761607449E+02  0.47000000000E+01 0. -1.
        -11    1    4    4    0    0  0.10747612460E+03 -0.97728645151E+02 -0.16801733515E+02  0.14623372966E+03  0.00000000000E+00 0.  1.
         12    1    4    4    0    0  0.40790331121E+02  0.52680639035E+00  0.26034942167E+02  0.48393665407E+02  0.00000000000E+00 0. -1.
         -5    1    5    5    0  501 -0.81607770587E+02  0.11949766726E+02  0.38627719300E+03  0.39501238585E+03  0.47000000000E+01 0.  1.
         11    1    6    6    0    0 -0.74463588417E+02  0.13252287423E+03  0.41316093967E+03  0.44023754981E+03  0.00000000000E+00 0. -1.
        -12    1    6    6    0    0  0.98777381844E+01  0.16734735331E+02  0.14276620683E+02  0.24113128714E+02  0.00000000000E+00 0.  1.
</event>
<event>
12    1  0.1081556E+000  0.8156176E+03  0.7818608E-02  0.9537682E-01
          2   -1    0    0  502    0  0.00000000000E+00  0.00000000000E+00  0.64370182485E+03  0.64370182485E+03  0.00000000000E+00 0. -1.
         -2   -1    0    0    0  501 -0.00000000000E+00 -0.00000000000E+00 -0.11115291971E+04  0.11115291971E+04  0.00000000000E+00 0.  1.
          6    2    1    2  502    0  0.45746953985E+03 -0.65315316335E+03 -0.46647742009E+03  0.93945870529E+03  0.17056975351E+03 0.  0.
         24    2    3    3    0    0  0.21106085543E+03 -0.26720615580E+03 -0.26659481926E+03  0.43981135314E+03  0.80096281475E+02 0.  0.
         -6    2    1    2    0  501 -0.45746953985E+03  0.65315316335E+03 -0.13499521824E+01  0.81577231668E+03  0.17203260043E+03 0.  0.
        -24    2    5    5    0    0 -0.26837834829E+03  0.46142270725E+03  0.38371240896E+02  0.54352994360E+03  0.94945220347E+02 0.  0.
          5    1    3    3  502    0  0.24640868442E+03 -0.38594700755E+03 -0.19988260083E+03  0.49964735215E+03  0.47000000000E+01 0. -1.
        -13    1    4    4    0    0  0.85748719027E+02 -0.17270341211E+03 -0.14984889788E+03  0.24420074440E+03  0.00000000000E+00 0.  1.
         14    1    4    4    0    0  0.12531213640E+03 -0.94502743688E+02 -0.11674592138E+03  0.19561060874E+03  0.00000000000E+00 0. -1.
         -5    1    5    5    0  501 -0.18909119155E+03  0.19173045610E+03 -0.39721193078E+02  0.27224237308E+03  0.47000000000E+01 0.  1.
         13    1    6    6    0    0 -0.12319917357E+03  0.13757967700E+03 -0.12042930803E+02  0.18507089473E+03  0.00000000000E+00 0. -1.
        -14    1    6    6    0    0 -0.14517917472E+03  0.32384303025E+03  0.50414171699E+02  0.35845904887E+03  0.00000000000E+00 0.  1.
</event>
<event>
12    1  0.1081556E+000  0.5716246E+03  0.7818608E-02  0.9966090E-01
         -2   -1    0    0    0  501 -0.00000000000E+00  0.00000000000E+00  0.19004374069E+03  0.19004374069E+03  0.00000000000E+00 0.  1.
          2   -1    0    0  502    0  0.00000000000E+00 -0.00000000000E+00 -0.37264510699E+04  0.37264510699E+04  0.00000000000E+00 0. -1.
          6    2    1    2  502    0  0.53680504569E+02 -0.54294527329E+03 -0.33049643270E+03  0.65995301048E+03  0.16923036863E+03 0.  0.
         24    2    3    3    0    0  0.11766413690E+02 -0.51172655980E+03 -0.29359074754E+03  0.59580070201E+03  0.82343360233E+02 0.  0.
         -6    2    1    2    0  501 -0.53680504569E+02  0.54294527329E+03 -0.32059108965E+04  0.32565418001E+04  0.17183903241E+03 0.  0.
        -24    2    5    5    0    0 -0.66959975772E+02  0.50388094840E+03 -0.31068082584E+04  0.31490904683E+04  0.78317138973E+02 0.  0.
          5    1    3    3  502    0  0.41914090879E+02 -0.31218713485E+02 -0.36905685163E+02  0.64152308479E+02  0.47000000000E+01 0. -1.
        -13    1    4    4    0    0 -0.24758877466E+02 -0.32187693817E+03 -0.21034591779E+03  0.38530918815E+03  0.00000000000E+00 0.  1.
         14    1    4    4    0    0  0.36525291156E+02 -0.18984962163E+03 -0.83244829748E+02  0.21049151386E+03  0.00000000000E+00 0. -1.
         -5    1    5    5    0  501  0.13279471203E+02  0.39064324888E+02 -0.99102638078E+02  0.10745133181E+03  0.47000000000E+01 0.  1.
         13    1    6    6    0    0 -0.62103432016E+02  0.49464378269E+03 -0.29409319362E+04  0.29828861798E+04  0.00000000000E+00 0. -1.
        -14    1    6    6    0    0 -0.48565437560E+01  0.92371657118E+01 -0.16587632223E+03  0.16620428852E+03  0.00000000000E+00 0.  1.
</event>
<event>
12    1  0.1081556E+000  0.2630390E+03  0.7818608E-02  0.1105331E+00
         -2   -1    0    0    0  501 -0.00000000000E+00  0.00000000000E+00  0.81050913938E+02  0.81050913938E+02  0.00000000000E+00 0.  1.
          2   -1    0    0  502    0  0.00000000000E+00 -0.00000000000E+00 -0.10310259133E+04  0.10310259133E+04  0.00000000000E+00 0. -1.
          6    2    1    2  502    0  0.17606589648E+03  0.94292310146E+02 -0.24479841453E+03  0.35954127774E+03  0.17162000754E+03 0.  0.
         24    2    3    3    0    0  0.99111976112E+02  0.10028837616E+03 -0.88079030570E+02  0.18478168866E+03  0.80656150643E+02 0.  0.
         -6    2    1    2    0  501 -0.17606589648E+03 -0.94292310146E+02 -0.70517658487E+03  0.75253554954E+03  0.17072052545E+03 0.  0.
        -24    2    5    5    0    0 -0.43637468974E+02 -0.81745386530E+02 -0.42428763922E+03  0.44170536520E+03  0.80604540433E+02 0.  0.
          5    1    3    3  502    0  0.76953920365E+02 -0.59960660091E+01 -0.15671938396E+03  0.17475958908E+03  0.47000000000E+01 0. -1.
        -13    1    4    4    0    0  0.61174720017E+02  0.10507430379E+03 -0.80446149695E+02  0.14578936411E+03  0.00000000000E+00 0.  1.
         14    1    4    4    0    0  0.37937256094E+02 -0.47859276364E+01 -0.76328808752E+01  0.38992324549E+02  0.00000000000E+00 0. -1.
         -5    1    5    5    0  501 -0.13242842750E+03 -0.12546923616E+02 -0.28088894565E+03  0.31083018433E+03  0.47000000000E+01 0.  1.
         11    1    6    6    0    0 -0.41828541531E+02 -0.93250328512E+02 -0.30118221437E+03  0.31805027418E+03  0.00000000000E+00 0. -1.
        -12    1    6    6    0    0 -0.18089274430E+01  0.11504941982E+02 -0.12310542485E+03  0.12365509102E+03  0.00000000000E+00 0.  1.
</event>
<event>
12    1  0.1847738E+000  0.2027120E+03  0.7818608E-02  0.1147471E+00
         -1   -1    0    0    0  501 -0.00000000000E+00  0.00000000000E+00  0.43184257548E+03  0.43184257548E+03  0.00000000000E+00 0.  1.
          1   -1    0    0  502    0  0.00000000000E+00 -0.00000000000E+00 -0.14626370019E+04  0.14626370019E+04  0.00000000000E+00 0. -1.
          6    2    1    2  502    0  0.85121420753E+02  0.43068115197E+02  0.39937973605E+03  0.45088948063E+03  0.18627031798E+03 0.  0.
         24    2    3    3    0    0 -0.10594434698E+02  0.28966781476E+02  0.30081008169E+03  0.31269237734E+03  0.79614704200E+02 0.  0.
         -6    2    1    2    0  501 -0.85121420753E+02 -0.43068115197E+02 -0.14301741625E+04  0.14435900968E+04  0.17162084265E+03 0.  0.
        -24    2    5    5    0    0 -0.82219988638E+02 -0.24505488960E+02 -0.14124626918E+04  0.14173455622E+04  0.80355095733E+02 0.  0.
          5    1    3    3  502    0  0.95715855452E+02  0.14101333721E+02  0.98569654357E+02  0.13819710329E+03  0.47000000000E+01 0. -1.
        -13    1    4    4    0    0  0.19102698534E+02  0.35702731163E+02  0.25149001316E+03  0.25472892420E+03  0.00000000000E+00 0.  1.
         14    1    4    4    0    0 -0.29697133232E+02 -0.67359496870E+01  0.49320068528E+02  0.57963453140E+02  0.00000000000E+00 0. -1.
         -5    1    5    5    0  501 -0.29014321153E+01 -0.18562626236E+02 -0.17711470663E+02  0.26244534558E+02  0.47000000000E+01 0.  1.
         11    1    6    6    0    0 -0.46021932320E+02  0.26359614715E+02 -0.51844165373E+03  0.52114738402E+03  0.00000000000E+00 0. -1.
        -12    1    6    6    0    0 -0.36198056318E+02 -0.50865103675E+02 -0.89402103810E+03  0.89619817820E+03  0.00000000000E+00 0.  1.
</event>
<event>
12    1  0.1081556E+000  0.3284449E+03  0.7818608E-02  0.1071827E+00
          1   -1    0    0  502    0  0.00000000000E+00  0.00000000000E+00  0.11720530635E+04  0.11720530635E+04  0.00000000000E+00 0. -1.
         -1   -1    0    0    0  501 -0.00000000000E+00 -0.00000000000E+00 -0.16684581243E+03  0.16684581243E+03  0.00000000000E+00 0.  1.
          6    2    1    2  502    0 -0.18740196825E+03  0.20740997504E+03  0.54447929756E+02  0.33304572340E+03  0.17267449542E+03 0.  0.
         24    2    3    3    0    0 -0.14103170328E+03  0.22472554498E+03  0.24839764447E+02  0.27517721825E+03  0.68658398231E+02 0.  0.
         -6    2    1    2    0  501  0.18740196825E+03 -0.20740997504E+03  0.95075932127E+03  0.10058531525E+04  0.17221754252E+03 0.  0.
        -24    2    5    5    0    0  0.19065170747E+03 -0.16408112919E+03  0.64093428783E+03  0.69296085308E+03  0.78277021296E+02 0.  0.
          5    1    3    3  502    0 -0.46370264966E+02 -0.17315569940E+02  0.29608165309E+02  0.57868505150E+02  0.47000000000E+01 0. -1.
        -11    1    4    4    0    0 -0.14875698409E+03  0.21722025844E+03  0.23432037755E+02  0.26431485275E+03  0.00000000000E+00 0.  1.
         12    1    4    4    0    0  0.77252808117E+01  0.75052865400E+01  0.14077266923E+01  0.10862365493E+02  0.00000000000E+00 0. -1.
         -5    1    5    5    0  501 -0.32497392265E+01 -0.43328845846E+02  0.30982503344E+03  0.31289229942E+03  0.47000000000E+01 0.  1.
         11    1    6    6    0    0  0.11048295109E+03 -0.55868384378E+02  0.37432798076E+03  0.39427046051E+03  0.00000000000E+00 0. -1.
        -12    1    6    6    0    0  0.80168756386E+02 -0.10821274482E+03  0.26660630708E+03  0.29869039257E+03  0.00000000000E+00 0.  1.
</event>
<event>
12    1  0.1190225E+000  0.3882026E+03  0.7818608E-02  0.1047943E+00
          2   -1    0    0  502    0  0.00000000000E+00  0.00000000000E+00  0.23919007470E+04  0.23919007470E+04  0.00000000000E+00 0. -1.
         -2   -1    0    0    0  501 -0.00000000000E+00 -0.00000000000E+00 -0.27289634029E+03  0.27289634029E+03  0.00000000000E+00 0.  1.
          6    2    1    2  502    0  0.23659014627E+03 -0.25569046668E+03 -0.10892331492E+03  0.40332452677E+03  0.17162130784E+03 0.  0.
         24    2    3    3    0    0  0.18271288289E+03 -0.14871291882E+03 -0.13141373295E+03  0.28136197450E+03  0.79971630517E+02 0.  0.
         -6    2    1    2    0  501 -0.23659014627E+03  0.25569046668E+03  0.22279277216E+04  0.22614725605E+04  0.17100788602E+03 0.  0.
        -24    2    5    5    0    0 -0.17551703797E+03  0.22591322266E+03  0.14247666280E+04  0.14554288637E+04  0.80437667132E+02 0.  0.
          5    1    3    3  502    0  0.53877263381E+02 -0.10697754786E+03  0.22490418032E+02  0.12196255228E+03  0.47000000000E+01 0. -1.
        -13    1    4    4    0    0  0.15127659341E+03 -0.13667652402E+03 -0.78124178229E+02  0.21833109525E+03  0.00000000000E+00 0.  1.
         14    1    4    4    0    0  0.31436289479E+02 -0.12036394807E+02 -0.53289554718E+02  0.63030879244E+02  0.00000000000E+00 0. -1.
         -5    1    5    5    0  501 -0.61073108299E+02  0.29777244019E+02  0.80316109366E+03  0.80604369683E+03  0.47000000000E+01 0.  1.
         13    1    6    6    0    0 -0.89976793491E+02  0.11895687614E+03  0.93711407656E+03  0.94890956062E+03  0.00000000000E+00 0. -1.
        -14    1    6    6    0    0 -0.85540244481E+02  0.10695634652E+03  0.48765255141E+03  0.50651930307E+03  0.00000000000E+00 0.  1.
</event>
<event>
12    1  0.1081556E+000  0.1838061E+03  0.7818608E-02  0.1164169E+00
         -1   -1    0    0    0  501 -0.00000000000E+00  0.00000000000E+00  0.62044647688E+02  0.62044647688E+02  0.00000000000E+00 0.  1.
          1   -1    0    0  502    0  0.00000000000E+00 -0.00000000000E+00 -0.14015206126E+04  0.14015206126E+04  0.00000000000E+00 0. -1.
          6    2    1    2  502    0 -0.65783007907E+02 -0.46125208406E+01 -0.98456240221E+02  0.20910533704E+03  0.17228677043E+03 0.  0.
         24    2    3    3    0    0 -0.10031676083E+03  0.33490989751E+02 -0.64628337752E+02  0.14737305541E+03  0.79730148136E+02 0.  0.
         -6    2    1    2    0  501  0.65783007907E+02  0.46125208406E+01 -0.12410197246E+04  0.12544599232E+04  0.17085392145E+03 0.  0.
        -24    2    5    5    0    0 -0.19110608413E+02  0.13374242018E+02 -0.86503737095E+03  0.86888436103E+03  0.78270645851E+02 0.  0.
          5    1    3    3  502    0  0.34533752924E+02 -0.38103510591E+02 -0.33827902468E+02  0.61732281634E+02  0.47000000000E+01 0. -1.
        -13    1    4    4    0    0 -0.99767372389E+02  0.26083797481E+02 -0.23743394012E+02  0.10581891061E+03  0.00000000000E+00 0.  1.
         14    1    4    4    0    0 -0.54938844265E+00  0.74071922697E+01 -0.40884943740E+02  0.41554144795E+02  0.00000000000E+00 0. -1.
         -5    1    5    5    0  501  0.84893616321E+02 -0.87617211779E+01 -0.37598235369E+03  0.38557556217E+03  0.47000000000E+01 0.  1.
         11    1    6    6    0    0  0.13722402339E+02  0.38125129668E+02 -0.41648896037E+03  0.41845535479E+03  0.00000000000E+00 0. -1.
        -12    1    6    6    0    0 -0.32833010752E+02 -0.24750887650E+02 -0.44854841057E+03  0.45042900624E+03  0.00000000000E+00 0.  1.
</event>
<event>
12    1  0.1081556E+000  0.6991598E+03  0.7818608E-02  0.9718670E-01
         -1   -1    0    0    0  501 -0.00000000000E+00  0.00000000000E+00  0.88649492025E+03  0.88649492025E+03  0.00000000000E+00 0.  1.
          1   -1    0    0  502    0  0.00000000000E+00 -0.00000000000E+00 -0.11371532669E+04  0.11371532669E+04  0.00000000000E+00 0. -1.
          6    2    1    2  502    0 -0.63142031706E+03  0.24755399292E+03  0.60094755876E+03  0.92113789463E+03  0.16547645255E+03 0.  0.
         24    2    3    3    0    0 -0.34620103076E+03  0.74957686846E+02  0.28390702744E+03  0.46105495141E+03  0.80589450137E+02 0.  0.
         -6    2    1    2    0  501  0.63142031706E+03 -0.24755399292E+03 -0.85160590541E+03  0.11025102925E+04  0.17413136071E+03 0.  0.
        -24    2    5    5    0    0  0.32098725876E+03 -0.90357633713E+02 -0.51131116493E+03  0.61578451816E+03  0.80957662779E+02 0.  0.
          5    1    3    3  502    0 -0.28521928630E+03  0.17259630607E+03  0.31704053132E+03  0.46008294323E+03  0.47000000000E+01 0. -1.
        -13    1    4    4    0    0 -0.15471934846E+03  0.31527486231E+00  0.15173525594E+03  0.21670663137E+03  0.00000000000E+00 0.  1.
         14    1    4    4    0    0 -0.19148168230E+03  0.74642411984E+02  0.13217177150E+03  0.24434832004E+03  0.00000000000E+00 0. -1.
         -5    1    5    5    0  501  0.31043305830E+03 -0.15719635920E+03 -0.34029474048E+03  0.48672577437E+03  0.47000000000E+01 0.  1.
         13    1    6    6    0    0  0.26652382623E+03 -0.10527024331E+03 -0.42095601397E+03  0.50923544630E+03  0.00000000000E+00 0. -1.
        -14    1    6    6    0    0  0.54463432529E+02  0.14912609593E+02 -0.90355150965E+02  0.10654907186E+03  0.00000000000E+00 0.  1.
</event>
<event>
12    1  0.1081556E+000  0.3350941E+03  0.7818608E-02  0.1068905E+00
         -1   -1    0    0    0  501 -0.00000000000E+00  0.00000000000E+00  0.40760181386E+03  0.40760181386E+03  0.00000000000E+00 0.  1.
          1   -1    0    0  502    0  0.00000000000E+00 -0.00000000000E+00 -0.51286516030E+03  0.51286516030E+03  0.00000000000E+00 0. -1.
          6    2    1    2  502    0 -0.25239949173E+03 -0.13845466139E+03  0.26051975158E+03  0.42407376395E+03  0.17056617371E+03 0.  0.
         24    2    3    3    0    0 -0.38754443536E+02 -0.40202426459E+02  0.52981444155E+02  0.11039885685E+03  0.79137425932E+02 0.  0.
         -6    2    1    2    0  501  0.25239949173E+03  0.13845466139E+03 -0.36578309803E+03  0.49639321021E+03  0.17243476347E+03 0.  0.
        -24    2    5    5    0    0  0.22554398860E+03  0.15191591239E+03 -0.25412629996E+03  0.38067046447E+03  0.79882982907E+02 0.  0.
          5    1    3    3  502    0 -0.21364504820E+03 -0.98252234926E+02  0.20753830743E+03  0.31367490709E+03  0.47000000000E+01 0. -1.
        -11    1    4    4    0    0 -0.30234093418E+02  0.78278963925E+01  0.53117404789E+02  0.61618463615E+02  0.00000000000E+00 0.  1.
         12    1    4    4    0    0 -0.85203501179E+01 -0.48030322851E+02 -0.13596063455E+00  0.48780393240E+02  0.00000000000E+00 0. -1.
         -5    1    5    5    0  501  0.26855503133E+02 -0.13461251002E+02 -0.11165679807E+03  0.11572274574E+03  0.47000000000E+01 0.  1.
         11    1    6    6    0    0  0.63707176359E+02  0.70454711386E+02 -0.13017526495E+03  0.16114611469E+03  0.00000000000E+00 0. -1.
        -12    1    6    6    0    0  0.16183681224E+03  0.81461201002E+02 -0.12395103502E+03  0.21952434978E+03  0.00000000000E+00 0.  1.
</event>
<event>
12    1  0.1081556E+000  0.3533380E+03  0.7818608E-02  0.1061253E+00
         -2   -1    0    0    0  501 -0.00000000000E+00  0.00000000000E+00  0.88565706669E+02  0.88565706669E+02  0.00000000000E+00 0.  1.
          2   -1    0    0  502    0  0.00000000000E+00 -0.00000000000E+00 -0.30405860136E+04  0.30405860136E+04  0.00000000000E+00 0. -1.
          6    2    1    2  502    0 -0.80984271291E+02  0.29828250894E+03 -0.33124967810E+03  0.48474564957E+03  0.17239805159E+03 0.  0.
         24    2    3    3    0    0 -0.12194117866E+02  0.12116425550E+03 -0.69014420464E+02  0.16087471654E+03  0.79298240006E+02 0.  0.
         -6    2    1    2    0  501  0.80984271291E+02 -0.29828250894E+03 -0.26207706288E+04  0.26444060707E+04  0.17004079069E+03 0.  0.
        -24    2    5    5    0    0 -0.25687244631E+01 -0.10214015217E+03 -0.69592917704E+03  0.70778797935E+03  0.78785755246E+02 0.  0.
          5    1    3    3  502    0 -0.68790153425E+02  0.17711825344E+03 -0.26223525764E+03  0.32387093303E+03  0.47000000000E+01 0. -1.
        -13    1    4    4    0    0 -0.44382183462E+02  0.50439602486E+02 -0.25859847992E+02  0.71990717776E+02  0.00000000000E+00 0.  1.
         14    1    4    4    0    0  0.32188065596E+02  0.70724653016E+02 -0.43154572472E+02  0.88883998764E+02  0.00000000000E+00 0. -1.
         -5    1    5    5    0  501  0.83552995754E+02 -0.19614235678E+03 -0.19248414518E+04  0.19366180914E+04  0.47000000000E+01 0.  1.
         13    1    6    6    0    0  0.66874936115E+01 -0.54592514854E+02 -0.57339062756E+03  0.57602246225E+03  0.00000000000E+00 0. -1.
        -14    1    6    6    0    0 -0.92562180746E+01 -0.47547637313E+02 -0.12253854948E+03  0.13176551709E+03  0.00000000000E+00 0.  1.
</event>
<event>
12    1  0.1081556E+000  0.7191870E+03  0.7818608E-02  0.9684971E-01
         -2   -1    0    0    0  501 -0.00000000000E+00  0.00000000000E+00  0.37618142368E+03  0.37618142368E+03  0.00000000000E+00 0.  1.
          2   -1    0    0  502    0  0.00000000000E+00 -0.00000000000E+00 -0.13782199384E+04  0.13782199384E+04  0.00000000000E+00 0. -1.
          6    2    1    2  502    0 -0.43710230234E+03  0.54417013131E+03 -0.54385524538E+03  0.90178135984E+03  0.17392969416E+03 0.  0.
         24    2    3    3    0    0 -0.40198949217E+03  0.53640665403E+03 -0.54162725872E+03  0.86544632244E+03  0.79432986484E+02 0.  0.
         -6    2    1    2    0  501  0.43710230234E+03 -0.54417013131E+03 -0.45818326930E+03  0.85262000220E+03  0.17276980455E+03 0.  0.
        -24    2    5    5    0    0  0.13028012464E+03 -0.11846620347E+03 -0.14413774608E+03  0.24105613508E+03  0.79531240251E+02 0.  0.
          5    1    3    3  502    0 -0.35112810178E+02  0.77634772775E+01 -0.22279866530E+01  0.36335037396E+02  0.47000000000E+01 0. -1.
        -11    1    4    4    0    0 -0.14087095780E+03  0.14983904781E+03 -0.20326842756E+03  0.28916158224E+03  0.00000000000E+00 0.  1.
         12    1    4    4    0    0 -0.26111853436E+03  0.38656760622E+03 -0.33835883116E+03  0.57628474020E+03  0.00000000000E+00 0. -1.
         -5    1    5    5    0  501  0.30682217770E+03 -0.42570392784E+03 -0.31404552322E+03  0.61156386711E+03  0.47000000000E+01 0.  1.
         13    1    6    6    0    0  0.12150793989E+03 -0.13032237880E+03 -0.13644255040E+03  0.22442074644E+03  0.00000000000E+00 0. -1.
        -14    1    6    6    0    0  0.87721847532E+01  0.11856175333E+02 -0.76951956824E+01  0.16635388647E+02  0.00000000000E+00 0.  1.
</event>
<event>
12    1  0.1081556E+000  0.2255103E+03  0.7818608E-02  0.1129840E+00
          2   -1    0    0  502    0  0.00000000000E+00  0.00000000000E+00  0.97370796321E+03  0.97370796321E+03  0.00000000000E+00 0. -1.
         -2   -1    0    0    0  501 -0.00000000000E+00 -0.00000000000E+00 -0.13213736991E+03  0.13213736991E+03  0.00000000000E+00 0.  1.
          6    2    1    2  502    0  0.17903476193E+02  0.14371403668E+03 -0.99274625980E+01  0.22473495259E+03  0.17156044300E+03 0.  0.
         24    2    3    3    0    0 -0.33033405945E+01  0.28910507758E+02  0.45182008926E+02  0.95550111441E+02  0.79004305882E+02 0.  0.
         -6    2    1    2    0  501 -0.17903476193E+02 -0.14371403668E+03  0.85149805590E+03  0.88111038053E+03  0.17416171992E+03 0.  0.
        -24    2    5    5    0    0 -0.26389086936E+02 -0.15669870273E+03  0.51664753872E+03  0.54586783252E+03  0.76132410770E+02 0.  0.
          5    1    3    3  502    0  0.21206816787E+02  0.11480352892E+03 -0.55109471524E+02  0.12918484115E+03  0.47000000000E+01 0. -1.
        -11    1    4    4    0    0  0.16514738440E+02  0.32448425508E+02 -0.92066554387E+01  0.37555284689E+02  0.00000000000E+00 0.  1.
         12    1    4    4    0    0 -0.19818079035E+02 -0.35379177491E+01  0.54388664365E+02  0.57994826753E+02  0.00000000000E+00 0. -1.
         -5    1    5    5    0  501  0.84856107434E+01  0.12984666053E+02  0.33485051718E+03  0.33524254801E+03  0.47000000000E+01 0.  1.
         13    1    6    6    0    0  0.84884697037E+01 -0.12338179570E+03  0.42035409458E+03  0.43816970052E+03  0.00000000000E+00 0. -1.
        -14    1    6    6    0    0 -0.34877556640E+02 -0.33316907029E+02  0.96293444141E+02  0.10769813200E+03  0.00000000000E+00 0.  1.
</event>
<event>
12    1  0.1081556E+000  0.1826310E+03  0.7818608E-02  0.1165281E+00
         -1   -1    0    0    0  501 -0.00000000000E+00  0.00000000000E+00  0.21162017134E+03  0.21162017134E+03  0.00000000000E+00 0.  1.
          1   -1    0    0  502    0  0.00000000000E+00 -0.00000000000E+00 -0.25994710846E+03  0.25994710846E+03  0.00000000000E+00 0. -1.
          6    2    1    2  502    0 -0.14268004206E+02  0.60077521512E+02  0.12373409886E+03  0.22101191463E+03  0.17240433478E+03 0.  0.
         24    2    3    3    0    0 -0.82794024949E+01  0.30450808592E+02 -0.70074415290E+01  0.86739632108E+02  0.80491361598E+02 0.  0.
         -6    2    1    2    0  501  0.14268004206E+02 -0.60077521512E+02 -0.17206103599E+03  0.25055536518E+03  0.17134791035E+03 0.  0.
        -24    2    5    5    0    0 -0.14574743360E+02 -0.61186681387E+02 -0.19039699666E+03  0.21603824223E+03  0.80406919155E+02 0.  0.
          5    1    3    3  502    0 -0.59886017115E+01  0.29626712920E+02  0.13074154039E+03  0.13427228252E+03  0.47000000000E+01 0. -1.
        -11    1    4    4    0    0  0.31954483996E+02  0.27149423076E+02  0.97193503150E+01  0.43042374370E+02  0.00000000000E+00 0.  1.
         12    1    4    4    0    0 -0.40233886491E+02  0.33013855159E+01 -0.16726791844E+02  0.43697257739E+02  0.00000000000E+00 0. -1.
         -5    1    5    5    0  501  0.28842747567E+02  0.11091598749E+01  0.18335960671E+02  0.34517122947E+02  0.47000000000E+01 0.  1.
         13    1    6    6    0    0 -0.25739092450E+02 -0.26764434085E+02 -0.20673462156E+02  0.42499739406E+02  0.00000000000E+00 0. -1.
        -14    1    6    6    0    0  0.11164349090E+02 -0.34422247301E+02 -0.16972353450E+03  0.17353850283E+03  0.00000000000E+00 0.  1.
</event>
<event>
12    1  0.1081556E+000  0.1444351E+04  0.7818608E-02  0.8922326E-01
         -1   -1    0    0    0  501 -0.00000000000E+00  0.00000000000E+00  0.17474397102E+04  0.17474397102E+04  0.00000000000E+00 0.  1.
          1   -1    0    0  502    0  0.00000000000E+00 -0.00000000000E+00 -0.16316920106E+04  0.16316920106E+04  0.00000000000E+00 0. -1.
          6    2    1    2  502    0  0.10182314105E+04  0.10099751201E+04  0.93310560900E+03  0.17195362440E+04  0.17109607898E+03 0.  0.
         24    2    3    3    0    0  0.34454345668E+03  0.29418019892E+03  0.26502968092E+03  0.53102231306E+03  0.80571596825E+02 0.  0.
         -6    2    1    2    0  501 -0.10182314105E+04 -0.10099751201E+04 -0.81735790942E+03  0.16595954768E+04  0.17128410863E+03 0.  0.
        -24    2    5    5    0    0 -0.43231641172E+03 -0.44601905011E+03 -0.28721930388E+03  0.68881647733E+03  0.78375621289E+02 0.  0.
          5    1    3    3  502    0  0.67368795383E+03  0.71579492121E+03  0.66807592808E+03  0.11885139309E+04  0.47000000000E+01 0. -1.
        -11    1    4    4    0    0  0.27765274310E+03  0.24550120116E+03  0.24968404282E+03  0.44688254246E+03  0.00000000000E+00 0.  1.
         12    1    4    4    0    0  0.66890713582E+02  0.48678997764E+02  0.15345638106E+02  0.84139770594E+02  0.00000000000E+00 0. -1.
         -5    1    5    5    0  501 -0.58591499879E+03 -0.56395607002E+03 -0.53013860554E+03  0.97077899947E+03  0.47000000000E+01 0.  1.
         13    1    6    6    0    0 -0.17745981180E+03 -0.13252807475E+03 -0.11592069430E+03  0.24998656517E+03  0.00000000000E+00 0. -1.
        -14    1    6    6    0    0 -0.25485659992E+03 -0.31349097536E+03 -0.17129860958E+03  0.43882991215E+03  0.00000000000E+00 0.  1.
</event>
<event>
12    1  0.1081556E+000  0.4719118E+03  0.7818608E-02  0.1021382E+00
         -2   -1    0    0    0  501 -0.00000000000E+00  0.00000000000E+00  0.10493304265E+03  0.10493304265E+03  0.00000000000E+00 0.  1.
          2   -1    0    0  502    0  0.00000000000E+00 -0.00000000000E+00 -0.21227355327E+04  0.21227355327E+04  0.00000000000E+00 0. -1.
          6    2    1    2  502    0  0.43088298244E+03  0.92034360054E+02 -0.10232703314E+04  0.11265965950E+04  0.16735366379E+03 0.  0.
         24    2    3    3    0    0  0.37371660775E+03  0.27641218793E+02 -0.85352832375E+03  0.93620512935E+03  0.86840686825E+02 0.  0.
         -6    2    1    2    0  501 -0.43088298244E+03 -0.92034360054E+02 -0.99453215867E+03  0.11010719803E+04  0.17068925945E+03 0.  0.
        -24    2    5    5    0    0 -0.28961542214E+03 -0.11297207458E+03 -0.77650726281E+03  0.84039621105E+03  0.81624015951E+02 0.  0.
          5    1    3    3  502    0  0.57166374690E+02  0.64393141261E+02 -0.16974200760E+03  0.19039146562E+03  0.47000000000E+01 0. -1.
        -11    1    4    4    0    0  0.27864614921E+03  0.58289410273E+02 -0.64117151923E+03  0.70152850897E+03  0.00000000000E+00 0.  1.
         12    1    4    4    0    0  0.95070458536E+02 -0.30648191480E+02 -0.21235680452E+03  0.23467662038E+03  0.00000000000E+00 0. -1.
         -5    1    5    5    0  501 -0.14126756030E+03  0.20937714524E+02 -0.21802489586E+03  0.26067576929E+03  0.47000000000E+01 0.  1.
         11    1    6    6    0    0 -0.22901100152E+03 -0.58879994726E+02 -0.62937308849E+03  0.67232683802E+03  0.00000000000E+00 0. -1.
        -12    1    6    6    0    0 -0.60604420622E+02 -0.54092079853E+02 -0.14713417432E+03  0.16806937304E+03  0.00000000000E+00 0.  1.
</event>
<event>
12    1  0.1081556E+000  0.9737940E+03  0.7818608E-02  0.9337763E-01
          1   -1    0    0  502    0  0.00000000000E+00  0.00000000000E+00  0.28927047123E+04  0.28927047123E+04  0.00000000000E+00 0. -1.
         -1   -1    0    0    0  501 -0.00000000000E+00 -0.00000000000E+00 -0.11226397211E+04  0.11226397211E+04  0.00000000000E+00 0.  1.
          6    2    1    2  502    0  0.17136793946E+02 -0.95815203607E+03 -0.80424898089E+03  0.12630370359E+04  0.17348526422E+03 0.  0.
         24    2    3    3    0    0 -0.19326109950E+02 -0.67164020088E+03 -0.63658029766E+03  0.92904084971E+03  0.80052277267E+02 0.  0.
         -6    2    1    2    0  501 -0.17136793946E+02  0.95815203607E+03  0.25743139720E+04  0.27523073975E+04  0.17249518799E+03 0.  0.
        -24    2    5    5    0    0  0.51570683481E+02  0.55375692940E+03  0.15655242121E+04  0.16633009744E+04  0.79986252875E+02 0.  0.
          5    1    3    3  502    0  0.36462903896E+02 -0.28651183519E+03 -0.16766868323E+03  0.33399618621E+03  0.47000000000E+01 0. -1.
        -13    1    4    4    0    0  0.30868853754E+02 -0.21155748107E+03 -0.19543432597E+03  0.28966192311E+03  0.00000000000E+00 0.  1.
         14    1    4    4    0    0 -0.50194963704E+02 -0.46008271981E+03 -0.44114597169E+03  0.63937892661E+03  0.00000000000E+00 0. -1.
         -5    1    5    5    0  501 -0.68707477427E+02  0.40439510667E+03  0.10087897599E+04  0.10890064231E+04  0.47000000000E+01 0.  1.
         11    1    6    6    0    0  0.11347199494E+02  0.45612703735E+03  0.12761924345E+04  0.13553035686E+04  0.00000000000E+00 0. -1.
        -12    1    6    6    0    0  0.40223483987E+02  0.97629892053E+02  0.28933177757E+03  0.30799740583E+03  0.00000000000E+00 0.  1.
</event>
<event>
12    1  0.1081556E+000  0.1765769E+03  0.7818608E-02  0.1171158E+00
          1   -1    0    0  502    0  0.00000000000E+00  0.00000000000E+00  0.64602987866E+03  0.64602987866E+03  0.00000000000E+00 0. -1.
         -1   -1    0    0    0  501 -0.00000000000E+00 -0.00000000000E+00 -0.10090715324E+03  0.10090715324E+03  0.00000000000E+00 0.  1.
          6    2    1    2  502    0  0.30252413831E+02 -0.87642734038E+01  0.16452375172E+01  0.17499685435E+03  0.17213126153E+03 0.  0.
         24    2    3    3    0    0 -0.23137196093E+02 -0.23150462109E+02  0.50971833639E+02  0.10074986143E+03  0.80505484372E+02 0.  0.
         -6    2    1    2    0  501 -0.30252413831E+02  0.87642734038E+01  0.54347748791E+03  0.57194017755E+03  0.17537321859E+03 0.  0.
        -24    2    5    5    0    0 -0.54199633360E+02  0.45492658568E+02  0.21629589419E+03  0.24180031497E+03  0.81708605623E+02 0.  0.
          5    1    3    3  502    0  0.53389609924E+02  0.14386188706E+02 -0.49326596122E+02  0.74246992924E+02  0.47000000000E+01 0. -1.
        -13    1    4    4    0    0 -0.58229664496E+01  0.23506881876E+02 -0.61536965133E+01  0.24986964893E+02  0.00000000000E+00 0.  1.
         14    1    4    4    0    0 -0.17314229643E+02 -0.46657343985E+02  0.57125530153E+02  0.75762896533E+02  0.00000000000E+00 0. -1.
         -5    1    5    5    0  501  0.23947219529E+02 -0.36728385164E+02  0.32718159372E+03  0.33013986258E+03  0.47000000000E+01 0.  1.
         11    1    6    6    0    0  0.11830721558E+02 -0.10965681927E+02  0.68392295618E+02  0.70268899612E+02  0.00000000000E+00 0. -1.
        -12    1    6    6    0    0 -0.66030354918E+02  0.56458340495E+02  0.14790359857E+03  0.17153141535E+03  0.00000000000E+00 0.  1.
</event>
<event>
12    1  0.1081556E+000  0.1004076E+04  0.7818608E-02  0.9304085E-01
          1   -1    0    0  502    0  0.00000000000E+00  0.00000000000E+00  0.38193300863E+04  0.38193300863E+04  0.00000000000E+00 0. -1.
         -1   -1    0    0    0  501 -0.00000000000E+00 -0.00000000000E+00 -0.51033897569E+03  0.51033897569E+03  0.00000000000E+00 0.  1.
          6    2    1    2  502    0  0.93501868716E+03 -0.32289262013E+03  0.15035244367E+03  0.10152856052E+04  0.17227714105E+03 0.  0.
         24    2    3    3    0    0  0.76199428338E+03 -0.31614793504E+03  0.14839617274E+03  0.84205497258E+03  0.80314058726E+02 0.  0.
         -6    2    1    2    0  501 -0.93501868716E+03  0.32289262013E+03  0.31586386669E+04  0.33143834568E+04  0.17210427328E+03 0.  0.
        -24    2    5    5    0    0 -0.56241130779E+03  0.18174917098E+03  0.21088081124E+04  0.21914747269E+04  0.78425655682E+02 0.  0.
          5    1    3    3  502    0  0.17302440378E+03 -0.67446850861E+01  0.19562709338E+01  0.17323063262E+03  0.47000000000E+01 0. -1.
        -13    1    4    4    0    0  0.57597486693E+02 -0.39021433081E+02  0.30561328891E+02  0.75987745963E+02  0.00000000000E+00 0.  1.
         14    1    4    4    0    0  0.70439679668E+03 -0.27712650196E+03  0.11783484385E+03  0.76606722661E+03  0.00000000000E+00 0. -1.
         -5    1    5    5    0  501 -0.37260737937E+03  0.14114344915E+03  0.10498305545E+04  0.11229087299E+04  0.47000000000E+01 0.  1.
         13    1    6    6    0    0 -0.15722665140E+03  0.68288430922E+02  0.50071328221E+03  0.52924221364E+03  0.00000000000E+00 0. -1.
        -14    1    6    6    0    0 -0.40518465639E+03  0.11346074006E+03  0.16080948302E+04  0.16622325133E+04  0.00000000000E+00 0.  1.
</event>
<event>
12    1  0.1081556E+000  0.2587094E+03  0.7818608E-02  0.1107921E+00
          3   -1    0    0  502    0  0.00000000000E+00  0.00000000000E+00  0.35394236069E+03  0.35394236069E+03  0.00000000000E+00 0. -1.
         -3   -1    0    0    0  501 -0.00000000000E+00 -0.00000000000E+00 -0.21007107150E+03  0.21007107150E+03  0.00000000000E+00 0.  1.
          6    2    1    2  502    0 -0.29640332814E+01 -0.19200001724E+03 -0.17236897634E+02  0.25899810341E+03  0.17294540993E+03 0.  0.
         24    2    3    3    0    0  0.57171621486E+02 -0.13129020450E+03 -0.42856926722E+02  0.16966471532E+03  0.80272581591E+02 0.  0.
         -6    2    1    2    0  501  0.29640332814E+01  0.19200001724E+03  0.16110818682E+03  0.30501532877E+03  0.17379790221E+03 0.  0.
        -24    2    5    5    0    0  0.36261728801E+02  0.61243181229E+02  0.25694421422E+02  0.11379539113E+03  0.84991455620E+02 0.  0.
          5    1    3    3  502    0 -0.60135654768E+02 -0.60709812739E+02  0.25620029089E+02  0.89333388090E+02  0.47000000000E+01 0. -1.
        -13    1    4    4    0    0  0.25573314642E+02 -0.12946428822E+03 -0.39950544360E+02  0.13788053649E+03  0.00000000000E+00 0.  1.
         14    1    4    4    0    0  0.31598306844E+02 -0.18259162768E+01 -0.29063823621E+01  0.31784178833E+02  0.00000000000E+00 0. -1.
         -5    1    5    5    0  501 -0.33297695520E+02  0.13075683601E+03  0.13541376540E+03  0.19121993764E+03  0.47000000000E+01 0.  1.
         11    1    6    6    0    0 -0.10999832550E+01 -0.16772584812E+02  0.21367814730E+02  0.27186634047E+02  0.00000000000E+00 0. -1.
        -12    1    6    6    0    0  0.37361712056E+02  0.78015766041E+02  0.43266066919E+01  0.86608757087E+02  0.00000000000E+00 0.  1.
</event>
<event>
12    1  0.1081556E+000  0.3727325E+03  0.7818608E-02  0.1053653E+00
         -1   -1    0    0    0  501 -0.00000000000E+00  0.00000000000E+00  0.21311349461E+03  0.21311349461E+03  0.00000000000E+00 0.  1.
          1   -1    0    0  502    0  0.00000000000E+00 -0.00000000000E+00 -0.66990043317E+03  0.66990043317E+03  0.00000000000E+00 0. -1.
          6    2    1    2  502    0 -0.32712560369E+03 -0.46396887798E+02 -0.15605857505E+03  0.40412976957E+03  0.17263475903E+03 0.  0.
         24    2    3    3    0    0 -0.22041040609E+03  0.32558373650E+02 -0.69938466713E+02  0.24582364282E+03  0.76792443864E+02 0.  0.
         -6    2    1    2    0  501  0.32712560369E+03  0.46396887798E+02 -0.30072836351E+03  0.47888415820E+03  0.17242000050E+03 0.  0.
        -24    2    5    5    0    0  0.31809067940E+03  0.62609592568E+02 -0.31171662175E+03  0.45680898047E+03  0.80034686007E+02 0.  0.
          5    1    3    3  502    0 -0.10671519760E+03 -0.78955261447E+02 -0.86120108338E+02  0.15830612676E+03  0.47000000000E+01 0. -1.
        -13    1    4    4    0    0 -0.30607979517E+02 -0.18290763992E+02  0.39932588644E+01  0.35879612232E+02  0.00000000000E+00 0.  1.
         14    1    4    4    0    0 -0.18980242657E+03  0.50849137642E+02 -0.73931725578E+02  0.20994403058E+03  0.00000000000E+00 0. -1.
         -5    1    5    5    0  501  0.90349242875E+01 -0.16212704770E+02  0.10988258234E+02  0.22075177731E+02  0.47000000000E+01 0.  1.
         13    1    6    6    0    0  0.58003521589E+02  0.40581543867E+02 -0.46523198097E+02  0.84709374809E+02  0.00000000000E+00 0. -1.
        -14    1    6    6    0    0  0.26008715781E+03  0.22028048701E+02 -0.26519342365E+03  0.37209960566E+03  0.00000000000E+00 0.  1.
</event>
<event>
12    1  0.1081556E+000  0.1809054E+04  0.7818608E-02  0.8701499E-01
          2   -1    0    0  502    0  0.00000000000E+00  0.00000000000E+00  0.28225951458E+04  0.28225951458E+04  0.00000000000E+00 0. -1.
         -2   -1    0    0    0  501 -0.00000000000E+00 -0.00000000000E+00 -0.13478639032E+04  0.13478639032E+04  0.00000000000E+00 0.  1.
          6    2    1    2  502    0 -0.16871927365E+04  0.62822627893E+03  0.15166751017E+04  0.23600537310E+04  0.16811502413E+03 0.  0.
         24    2    3    3    0    0 -0.11099757494E+04  0.47425444487E+03  0.97541584340E+03  0.15539083033E+04  0.78939880610E+02 0.  0.
         -6    2    1    2    0  501  0.16871927365E+04 -0.62822627893E+03 -0.41943859043E+02  0.18104053180E+04  0.18579704058E+03 0.  0.
        -24    2    5    5    0    0  0.14499683007E+04 -0.50453337107E+03  0.12265720005E+02  0.15373922471E+04  0.80389539026E+02 0.  0.
          5    1    3    3  502    0 -0.57721698708E+03  0.15397183406E+03  0.54125925826E+03  0.80614542765E+03  0.47000000000E+01 0. -1.
        -13    1    4    4    0    0 -0.78241259222E+02  0.25051986238E+02  0.44230665232E+02  0.93304064252E+02  0.00000000000E+00 0.  1.
         14    1    4    4    0    0 -0.10317344902E+04  0.44920245863E+03  0.93118517817E+03  0.14606042391E+04  0.00000000000E+00 0. -1.
         -5    1    5    5    0  501  0.23722443586E+03 -0.12369290786E+03 -0.54209579048E+02  0.27301307090E+03  0.47000000000E+01 0.  1.
         13    1    6    6    0    0  0.65179363963E+03 -0.20208262864E+03  0.37865389380E+02  0.68345162606E+03  0.00000000000E+00 0. -1.
        -14    1    6    6    0    0  0.79817466104E+03 -0.30245074244E+03 -0.25599669375E+02  0.85394062100E+03  0.00000000000E+00 0.  1.
</event>
<event>
12    1  0.1081556E+000  0.2546023E+03  0.7818608E-02  0.1110430E+00
         -2   -1    0    0    0  501 -0.00000000000E+00  0.00000000000E+00  0.55412934746E+02  0.55412934746E+02  0.00000000000E+00 0.  1.
          2   -1    0    0  502    0  0.00000000000E+00 -0.00000000000E+00 -0.24873379884E+04  0.24873379884E+04  0.00000000000E+00 0. -1.
          6    2    1    2  502    0  0.13300404693E+03  0.13378385103E+03 -0.29199701896E+03  0.38780056836E+03  0.17186863136E+03 0.  0.
         24    2    3    3    0    0  0.14177900650E+03  0.15658245614E+03 -0.23957608089E+03  0.32977625399E+03  0.82075129640E+02 0.  0.
         -6    2    1    2    0  501 -0.13300404693E+03 -0.13378385103E+03 -0.21399280347E+04  0.21549503548E+04  0.17009068937E+03 0.  0.
        -24    2    5    5    0    0 -0.13655837412E+03 -0.64848385496E+02 -0.11618657164E+04  0.11744439958E+04  0.80828544142E+02 0.  0.
          5    1    3    3  502    0 -0.87749595621E+01 -0.22798605116E+02 -0.52420938068E+02  0.58024314373E+02  0.47000000000E+01 0. -1.
        -11    1    4    4    0    0  0.57971737906E+02  0.19493958457E+02 -0.38029557987E+02  0.72020719886E+02  0.00000000000E+00 0.  1.
         12    1    4    4    0    0  0.83807268590E+02  0.13708849769E+03 -0.20154652290E+03  0.25775553410E+03  0.00000000000E+00 0. -1.
         -5    1    5    5    0  501  0.35543271826E+01 -0.68935465530E+02 -0.97806231829E+03  0.98050635904E+03  0.47000000000E+01 0.  1.
         11    1    6    6    0    0 -0.13251678178E+03 -0.75674231953E+02 -0.11348013491E+04  0.11450158902E+04  0.00000000000E+00 0. -1.
        -12    1    6    6    0    0 -0.40415923351E+01  0.10825846456E+02 -0.27064367340E+02  0.29428105607E+02  0.00000000000E+00 0.  1.
</event>
<event>
12    1  0.1081556E+000  0.3862505E+03  0.7818608E-02  0.1048647E+00
          2   -1    0    0  502    0  0.00000000000E+00  0.00000000000E+00  0.26850888202E+03  0.26850888202E+03  0.00000000000E+00 0. -1.
         -2   -1    0    0    0  501 -0.00000000000E+00 -0.00000000000E+00 -0.70327344351E+03  0.70327344351E+03  0.00000000000E+00 0.  1.
          6    2    1    2  502    0 -0.31829333491E+03 -0.13545819857E+03 -0.43999119267E+03  0.58543508035E+03  0.17170443520E+03 0.  0.
         24    2    3    3    0    0 -0.19420631285E+03 -0.13745186595E+03 -0.35546436712E+03  0.43520712692E+03  0.80257209197E+02 0.  0.
         -6    2    1    2    0  501  0.31829333491E+03  0.13545819857E+03  0.52266311877E+01  0.38634724517E+03  0.17198053834E+03 0.  0.
        -24    2    5    5    0    0  0.10159637620E+03  0.78700784686E+02  0.48770740416E+02  0.15809923226E+03  0.78109826240E+02 0.  0.
          5    1    3    3  502    0 -0.12408702207E+03  0.19936673753E+01 -0.84526825555E+02  0.15022795343E+03  0.47000000000E+01 0. -1.
        -11    1    4    4    0    0 -0.15266039384E+03 -0.12253306699E+03 -0.22902746599E+03  0.30128579212E+03  0.00000000000E+00 0.  1.
         12    1    4    4    0    0 -0.41545919005E+02 -0.14918798959E+02 -0.12643690113E+03  0.13392133480E+03  0.00000000000E+00 0. -1.
         -5    1    5    5    0  501  0.21669695871E+03  0.56757413887E+02 -0.43544109228E+02  0.22824801291E+03  0.47000000000E+01 0.  1.
         11    1    6    6    0    0 -0.75731406451E+01  0.23512831915E+02 -0.37305439001E+01  0.24982447472E+02  0.00000000000E+00 0. -1.
        -12    1    6    6    0    0  0.10916951684E+03  0.55187952771E+02  0.52501284316E+02  0.13311678479E+03  0.00000000000E+00 0.  1.
</event>
<event>
12    1  0.1081556E+000  0.5615238E+03  0.7818608E-02  0.9988613E-01
         -2   -1    0    0    0  501 -0.00000000000E+00  0.00000000000E+00  0.71460947073E+03  0.71460947073E+03  0.00000000000E+00 0.  1.
          2   -1    0    0  502    0  0.00000000000E+00 -0.00000000000E+00 -0.12187582744E+04  0.12187582744E+04  0.00000000000E+00 0. -1.
          6    2    1    2  502    0 -0.52987223739E+03  0.69027677717E+02  0.52004492159E+03  0.76533594794E+03  0.17251951917E+03 0.  0.
         24    2    3    3    0    0 -0.25583674209E+03 -0.29986851862E+02  0.26750853365E+03  0.37972468386E+03  0.79236166437E+02 0.  0.
         -6    2    1    2    0  501  0.52987223739E+03 -0.69027677717E+02 -0.10241937253E+04  0.11680317972E+04  0.17261542260E+03 0.  0.
        -24    2    5    5    0    0  0.29951117447E+03 -0.99937676397E+02 -0.65533041345E+03  0.73202276043E+03  0.81883381725E+02 0.  0.
          5    1    3    3  502    0 -0.27403549530E+03  0.99014529579E+02  0.25253638794E+03  0.38561126409E+03  0.47000000000E+01 0. -1.
        -11    1    4    4    0    0 -0.16732050383E+03 -0.34145995058E+02  0.12391870719E+03  0.21099276284E+03  0.00000000000E+00 0.  1.
         12    1    4    4    0    0 -0.88516238255E+02  0.41591431965E+01  0.14358982646E+03  0.16873192102E+03  0.00000000000E+00 0. -1.
         -5    1    5    5    0  501  0.23036106292E+03  0.30909998680E+02 -0.36886331183E+03  0.43600903677E+03  0.47000000000E+01 0.  1.
         13    1    6    6    0    0  0.21707485484E+03 -0.60901676232E+02 -0.37857302832E+03  0.44062233777E+03  0.00000000000E+00 0. -1.
        -14    1    6    6    0    0  0.82436319629E+02 -0.39036000165E+02 -0.27675738513E+03  0.29140042266E+03  0.00000000000E+00 0.  1.
</event>
<event>
12    1  0.1081556E+000  0.9354650E+03  0.7818608E-02  0.9382303E-01
          2   -1    0    0  502    0  0.00000000000E+00  0.00000000000E+00  0.21638356851E+04  0.21638356851E+04  0.00000000000E+00 0. -1.
         -2   -1    0    0    0  501 -0.00000000000E+00 -0.00000000000E+00 -0.46471905651E+03  0.46471905651E+03  0.00000000000E+00 0.  1.
          6    2    1    2  502    0 -0.69535035653E+03  0.60167486196E+03  0.37613727668E+03  0.10082601252E+04  0.17200137027E+03 0.  0.
         24    2    3    3    0    0 -0.61556398758E+03  0.56767199948E+03  0.37481173568E+03  0.92139294854E+03  0.85502085407E+02 0.  0.
         -6    2    1    2    0  501  0.69535035653E+03 -0.60167486196E+03  0.13229793519E+04  0.16202946164E+04  0.17191719076E+03 0.  0.
        -24    2    5    5    0    0  0.20498283905E+03 -0.24046234134E+03  0.48321743004E+03  0.58291476181E+03  0.80314587339E+02 0.  0.
          5    1    3    3  502    0 -0.79786368953E+02  0.34002862473E+02  0.13255409984E+01  0.86867176690E+02  0.47000000000E+01 0. -1.
        -13    1    4    4    0    0 -0.25065211271E+03  0.19842195183E+03  0.10609599015E+03  0.33682949945E+03  0.00000000000E+00 0.  1.
         14    1    4    4    0    0 -0.36491187487E+03  0.36925004765E+03  0.26871574553E+03  0.58456344909E+03  0.00000000000E+00 0. -1.
         -5    1    5    5    0  501  0.49036751748E+03 -0.36121252061E+03  0.83976192185E+03  0.10373798546E+04  0.47000000000E+01 0.  1.
         13    1    6    6    0    0  0.16022770969E+03 -0.18514440070E+03  0.30570403098E+03  0.39167119197E+03  0.00000000000E+00 0. -1.
        -14    1    6    6    0    0  0.44755129354E+02 -0.55317940646E+02  0.17751339906E+03  0.19124356984E+03  0.00000000000E+00 0.  1.
</event>
<event>
12    1  0.1081556E+000  0.2143020E+03  0.7818608E-02  0.1138204E+00
          2   -1    0    0  502    0  0.00000000000E+00  0.00000000000E+00  0.23653140407E+04  0.23653140407E+04  0.00000000000E+00 0. -1.
         -2   -1    0    0    0  501 -0.00000000000E+00 -0.00000000000E+00 -0.19494224585E+02  0.19494224585E+02  0.00000000000E+00 0.  1.
          6    2    1    2  502    0 -0.58420503508E+02  0.11365276553E+03  0.10973855561E+04  0.11181120521E+04  0.17201626677E+03 0.  0.
         24    2    3    3    0    0 -0.90353990326E+02  0.11073363221E+03  0.84426680473E+03  0.86292690128E+03  0.10691407068E+03 0.  0.
         -6    2    1    2    0  501  0.58420503508E+02 -0.11365276553E+03  0.12484342601E+04  0.12666962132E+04  0.17205024994E+03 0.  0.
        -24    2    5    5    0    0  0.53459861484E+02 -0.40156254994E+02  0.10472151395E+04  0.10523656985E+04  0.79646302441E+02 0.  0.
          5    1    3    3  502    0  0.31933486817E+02  0.29191333194E+01  0.25311875136E+03  0.25518515084E+03  0.47000000000E+01 0. -1.
        -11    1    4    4    0    0 -0.80830686877E+02  0.84010285581E+02  0.81042326497E+03  0.81876565416E+03  0.00000000000E+00 0.  1.
         12    1    4    4    0    0 -0.95233034481E+01  0.26723346630E+02  0.33843539762E+02  0.44161247121E+02  0.00000000000E+00 0. -1.
         -5    1    5    5    0  501  0.49606420237E+01 -0.73496510536E+02  0.20121912058E+03  0.21433051467E+03  0.47000000000E+01 0.  1.
         11    1    6    6    0    0  0.63910478787E+02 -0.51199235773E+02  0.98169829538E+03  0.98510783887E+03  0.00000000000E+00 0. -1.
        -12    1    6    6    0    0 -0.10450617303E+02  0.11042980779E+02  0.65516844095E+02  0.67257859664E+02  0.00000000000E+00 0.  1.
</event>
<event>
12    1  0.1081556E+000  0.5484500E+03  0.7818608E-02  0.1001853E+00
          2   -1    0    0  502    0  0.00000000000E+00  0.00000000000E+00  0.17280377382E+04  0.17280377382E+04  0.00000000000E+00 0. -1.
         -2   -1    0    0    0  501 -0.00000000000E+00 -0.00000000000E+00 -0.52135958406E+03  0.52135958406E+03  0.00000000000E+00 0.  1.
          6    2    1    2  502    0 -0.43897977144E+03 -0.27911165818E+03 -0.31454338933E+03  0.63238101828E+03  0.17424594987E+03 0.  0.
         24    2    3    3    0    0 -0.44733330701E+03 -0.28195140727E+03 -0.29690193168E+03  0.61210401753E+03  0.83167828035E+02 0.  0.
         -6    2    1    2    0  501  0.43897977144E+03  0.27911165818E+03  0.15212215435E+04  0.16170163040E+04  0.17326334162E+03 0.  0.
        -24    2    5    5    0    0  0.33253494363E+03  0.20944199880E+03  0.93824219645E+03  0.10202991416E+04  0.79161098942E+02 0.  0.
          5    1    3    3  502    0  0.83535355674E+01  0.28397490983E+01 -0.17641457646E+02  0.20277000747E+02  0.47000000000E+01 0. -1.
        -13    1    4    4    0    0 -0.12930212656E+03 -0.12799221833E+03 -0.10014181621E+03  0.20767626547E+03  0.00000000000E+00 0.  1.
         14    1    4    4    0    0 -0.31803118045E+03 -0.15395918895E+03 -0.19676011547E+03  0.40442775206E+03  0.00000000000E+00 0. -1.
         -5    1    5    5    0  501  0.10644482781E+03  0.69669659377E+02  0.58297934704E+03  0.59671716239E+03  0.47000000000E+01 0.  1.
         13    1    6    6    0    0  0.14840973850E+03  0.13330262927E+03  0.41657377222E+03  0.46187525281E+03  0.00000000000E+00 0. -1.
        -14    1    6    6    0    0  0.18412520512E+03  0.76139369533E+02  0.52166842423E+03  0.55842388881E+03  0.00000000000E+00 0.  1.
</event>
<event>
12    1  0.1081556E+000  0.2333194E+03  0.7818608E-02  0.1124325E+00
         -1   -1    0    0    0  501 -0.00000000000E+00  0.00000000000E+00  0.48496319418E+02  0.48496319418E+02  0.00000000000E+00 0.  1.
          1   -1    0    0  502    0  0.00000000000E+00 -0.00000000000E+00 -0.12842424117E+04  0.12842424117E+04  0.00000000000E+00 0. -1.
          6    2    1    2  502    0  0.96290609423E+02  0.11641600201E+03 -0.39339249525E+03  0.45997570458E+03  0.18437848708E+03 0.  0.
         24    2    3    3    0    0  0.13556904965E+03  0.98287380271E+02 -0.25676723055E+03  0.31658813278E+03  0.79115477555E+02 0.  0.
         -6    2    1    2    0  501 -0.96290609423E+02 -0.11641600201E+03 -0.84235359702E+03  0.87276302652E+03  0.17126339676E+03 0.  0.
        -24    2    5    5    0    0 -0.52495535161E+02 -0.14120754476E+03 -0.53663525087E+03  0.56289462495E+03  0.78597801582E+02 0.  0.
          5    1    3    3  502    0 -0.39278440227E+02  0.18128621737E+02 -0.13662526470E+03  0.14338757181E+03  0.47000000000E+01 0. -1.
        -11    1    4    4    0    0  0.51372678555E+02  0.69755997314E+02 -0.17736608729E+03  0.19739245219E+03  0.00000000000E+00 0.  1.
         12    1    4    4    0    0  0.84196371094E+02  0.28531382957E+02 -0.79401143262E+02  0.11919568059E+03  0.00000000000E+00 0. -1.
         -5    1    5    5    0  501 -0.43795074262E+02  0.24791542751E+02 -0.30571834615E+03  0.30986840158E+03  0.47000000000E+01 0.  1.
         11    1    6    6    0    0 -0.70039148114E+02 -0.12915913557E+03 -0.49154360194E+03  0.51303282272E+03  0.00000000000E+00 0. -1.
        -12    1    6    6    0    0  0.17543612953E+02 -0.12048409187E+02 -0.45091648920E+02  0.49861802231E+02  0.00000000000E+00 0.  1.
</event>
<event>
12    1  0.1081556E+000  0.4698839E+03  0.7818608E-02  0.1021953E+00
         -2   -1    0    0    0  501 -0.00000000000E+00  0.00000000000E+00  0.33359069398E+03  0.33359069398E+03  0.00000000000E+00 0.  1.
          2   -1    0    0  502    0  0.00000000000E+00 -0.00000000000E+00 -0.19128552230E+04  0.19128552230E+04  0.00000000000E+00 0. -1.
          6    2    1    2  502    0  0.43433694912E+03  0.54937809441E+02  0.11874417089E+03  0.48460888940E+03  0.17052521599E+03 0.  0.
         24    2    3    3    0    0  0.32660978793E+03  0.47242767553E+02  0.14300556514E+03  0.37381601878E+03  0.10189205849E+03 0.  0.
         -6    2    1    2    0  501 -0.43433694912E+03 -0.54937809441E+02 -0.16980086999E+04  0.17618370276E+04  0.17079056911E+03 0.  0.
        -24    2    5    5    0    0 -0.32500899920E+03 -0.20687341357E+02 -0.10052652593E+04  0.10596680595E+04  0.79242281369E+02 0.  0.
          5    1    3    3  502    0  0.10772716120E+03  0.76950418880E+01 -0.24261394252E+02  0.11079287062E+03  0.47000000000E+01 0. -1.
        -13    1    4    4    0    0  0.82151919798E+02  0.27951399931E+02  0.85761628607E+02  0.12200522786E+03  0.00000000000E+00 0.  1.
         14    1    4    4    0    0  0.24445786813E+03  0.19291367622E+02  0.57243936534E+02  0.25181079092E+03  0.00000000000E+00 0. -1.
         -5    1    5    5    0  501 -0.10932794993E+03 -0.34250468084E+02 -0.69274344059E+03  0.70216896804E+03  0.47000000000E+01 0.  1.
         13    1    6    6    0    0 -0.19809179750E+03 -0.42614006715E+02 -0.68918029880E+03  0.71834935655E+03  0.00000000000E+00 0. -1.
        -14    1    6    6    0    0 -0.12691720170E+03  0.21926665358E+02 -0.31608496052E+03  0.34131870298E+03  0.00000000000E+00 0.  1.
</event>
<event>
12    1  0.1081556E+000  0.2057921E+03  0.7818608E-02  0.1144942E+00
         -1   -1    0    0    0  501 -0.00000000000E+00  0.00000000000E+00  0.11927069185E+03  0.11927069185E+03  0.00000000000E+00 0.  1.
          1   -1    0    0  502    0  0.00000000000E+00 -0.00000000000E+00 -0.79616328832E+03  0.79616328832E+03  0.00000000000E+00 0. -1.
          6    2    1    2  502    0 -0.60759732474E+02 -0.95247122168E+02  0.21085308914E+01  0.20598478743E+03  0.17222522283E+03 0.  0.
         24    2    3    3    0    0 -0.98534845438E+02 -0.95702855800E+02  0.26423996285E+02  0.16081290779E+03  0.79337326395E+02 0.  0.
         -6    2    1    2    0  501  0.60759732474E+02  0.95247122168E+02 -0.67900112736E+03  0.70944919274E+03  0.17179018232E+03 0.  0.
        -24    2    5    5    0    0  0.97107925547E+01  0.32123578797E+02 -0.55145530882E+03  0.55818584019E+03  0.79638249351E+02 0.  0.
          5    1    3    3  502    0  0.37775112964E+02  0.45573363293E+00 -0.24315465394E+02  0.45171879637E+02  0.47000000000E+01 0. -1.
        -11    1    4    4    0    0 -0.65943353958E+02 -0.12022194827E+02  0.23268357897E+02  0.70954038496E+02  0.00000000000E+00 0.  1.
         12    1    4    4    0    0 -0.32591491479E+02 -0.83680660973E+02  0.31556383887E+01  0.89858869297E+02  0.00000000000E+00 0. -1.
         -5    1    5    5    0  501  0.51048939919E+02  0.63123543371E+02 -0.12754581855E+03  0.15126335255E+03  0.47000000000E+01 0.  1.
         11    1    6    6    0    0  0.74231861501E+01  0.52138498815E+02 -0.50243478493E+03  0.50518733145E+03  0.00000000000E+00 0. -1.
        -12    1    6    6    0    0  0.22876064046E+01 -0.20014920018E+02 -0.49020523887E+02  0.52998508739E+02  0.00000000000E+00 0.  1.
</event>
<event>
12    1  0.1081556E+000  0.4825051E+03  0.7818608E-02  0.1018449E+00
         -2   -1    0    0    0  501 -0.00000000000E+00  0.00000000000E+00  0.21582887617E+03  0.21582887617E+03  0.00000000000E+00 0.  1.
          2   -1    0    0  502    0  0.00000000000E+00 -0.00000000000E+00 -0.11164005482E+04  0.11164005482E+04  0.00000000000E+00 0. -1.
          6    2    1    2  502    0 -0.10215209882E+03 -0.43908548216E+03 -0.32767844845E+03  0.58309480170E+03  0.17145048922E+03 0.  0.
         24    2    3    3    0    0 -0.95248235227E+02 -0.35321866680E+03 -0.32652547123E+03  0.49681506671E+03  0.79816503675E+02 0.  0.
         -6    2    1    2    0  501  0.10215209882E+03  0.43908548216E+03 -0.57289322359E+03  0.74913462269E+03  0.17252514408E+03 0.  0.
        -24    2    5    5    0    0 -0.12354434273E+02  0.16286016983E+03 -0.17819966089E+03  0.25394045095E+03  0.77811095106E+02 0.  0.
          5    1    3    3  502    0 -0.69038635894E+01 -0.85866815361E+02 -0.11529772154E+01  0.86279734985E+02  0.47000000000E+01 0. -1.
        -13    1    4    4    0    0 -0.76866026849E+02 -0.15150720139E+03 -0.17466433374E+03  0.24366051719E+03  0.00000000000E+00 0.  1.
         14    1    4    4    0    0 -0.18382208377E+02 -0.20171146541E+03 -0.15186113749E+03  0.25315454952E+03  0.00000000000E+00 0. -1.
         -5    1    5    5    0  501  0.11450653309E+03  0.27622531233E+03 -0.39469356270E+03  0.49519417174E+03  0.47000000000E+01 0.  1.
         11    1    6    6    0    0  0.11642876551E+02  0.58951939673E+02 -0.11559043448E+03  0.13027676811E+03  0.00000000000E+00 0. -1.
        -12    1    6    6    0    0 -0.23997310825E+02  0.10390823016E+03 -0.62609226415E+02  0.12366368284E+03  0.00000000000E+00 0.  1.
</event>
<event>
12    1  0.1081556E+000  0.2279637E+03  0.7818608E-02  0.1128081E+00
         -1   -1    0    0    0  501 -0.00000000000E+00  0.00000000000E+00  0.55646377970E+02  0.55646377970E+02  0.00000000000E+00 0.  1.
          1   -1    0    0  502    0  0.00000000000E+00 -0.00000000000E+00 -0.94797389012E+03  0.94797389012E+03  0.00000000000E+00 0. -1.
          6    2    1    2  502    0 -0.14291436785E+03  0.43174213673E+02 -0.38544013990E+03  0.44792512466E+03  0.17258124637E+03 0.  0.
         24    2    3    3    0    0 -0.98289084164E+02  0.22178071481E+02 -0.11370792513E+03  0.17171371927E+03  0.80021860924E+02 0.  0.
         -6    2    1    2    0  501  0.14291436785E+03 -0.43174213673E+02 -0.50688737225E+03  0.55569514343E+03  0.17197021549E+03 0.  0.
        -24    2    5    5    0    0  0.10703409209E+03  0.26668390320E+02 -0.40345606803E+03  0.42575089302E+03  0.79495434875E+02 0.  0.
          5    1    3    3  502    0 -0.44625283681E+02  0.20996142192E+02 -0.27173221476E+03  0.27621140539E+03  0.47000000000E+01 0. -1.
        -13    1    4    4    0    0 -0.56248492984E+02  0.41748737074E+02 -0.30383479631E+02  0.76354474949E+02  0.00000000000E+00 0.  1.
         14    1    4    4    0    0 -0.42040591180E+02 -0.19570665593E+02 -0.83324445504E+02  0.95359244319E+02  0.00000000000E+00 0. -1.
         -5    1    5    5    0  501  0.35880275760E+02 -0.69842603993E+02 -0.10343130423E+03  0.12994425041E+03  0.47000000000E+01 0.  1.
         11    1    6    6    0    0  0.27300521311E+02  0.24731071163E+02 -0.25103819107E+03  0.25372646240E+03  0.00000000000E+00 0. -1.
        -12    1    6    6    0    0  0.79733570774E+02  0.19373191568E+01 -0.15241787695E+03  0.17202443062E+03  0.00000000000E+00 0.  1.
</event>
<event>
12    1  0.1081556E+000  0.2661785E+03  0.7818608E-02  0.1103487E+00
          3   -1    0    0  502    0  0.00000000000E+00  0.00000000000E+00  0.33063430296E+03  0.33063430296E+03  0.00000000000E+00 0. -1.
         -3   -1    0    0    0  501 -0.00000000000E+00 -0.00000000000E+00 -0.89926910770E+03  0.89926910770E+03  0.00000000000E+00 0.  1.
          6    2    1    2  502    0  0.79741894642E+02  0.18622016260E+03 -0.82107195439E+03  0.86320019433E+03  0.17297023582E+03 0.  0.
         24    2    3    3    0    0  0.80729235604E+02  0.10636419482E+03 -0.70531066201E+03  0.72248517293E+03  0.81799411640E+02 0.  0.
         -6    2    1    2    0  501 -0.79741894642E+02 -0.18622016260E+03  0.25243714965E+03  0.36670321632E+03  0.17236593520E+03 0.  0.
        -24    2    5    5    0    0 -0.62911749807E+02 -0.81148898719E+02  0.50744064446E+02  0.13861241228E+03  0.78073098663E+02 0.  0.
          5    1    3    3  502    0 -0.98734096197E+00  0.79855967775E+02 -0.11576129238E+03  0.14071502139E+03  0.47000000000E+01 0. -1.
        -11    1    4    4    0    0  0.13481297509E+02  0.83058781104E+02 -0.42750729947E+03  0.43570976303E+03  0.00000000000E+00 0.  1.
         12    1    4    4    0    0  0.67247938095E+02  0.23305413716E+02 -0.27780336254E+03  0.28677540990E+03  0.00000000000E+00 0. -1.
         -5    1    5    5    0  501 -0.16830144835E+02 -0.10507126388E+03  0.20169308521E+03  0.22809080404E+03  0.47000000000E+01 0.  1.
         13    1    6    6    0    0 -0.13873341994E+02  0.26838778502E+01  0.38142972681E+02  0.40676272977E+02  0.00000000000E+00 0. -1.
        -14    1    6    6    0    0 -0.49038407813E+02 -0.83832776569E+02  0.12601091765E+02  0.97936139304E+02  0.00000000000E+00 0.  1.
</event>
<event>
12    1  0.1081556E+000  0.3646405E+03  0.7818608E-02  0.1056761E+00
          1   -1    0    0  502    0  0.00000000000E+00  0.00000000000E+00  0.40694412696E+03  0.40694412696E+03  0.00000000000E+00 0. -1.
         -1   -1    0    0    0  501 -0.00000000000E+00 -0.00000000000E+00 -0.49163687958E+03  0.49163687958E+03  0.00000000000E+00 0.  1.
          6    2    1    2  502    0  0.96754177675E+02 -0.30599209249E+03 -0.30249518670E+03  0.47321604680E+03  0.17157376667E+03 0.  0.
         24    2    3    3    0    0  0.98287161635E+02 -0.24862163839E+03 -0.30793908523E+03  0.41537622423E+03  0.78980011544E+02 0.  0.
         -6    2    1    2    0  501 -0.96754177675E+02  0.30599209249E+03  0.21780243407E+03  0.42536495973E+03  0.17465656905E+03 0.  0.
        -24    2    5    5    0    0 -0.10042108970E+03  0.15989232922E+03  0.72796155080E+02  0.21943415092E+03  0.84865270831E+02 0.  0.
          5    1    3    3  502    0 -0.15329839600E+01 -0.57370454103E+02  0.54438985347E+01  0.57839822571E+02  0.47000000000E+01 0. -1.
        -11    1    4    4    0    0  0.83899804252E+02 -0.19061976812E+03 -0.18451546477E+03  0.27824634749E+03  0.00000000000E+00 0.  1.
         12    1    4    4    0    0  0.14387357383E+02 -0.58001870275E+02 -0.12342362046E+03  0.13712987674E+03  0.00000000000E+00 0. -1.
         -5    1    5    5    0  501  0.36669120259E+01  0.14609976327E+03  0.14500627899E+03  0.20593080882E+03  0.47000000000E+01 0.  1.
         13    1    6    6    0    0 -0.48821072032E+02  0.14544798522E+03  0.54224909451E+02  0.16272355172E+03  0.00000000000E+00 0. -1.
        -14    1    6    6    0    0 -0.51600017669E+02  0.14444344001E+02  0.18571245629E+02  0.56710599197E+02  0.00000000000E+00 0.  1.
</event>
<event>
12    1  0.1081556E+000  0.4003200E+03  0.7818608E-02  0.1043669E+00
          1   -1    0    0  502    0  0.00000000000E+00  0.00000000000E+00  0.22968137962E+04  0.22968137962E+04  0.00000000000E+00 0. -1.
         -1   -1    0    0    0  501 -0.00000000000E+00 -0.00000000000E+00 -0.28513634329E+03  0.28513634329E+03  0.00000000000E+00 0.  1.
          6    2    1    2  502    0 -0.34875680058E+03 -0.95377232027E+02 -0.11603954722E+03  0.41692594211E+03  0.17214512003E+03 0.  0.
         24    2    3    3    0    0 -0.25863791840E+03 -0.10611602304E+03 -0.13990007609E+03  0.32296770993E+03  0.81129077319E+02 0.  0.
         -6    2    1    2    0  501  0.34875680058E+03  0.95377232027E+02  0.21277170002E+04  0.21650241974E+04  0.17152848235E+03 0.  0.
        -24    2    5    5    0    0  0.17212951695E+03  0.57213130282E+02  0.14577014174E+04  0.14710525358E+04  0.78741525839E+02 0.  0.
          5    1    3    3  502    0 -0.90118882181E+02  0.10738791010E+02  0.23860528871E+02  0.93958232188E+02  0.47000000000E+01 0. -1.
        -13    1    4    4    0    0 -0.76447181686E+02 -0.63861266184E+02 -0.76115769736E+02  0.12536364429E+03  0.00000000000E+00 0.  1.
         14    1    4    4    0    0 -0.18219073671E+03 -0.42254756853E+02 -0.63784306354E+02  0.19760406564E+03  0.00000000000E+00 0. -1.
         -5    1    5    5    0  501  0.17662728363E+03  0.38164101745E+02  0.67001558273E+03  0.69397166158E+03  0.47000000000E+01 0.  1.
         13    1    6    6    0    0  0.73037047706E+02  0.61451180817E+02  0.58539843196E+03  0.59312897594E+03  0.00000000000E+00 0. -1.
        -14    1    6    6    0    0  0.99092469246E+02 -0.42380505346E+01  0.87230298547E+03  0.87792355988E+03  0.00000000000E+00 0.  1.
</event>
<event>
12    1  0.1081556E+000  0.1740640E+03  0.7818608E-02  0.1173675E+00
         -1   -1    0    0    0  501 -0.00000000000E+00  0.00000000000E+00  0.19622264037E+03  0.19622264037E+03  0.00000000000E+00 0.  1.
          1   -1    0    0  502    0  0.00000000000E+00 -0.00000000000E+00 -0.53018614843E+03  0.53018614843E+03  0.00000000000E+00 0. -1.
          6    2    1    2  502    0 -0.14984400450E+01 -0.29960523131E+02  0.13884903629E+03  0.22250502063E+03  0.17125872549E+03 0.  0.
         24    2    3    3    0    0  0.56013215810E+01  0.44577294807E+02  0.10732230805E+03  0.14112739771E+03  0.79877121654E+02 0.  0.
         -6    2    1    2    0  501  0.14984400450E+01  0.29960523131E+02 -0.47281254435E+03  0.50390376817E+03  0.17166079115E+03 0.  0.
        -24    2    5    5    0    0  0.27898146886E+02  0.59525776836E+02 -0.44148306800E+03  0.45316251438E+03  0.78277330076E+02 0.  0.
          5    1    3    3  502    0 -0.70997616260E+01 -0.74537817938E+02  0.31526728237E+02  0.81377622916E+02  0.47000000000E+01 0. -1.
        -13    1    4    4    0    0  0.30463332099E+02  0.54296550172E+02  0.89521473555E+02  0.10904230459E+03  0.00000000000E+00 0.  1.
         14    1    4    4    0    0 -0.24862010518E+02 -0.97192553647E+01  0.17800834499E+02  0.32085093122E+02  0.00000000000E+00 0. -1.
         -5    1    5    5    0  501 -0.26399706841E+02 -0.29565253706E+02 -0.31329476350E+02  0.50741253792E+02  0.47000000000E+01 0.  1.
         13    1    6    6    0    0  0.18233115198E+02  0.75608320063E+02 -0.28027553331E+03  0.29086670336E+03  0.00000000000E+00 0. -1.
        -14    1    6    6    0    0  0.96650316878E+01 -0.16082543227E+02 -0.16120753468E+03  0.16229581102E+03  0.00000000000E+00 0.  1.
</event>
<event>
12    1  0.1081556E+000  0.4223097E+03  0.7818608E-02  0.1036317E+00
         -1   -1    0    0    0  501 -0.00000000000E+00  0.00000000000E+00  0.67829713727E+03  0.67829713727E+03  0.00000000000E+00 0.  1.
          1   -1    0    0  502    0  0.00000000000E+00 -0.00000000000E+00 -0.30891119956E+03  0.30891119956E+03  0.00000000000E+00 0. -1.
          6    2    1    2  502    0  0.15179430976E+03 -0.35505367115E+03  0.37532528943E+03  0.56538963913E+03  0.17231293995E+03 0.  0.
         24    2    3    3    0    0  0.68836922503E+02 -0.25583713805E+03  0.32380515510E+03  0.42609763368E+03  0.80735691307E+02 0.  0.
         -6    2    1    2    0  501 -0.15179430976E+03  0.35505367115E+03 -0.59393517151E+01  0.42181869770E+03  0.16967945061E+03 0.  0.
        -24    2    5    5    0    0 -0.84909583137E+02  0.22701708935E+03 -0.68901066079E+02  0.26416971924E+03  0.79321418862E+02 0.  0.
          5    1    3    3  502    0  0.82957387255E+02 -0.99216533097E+02  0.51520134328E+02  0.13929200545E+03  0.47000000000E+01 0. -1.
        -13    1    4    4    0    0  0.74653561925E+02 -0.22005160963E+03  0.23645337241E+03  0.33152083273E+03  0.00000000000E+00 0.  1.
         14    1    4    4    0    0 -0.58166394222E+01 -0.35785528421E+02  0.87351782694E+02  0.94576800952E+02  0.00000000000E+00 0. -1.
         -5    1    5    5    0  501 -0.66884726621E+02  0.12803658180E+03  0.62961714364E+02  0.15764897846E+03  0.47000000000E+01 0.  1.
         13    1    6    6    0    0 -0.11946543562E+02  0.90471225995E+02  0.74289327487E+01  0.91558460438E+02  0.00000000000E+00 0. -1.
        -14    1    6    6    0    0 -0.72963039575E+02  0.13654586335E+03 -0.76329998827E+02  0.17261125880E+03  0.00000000000E+00 0.  1.
</event>
<event>
12    1  0.1081556E+000  0.7941749E+03  0.7818608E-02  0.9568487E-01
         -1   -1    0    0    0  501 -0.00000000000E+00  0.00000000000E+00  0.72333476948E+03  0.72333476948E+03  0.00000000000E+00 0.  1.
          1   -1    0    0  502    0  0.00000000000E+00 -0.00000000000E+00 -0.91658101729E+03  0.91658101729E+03  0.00000000000E+00 0. -1.
          6    2    1    2  502    0  0.24907425666E+03  0.73432668790E+03  0.84298796224E+02  0.79870713997E+03  0.17191026294E+03 0.  0.
         24    2    3    3    0    0  0.26349580393E+03  0.72585775790E+03  0.78313650459E+02  0.78033281629E+03  0.80540380817E+02 0.  0.
         -6    2    1    2    0  501 -0.24907425666E+03 -0.73432668790E+03 -0.27754504403E+03  0.84120864679E+03  0.17125147029E+03 0.  0.
        -24    2    5    5    0    0 -0.24283111196E+03 -0.61171391615E+03 -0.18738890545E+03  0.68881741352E+03  0.78701735336E+02 0.  0.
          5    1    3    3  502    0 -0.14421547267E+02  0.84689300041E+01  0.59851457644E+01  0.18374323683E+02  0.47000000000E+01 0. -1.
        -11    1    4    4    0    0  0.17765183421E+03  0.47001631096E+03  0.88866187302E+02  0.51026728879E+03  0.00000000000E+00 0.  1.
         12    1    4    4    0    0  0.85843969719E+02  0.25584144694E+03 -0.10552536843E+02  0.27006552750E+03  0.00000000000E+00 0. -1.
         -5    1    5    5    0  501 -0.62431446987E+01 -0.12261277176E+03 -0.90156138582E+02  0.15239123327E+03  0.47000000000E+01 0.  1.
         13    1    6    6    0    0 -0.20447757478E+03 -0.47737612026E+03 -0.17726407353E+03  0.54874546972E+03  0.00000000000E+00 0. -1.
        -14    1    6    6    0    0 -0.38353537184E+02 -0.13433779589E+03 -0.10124831925E+02  0.14007194380E+03  0.00000000000E+00 0.  1.
</event>
<event>
12    1  0.1081556E+000  0.1212699E+04  0.7818608E-02  0.9101813E-01
          2   -1    0    0  502    0  0.00000000000E+00  0.00000000000E+00  0.25279855398E+04  0.25279855398E+04  0.00000000000E+00 0. -1.
         -2   -1    0    0    0  501 -0.00000000000E+00 -0.00000000000E+00 -0.64032490814E+03  0.64032490814E+03  0.00000000000E+00 0.  1.
          6    2    1    2  502    0 -0.80022870654E+03  0.89517910284E+03  0.46483868898E+03  0.12989542483E+04  0.17174260817E+03 0.  0.
         24    2    3    3    0    0 -0.28263391693E+03  0.31874966603E+03  0.11305849593E+03  0.44810369968E+03  0.80817210880E+02 0.  0.
         -6    2    1    2    0  501  0.80022870654E+03 -0.89517910284E+03  0.14228219426E+04  0.18693561996E+04  0.16840045009E+03 0.  0.
        -24    2    5    5    0    0  0.76095240990E+03 -0.80520977365E+03  0.13424578121E+04  0.17424011242E+04  0.79732997702E+02 0.  0.
          5    1    3    3  502    0 -0.51759478962E+03  0.57642943681E+03  0.35178019305E+03  0.85085054861E+03  0.47000000000E+01 0. -1.
        -13    1    4    4    0    0 -0.21793526422E+03  0.21318490092E+03  0.11046636956E+03  0.32426285661E+03  0.00000000000E+00 0.  1.
         14    1    4    4    0    0 -0.64698652706E+02  0.10556476511E+03  0.25921263777E+01  0.12384084308E+03  0.00000000000E+00 0. -1.
         -5    1    5    5    0  501  0.39276296646E+02 -0.89969329190E+02  0.80364130587E+02  0.12695507535E+03  0.47000000000E+01 0.  1.
         11    1    6    6    0    0  0.74090294048E+03 -0.79169163819E+03  0.12939480574E+04  0.16881985643E+04  0.00000000000E+00 0. -1.
        -12    1    6    6    0    0  0.20049469413E+02 -0.13518135455E+02  0.48509754645E+02  0.54202559955E+02  0.00000000000E+00 0.  1.
</event>
<event>
12    1  0.1081556E+000  0.4957970E+03  0.7818608E-02  0.1014882E+00
          1   -1    0    0  502    0  0.00000000000E+00  0.00000000000E+00  0.73940037455E+03  0.73940037455E+03  0.00000000000E+00 0. -1.
         -1   -1    0    0    0  501 -0.00000000000E+00 -0.00000000000E+00 -0.34571190062E+03  0.34571190062E+03  0.00000000000E+00 0.  1.
          6    2    1    2  502    0 -0.37035200126E+03  0.28055208017E+03  0.90718118502E+02  0.50437026432E+03  0.17403882320E+03 0.  0.
         24    2    3    3    0    0 -0.27144201900E+03  0.16034150897E+03  0.11974076474E+03  0.34594624463E+03  0.77141326508E+02 0.  0.
         -6    2    1    2    0  501  0.37035200126E+03 -0.28055208017E+03  0.30297035543E+03  0.58074201086E+03  0.17204700630E+03 0.  0.
        -24    2    5    5    0    0  0.17788879260E+03 -0.16678874646E+03  0.88449688927E+02  0.27086237432E+03  0.77975444020E+02 0.  0.
          5    1    3    3  502    0 -0.98909982258E+02  0.12021057120E+03 -0.29022646242E+02  0.15842401969E+03  0.47000000000E+01 0. -1.
        -13    1    4    4    0    0 -0.16439557840E+03  0.13418461595E+03  0.59645867927E+02  0.22042923335E+03  0.00000000000E+00 0.  1.
         14    1    4    4    0    0 -0.10704644060E+03  0.26156893022E+02  0.60094896817E+02  0.12551701128E+03  0.00000000000E+00 0. -1.
         -5    1    5    5    0  501  0.19246320866E+03 -0.11376333371E+03  0.21452066651E+03  0.30987963654E+03  0.47000000000E+01 0.  1.
         11    1    6    6    0    0  0.18168856617E+03 -0.15918024316E+03  0.71527216717E+02  0.25192305893E+03  0.00000000000E+00 0. -1.
        -12    1    6    6    0    0 -0.37997735690E+01 -0.76085033057E+01  0.16922472210E+02  0.18939315390E+02  0.00000000000E+00 0.  1.
</event>
<event>
12    1  0.1846281E+000  0.6270729E+03  0.7818608E-02  0.9850778E-01
         -1   -1    0    0    0  501 -0.00000000000E+00  0.00000000000E+00  0.98995795498E+03  0.98995795498E+03  0.00000000000E+00 0.  1.
          1   -1    0    0  502    0  0.00000000000E+00 -0.00000000000E+00 -0.14958000597E+04  0.14958000597E+04  0.00000000000E+00 0. -1.
          6    2    1    2  502    0 -0.60251080337E+03  0.14850276988E+01  0.81228804424E+03  0.10258253998E+04  0.17171025157E+03 0.  0.
         24    2    3    3    0    0 -0.46695108005E+03 -0.28499465136E+02  0.70779335982E+03  0.85199577781E+03  0.77909142738E+02 0.  0.
         -6    2    1    2    0  501  0.60251080337E+03 -0.14850276988E+01 -0.13181301489E+04  0.14599326149E+04  0.17582570077E+03 0.  0.
        -24    2    5    5    0    0  0.31627624080E+03  0.64666860073E+02 -0.76200223699E+03  0.83095992749E+03  0.75063497385E+02 0.  0.
          5    1    3    3  502    0 -0.13555972332E+03  0.29984492834E+02  0.10449468442E+03  0.17382962195E+03  0.47000000000E+01 0. -1.
        -13    1    4    4    0    0 -0.31403941194E+03  0.16953340584E+02  0.48234386941E+03  0.57581574862E+03  0.00000000000E+00 0.  1.
         14    1    4    4    0    0 -0.15291166811E+03 -0.45452805720E+02  0.22544949041E+03  0.27618002918E+03  0.00000000000E+00 0. -1.
         -5    1    5    5    0  501  0.28623456257E+03 -0.66151887772E+02 -0.55612791195E+03  0.62897268741E+03  0.47000000000E+01 0.  1.
         11    1    6    6    0    0  0.15924385402E+03  0.18404445589E+02 -0.46461277577E+03  0.49148993893E+03  0.00000000000E+00 0. -1.
        -12    1    6    6    0    0  0.15703238678E+03  0.46262414485E+02 -0.29738946122E+03  0.33946998857E+03  0.00000000000E+00 0.  1.
</event>
<event>
12    1  0.1081556E+000  0.1938813E+03  0.7818608E-02  0.1155007E+00
         -2   -1    0    0    0  501 -0.00000000000E+00  0.00000000000E+00  0.18407287139E+02  0.18407287139E+02  0.00000000000E+00 0. -1.
          2   -1    0    0  502    0  0.00000000000E+00 -0.00000000000E+00 -0.20546820002E+04  0.20546820002E+04  0.00000000000E+00 0.  1.
          6    2    1    2  502    0  0.88360621304E+02 -0.52914525689E+01 -0.94119440531E+03  0.96111109474E+03  0.17335521043E+03 0.  0.
         24    2    3    3    0    0 -0.16437090505E+02 -0.16570065645E+02 -0.26669285665E+03  0.27840750119E+03  0.76425858892E+02 0.  0.
         -6    2    1    2    0  501 -0.88360621304E+02  0.52914525689E+01 -0.10950803078E+04  0.11119781926E+04  0.17163630595E+03 0.  0.
        -24    2    5    5    0    0 -0.86072924971E+02  0.36734355721E+02 -0.10467996907E+04  0.10541249499E+04  0.81436209071E+02 0.  0.
          5    1    3    3  502    0  0.10479771181E+03  0.11278613076E+02 -0.67450154865E+03  0.68270359355E+03  0.47000000000E+01 0. -1.
        -11    1    4    4    0    0 -0.15973394174E+02 -0.45313201253E+01 -0.26580941517E+03  0.26632748145E+03  0.00000000000E+00 0.  1.
         12    1    4    4    0    0 -0.46369633165E+00 -0.12038745520E+02 -0.88344148507E+00  0.12080019737E+02  0.00000000000E+00 0. -1.
         -5    1    5    5    0  501 -0.22876963337E+01 -0.31442903152E+02 -0.48280617048E+02  0.57853242741E+02  0.47000000000E+01 0.  1.
         11    1    6    6    0    0 -0.93091667206E+02  0.17558450868E+02 -0.65744044769E+03  0.66423060752E+03  0.00000000000E+00 0. -1.
        -12    1    6    6    0    0  0.70187422359E+01  0.19175904853E+02 -0.38935924303E+03  0.38989434236E+03  0.00000000000E+00 0.  1.
</event>
<event>
12    1  0.1081556E+000  0.3842667E+03  0.7818608E-02  0.1049368E+00
         -2   -1    0    0    0  501 -0.00000000000E+00  0.00000000000E+00  0.15014436587E+03  0.15014436587E+03  0.00000000000E+00 0.  1.
          2   -1    0    0  502    0  0.00000000000E+00 -0.00000000000E+00 -0.24332488399E+04  0.24332488399E+04  0.00000000000E+00 0. -1.
          6    2    1    2  502    0  0.38754860583E+02  0.34150962599E+03 -0.14492564712E+03  0.41102238725E+03  0.17264181350E+03 0.  0.
         24    2    3    3    0    0 -0.39387436509E+02  0.11605004689E+03 -0.58563968928E+02  0.15721405433E+03  0.79167776801E+02 0.  0.
         -6    2    1    2    0  501 -0.38754860583E+02 -0.34150962599E+03 -0.21381788269E+04  0.21723708185E+04  0.17104243175E+03 0.  0.
        -24    2    5    5    0    0  0.25188958497E+02 -0.21600991222E+03 -0.15656445945E+04  0.15827467625E+04  0.80929303233E+02 0.  0.
          5    1    3    3  502    0  0.78142297093E+02  0.22545957910E+03 -0.86361678192E+02  0.25380833292E+03  0.47000000000E+01 0. -1.
        -11    1    4    4    0    0 -0.29645805237E+02  0.73756511495E+02  0.56685599815E+01  0.79693345571E+02  0.00000000000E+00 0.  1.
         12    1    4    4    0    0 -0.97416312728E+01  0.42293535395E+02 -0.64232528910E+02  0.77520708757E+02  0.00000000000E+00 0. -1.
         -5    1    5    5    0  501 -0.63943819080E+02 -0.12549971377E+03 -0.57253423242E+03  0.58962405603E+03  0.47000000000E+01 0.  1.
         13    1    6    6    0    0  0.10257077243E+02 -0.21443685974E+03 -0.13924019257E+04  0.14088546756E+04  0.00000000000E+00 0. -1.
        -14    1    6    6    0    0  0.14931881253E+02 -0.15730524706E+01 -0.17324266882E+03  0.17389208685E+03  0.00000000000E+00 0.  1.
</event>
<event>
12    1  0.1081556E+000  0.9751086E+03  0.7818608E-02  0.9336275E-01
         -1   -1    0    0    0  501 -0.00000000000E+00  0.00000000000E+00  0.17695934215E+04  0.17695934215E+04  0.00000000000E+00 0.  1.
          1   -1    0    0  502    0  0.00000000000E+00 -0.00000000000E+00 -0.54471956197E+03  0.54471956197E+03  0.00000000000E+00 0. -1.
          6    2    1    2  502    0  0.20890051518E+03 -0.93698612230E+03  0.74720106180E+03  0.12283322272E+04  0.17002416000E+03 0.  0.
         24    2    3    3    0    0  0.10262220470E+03 -0.36783622456E+03  0.36234461849E+03  0.53308891918E+03  0.83996239279E+02 0.  0.
         -6    2    1    2    0  501 -0.20890051518E+03  0.93698612230E+03  0.47767279777E+03  0.10859807563E+04  0.17204790823E+03 0.  0.
        -24    2    5    5    0    0 -0.91474021065E+02  0.62658630711E+03  0.25978560098E+03  0.68894933776E+03  0.78643084484E+02 0.  0.
          5    1    3    3  502    0  0.10627831048E+03 -0.56914989774E+03  0.38485644332E+03  0.69524330802E+03  0.47000000000E+01 0. -1.
        -11    1    4    4    0    0  0.91938445955E+02 -0.32173180080E+03  0.27246317879E+03  0.43150922735E+03  0.00000000000E+00 0.  1.
         12    1    4    4    0    0  0.10683758748E+02 -0.46104423761E+02  0.89881439699E+02  0.10157969184E+03  0.00000000000E+00 0. -1.
         -5    1    5    5    0  501 -0.11742649412E+03  0.31039981519E+03  0.21788719680E+03  0.39703141855E+03  0.47000000000E+01 0.  1.
         13    1    6    6    0    0 -0.87950205253E+02  0.60684406439E+03  0.23407612353E+03  0.65634334666E+03  0.00000000000E+00 0. -1.
        -14    1    6    6    0    0 -0.35238158118E+01  0.19742242720E+02  0.25709477445E+02  0.32605991106E+02  0.00000000000E+00 0.  1.
</event>
<event>
12    1  0.1081556E+000  0.3702498E+03  0.7818608E-02  0.1054597E+00
         -2   -1    0    0    0  501 -0.00000000000E+00  0.00000000000E+00  0.43768884837E+03  0.43768884837E+03  0.00000000000E+00 0.  1.
          2   -1    0    0  502    0  0.00000000000E+00 -0.00000000000E+00 -0.41774030138E+03  0.41774030138E+03  0.00000000000E+00 0. -1.
          6    2    1    2  502    0  0.73112780311E+02  0.31921769638E+03  0.22394141121E+03  0.43287584797E+03  0.17316560795E+03 0.  0.
         24    2    3    3    0    0 -0.29119944577E+02  0.15923517354E+03  0.11563954191E+03  0.21424986016E+03  0.79540475619E+02 0.  0.
         -6    2    1    2    0  501 -0.73112780311E+02 -0.31921769638E+03 -0.20399286421E+03  0.42255330177E+03  0.17231595358E+03 0.  0.
        -24    2    5    5    0    0 -0.33731063705E+01 -0.26370713558E+03 -0.18332519852E+03  0.33093296076E+03  0.79722424088E+02 0.  0.
          5    1    3    3  502    0  0.10223272489E+03  0.15998252285E+03  0.10830186930E+03  0.21862598781E+03  0.47000000000E+01 0. -1.
        -13    1    4    4    0    0  0.17850925125E+02  0.59926243031E+02  0.73720294726E+02  0.96666912572E+02  0.00000000000E+00 0.  1.
         14    1    4    4    0    0 -0.46970869702E+02  0.99308930508E+02  0.41919247182E+02  0.11758294759E+03  0.00000000000E+00 0. -1.
         -5    1    5    5    0  501 -0.69739673940E+02 -0.55510560805E+02 -0.20667665692E+02  0.91620341013E+02  0.47000000000E+01 0.  1.
         11    1    6    6    0    0 -0.21616903423E+02 -0.17990894971E+03 -0.16080108260E+03  0.24226330482E+03  0.00000000000E+00 0. -1.
        -12    1    6    6    0    0  0.18243797052E+02 -0.83798185870E+02 -0.22524115925E+02  0.88669655938E+02  0.00000000000E+00 0.  1.
</event>
<event>
12    1  0.1081556E+000  0.5132335E+03  0.7818608E-02  0.1010381E+00
         -2   -1    0    0    0  501 -0.00000000000E+00  0.00000000000E+00  0.46488391589E+03  0.46488391589E+03  0.00000000000E+00 0.  1.
          2   -1    0    0  502    0  0.00000000000E+00 -0.00000000000E+00 -0.95956523822E+03  0.95956523822E+03  0.00000000000E+00 0. -1.
          6    2    1    2  502    0 -0.14558837669E+03 -0.46113185572E+03  0.20843105300E+03  0.55395262786E+03  0.17199257621E+03 0.  0.
         24    2    3    3    0    0 -0.15093270988E+03 -0.37849895555E+03  0.22130474956E+03  0.47002063067E+03  0.76820952971E+02 0.  0.
         -6    2    1    2    0  501  0.14558837669E+03  0.46113185572E+03 -0.70311237533E+03  0.87049652625E+03  0.17192622281E+03 0.  0.
        -24    2    5    5    0    0  0.11487494125E+03  0.36087830434E+03 -0.43137441976E+03  0.57919308278E+03  0.77144892573E+02 0.  0.
          5    1    3    3  502    0  0.53443331962E+01 -0.82632900171E+02 -0.12873696566E+02  0.83931997184E+02  0.47000000000E+01 0. -1.
        -11    1    4    4    0    0 -0.15635930263E+02 -0.12847713927E+03  0.84203105922E+02  0.15440537774E+03  0.00000000000E+00 0.  1.
         12    1    4    4    0    0 -0.13529677962E+03 -0.25002181628E+03  0.13710164364E+03  0.31561525293E+03  0.00000000000E+00 0. -1.
         -5    1    5    5    0  501  0.30713435440E+02  0.10025355139E+03 -0.27173795557E+03  0.29130344347E+03  0.47000000000E+01 0.  1.
         13    1    6    6    0    0  0.70389250891E+02  0.31331365441E+03 -0.36624332992E+03  0.48708753771E+03  0.00000000000E+00 0. -1.
        -14    1    6    6    0    0  0.44485690357E+02  0.47564649927E+02 -0.65131089838E+02  0.92105545070E+02  0.00000000000E+00 0.  1.
</event>
<event>
12    1  0.1081556E+000  0.9552102E+03  0.7818608E-02  0.9359081E-01
         -1   -1    0    0    0  501 -0.00000000000E+00  0.00000000000E+00  0.39711599931E+03  0.39711599931E+03  0.00000000000E+00 0.  1.
          1   -1    0    0  502    0  0.00000000000E+00 -0.00000000000E+00 -0.24180316403E+04  0.24180316403E+04  0.00000000000E+00 0. -1.
          6    2    1    2  502    0 -0.58589164597E+02  0.93797020432E+03 -0.13245447118E+04  0.16330467354E+04  0.17088637148E+03 0.  0.
         24    2    3    3    0    0  0.26314191630E+02  0.62480440567E+03 -0.89623371526E+03  0.10956885707E+04  0.78902405875E+02 0.  0.
         -6    2    1    2    0  501  0.58589164597E+02 -0.93797020432E+03 -0.69637092919E+03  0.11821009042E+04  0.17090723334E+03 0.  0.
        -24    2    5    5    0    0 -0.51272547618E+01 -0.38989316244E+03 -0.35693172364E+03  0.53426659658E+03  0.77444005706E+02 0.  0.
          5    1    3    3  502    0 -0.84903356227E+02  0.31316579864E+03 -0.42831099655E+03  0.53735816464E+03  0.47000000000E+01 0. -1.
        -11    1    4    4    0    0  0.76687609505E+01  0.45152719333E+03 -0.58554691504E+03  0.73945980683E+03  0.00000000000E+00 0.  1.
         12    1    4    4    0    0  0.18645430679E+02  0.17327721234E+03 -0.31068680023E+03  0.35622876391E+03  0.00000000000E+00 0. -1.
         -5    1    5    5    0  501  0.63716419359E+02 -0.54807704188E+03 -0.33943920555E+03  0.64783430767E+03  0.47000000000E+01 0.  1.
         13    1    6    6    0    0  0.26407773771E+02 -0.26760651572E+03 -0.21504288656E+03  0.34431680301E+03  0.00000000000E+00 0. -1.
        -14    1    6    6    0    0 -0.31535028532E+02 -0.12228664672E+03 -0.14188883708E+03  0.18994979357E+03  0.00000000000E+00 0.  1.
</event>
<event>
12    1  0.1081556E+000  0.2108881E+03  0.7818608E-02  0.1140865E+00
          1   -1    0    0  502    0  0.00000000000E+00  0.00000000000E+00  0.75850020098E+03  0.75850020098E+03  0.00000000000E+00 0. -1.
         -1   -1    0    0    0  501 -0.00000000000E+00 -0.00000000000E+00 -0.85760015546E+02  0.85760015546E+02  0.00000000000E+00 0.  1.
          6    2    1    2  502    0 -0.98472128778E+02  0.74278077284E+02  0.97187280143E+02  0.23071785708E+03  0.16903067544E+03 0.  0.
         24    2    3    3    0    0 -0.71210920029E+02  0.35772195684E+02 -0.12892741157E+02  0.11086136993E+03  0.75982731287E+02 0.  0.
         -6    2    1    2    0  501  0.98472128778E+02 -0.74278077284E+02  0.57555290529E+03  0.61354235945E+03  0.17308693521E+03 0.  0.
        -24    2    5    5    0    0  0.10451013310E+03 -0.30886893530E+02  0.23008207791E+03  0.26527316056E+03  0.74536695840E+02 0.  0.
          5    1    3    3  502    0 -0.27261208749E+02  0.38505881600E+02  0.11008002130E+03  0.11985648714E+03  0.47000000000E+01 0. -1.
        -13    1    4    4    0    0 -0.41912123313E+02 -0.13640909284E+02 -0.27025978358E+02  0.51702069522E+02  0.00000000000E+00 0.  1.
         14    1    4    4    0    0 -0.29298796717E+02  0.49413104967E+02  0.14133237200E+02  0.59159300413E+02  0.00000000000E+00 0. -1.
         -5    1    5    5    0  501 -0.60380043186E+01 -0.43391183754E+02  0.34547082738E+03  0.34826919889E+03  0.47000000000E+01 0.  1.
         13    1    6    6    0    0  0.76894345521E+01 -0.11396819570E+01  0.10051020562E+03  0.10081035519E+03  0.00000000000E+00 0. -1.
        -14    1    6    6    0    0  0.96820698545E+02 -0.29747211573E+02  0.12957187228E+03  0.16446280537E+03  0.00000000000E+00 0.  1.
</event>
<event>
12    1  0.1081556E+000  0.1664052E+04  0.7818608E-02  0.8782137E-01
         -1   -1    0    0    0  501 -0.00000000000E+00  0.00000000000E+00  0.17771418619E+04  0.17771418619E+04  0.00000000000E+00 0.  1.
          1   -1    0    0  502    0  0.00000000000E+00 -0.00000000000E+00 -0.19837208991E+04  0.19837208991E+04  0.00000000000E+00 0. -1.
          6    2    1    2  502    0 -0.68342182418E+03 -0.15075393840E+04  0.76766619332E+03  0.18326821104E+04  0.17225547720E+03 0.  0.
         24    2    3    3    0    0 -0.65847989014E+03 -0.13507715570E+04  0.69293368849E+03  0.16571677551E+04  0.88703477336E+02 0.  0.
         -6    2    1    2    0  501  0.68342182418E+03  0.15075393840E+04 -0.97424523047E+03  0.19281806506E+04  0.17025412800E+03 0.  0.
        -24    2    5    5    0    0  0.37689207271E+03  0.99064234931E+03 -0.62258156786E+03  0.12318815377E+04  0.80649956921E+02 0.  0.
          5    1    3    3  502    0 -0.24941934041E+02 -0.15676782700E+03  0.74732504836E+02  0.17551435536E+03  0.47000000000E+01 0. -1.
        -11    1    4    4    0    0 -0.54132784259E+03 -0.11629691723E+04  0.61412002330E+03  0.14222083292E+04  0.00000000000E+00 0.  1.
         12    1    4    4    0    0 -0.11715204755E+03 -0.18780238475E+03  0.78813665192E+02  0.23495942583E+03  0.00000000000E+00 0. -1.
         -5    1    5    5    0  501  0.30652975147E+03  0.51689703470E+03 -0.35166366260E+03  0.69629911289E+03  0.47000000000E+01 0.  1.
         11    1    6    6    0    0  0.10287372378E+03  0.23370137289E+03 -0.11369439450E+03  0.27950983896E+03  0.00000000000E+00 0. -1.
        -12    1    6    6    0    0  0.27401834892E+03  0.75694097642E+03 -0.50888717337E+03  0.95237169873E+03  0.00000000000E+00 0.  1.
</event>
<event>
12    1  0.1081556E+000  0.3199236E+03  0.7818608E-02  0.1075684E+00
         -2   -1    0    0    0  501 -0.00000000000E+00  0.00000000000E+00  0.23872234299E+03  0.23872234299E+03  0.00000000000E+00 0.  1.
          2   -1    0    0  502    0  0.00000000000E+00 -0.00000000000E+00 -0.61623226980E+03  0.61623226980E+03  0.00000000000E+00 0. -1.
          6    2    1    2  502    0 -0.23093600121E+03 -0.13992191513E+03 -0.42453822649E+03  0.53157564538E+03  0.17155285487E+03 0.  0.
         24    2    3    3    0    0 -0.12653637016E+03 -0.75558220500E+01 -0.22525844922E+03  0.27051131386E+03  0.79790090618E+02 0.  0.
         -6    2    1    2    0  501  0.23093600121E+03  0.13992191513E+03  0.47028299684E+02  0.32337896742E+03  0.17161793789E+03 0.  0.
        -24    2    5    5    0    0  0.24438650676E+03  0.15410238026E+03  0.42783295655E+02  0.30283360907E+03  0.80034218359E+02 0.  0.
          5    1    3    3  502    0 -0.10439963106E+03 -0.13236609308E+03 -0.19927977727E+03  0.26106433152E+03  0.47000000000E+01 0. -1.
        -11    1    4    4    0    0 -0.18968020985E+02  0.15712569933E+02 -0.62595863182E+01  0.25413639937E+02  0.00000000000E+00 0.  1.
         12    1    4    4    0    0 -0.10756834917E+03 -0.23268391983E+02 -0.21899886290E+03  0.24509767392E+03  0.00000000000E+00 0. -1.
         -5    1    5    5    0  501 -0.13450505543E+02 -0.14180465126E+02  0.42450040287E+01  0.20545358350E+02  0.47000000000E+01 0.  1.
         11    1    6    6    0    0  0.79930501068E+02  0.40024793528E+02 -0.22729109321E+02  0.92236009825E+02  0.00000000000E+00 0. -1.
        -12    1    6    6    0    0  0.16445600569E+03  0.11407758673E+03  0.65512404977E+02  0.21059759924E+03  0.00000000000E+00 0.  1.
</event>
<event>
12    1  0.1081556E+000  0.5176723E+03  0.7818608E-02  0.1009266E+00
         -2   -1    0    0    0  501 -0.00000000000E+00  0.00000000000E+00  0.21799556739E+03  0.21799556739E+03  0.00000000000E+00 0.  1.
          2   -1    0    0  502    0  0.00000000000E+00 -0.00000000000E+00 -0.23369344655E+04  0.23369344655E+04  0.00000000000E+00 0. -1.
          6    2    1    2  502    0  0.46277917394E+03  0.15617818936E+03 -0.17972674810E+03  0.54774548333E+03  0.17078413236E+03 0.  0.
         24    2    3    3    0    0  0.21812870590E+03  0.40038636449E+02 -0.13911942055E+03  0.27385993733E+03  0.80385492162E+02 0.  0.
         -6    2    1    2    0  501 -0.46277917394E+03 -0.15617818936E+03 -0.19392121500E+04  0.20071845496E+04  0.17230746516E+03 0.  0.
        -24    2    5    5    0    0 -0.38056781110E+03 -0.10112396392E+03 -0.17286772416E+04  0.17745115740E+04  0.74218633165E+02 0.  0.
          5    1    3    3  502    0  0.24465046804E+03  0.11613955291E+03 -0.40607327550E+02  0.27388554601E+03  0.47000000000E+01 0. -1.
        -11    1    4    4    0    0  0.12248056445E+03  0.38115819780E+02 -0.36070521619E+02  0.13324934115E+03  0.00000000000E+00 0.  1.
         12    1    4    4    0    0  0.95648141450E+02  0.19228166684E+01 -0.10304889893E+03  0.14061059618E+03  0.00000000000E+00 0. -1.
         -5    1    5    5    0  501 -0.82211362841E+02 -0.55054225443E+02 -0.21053490841E+03  0.23267297561E+03  0.47000000000E+01 0.  1.
         13    1    6    6    0    0 -0.78407241329E+02  0.93637666195E+01 -0.34690690279E+03  0.35578051496E+03  0.00000000000E+00 0. -1.
        -14    1    6    6    0    0 -0.30216056977E+03 -0.11048773054E+03 -0.13817703388E+04  0.14187310590E+04  0.00000000000E+00 0.  1.
</event>
<event>
12    1  0.1081556E+000  0.5498953E+03  0.7818608E-02  0.1001518E+00
          2   -1    0    0  502    0  0.00000000000E+00  0.00000000000E+00  0.20285696006E+04  0.20285696006E+04  0.00000000000E+00 0. -1.
         -2   -1    0    0    0  501 -0.00000000000E+00 -0.00000000000E+00 -0.20038272740E+03  0.20038272740E+03  0.00000000000E+00 0.  1.
          6    2    1    2  502    0 -0.38628257823E+03  0.35162911753E+03  0.35029412945E+03  0.65212976130E+03  0.17236583738E+03 0.  0.
         24    2    3    3    0    0 -0.24086800195E+03  0.27142894061E+03  0.30225511731E+03  0.47919247768E+03  0.81093838051E+02 0.  0.
         -6    2    1    2    0  501  0.38628257823E+03 -0.35162911753E+03  0.14778927438E+04  0.15768225667E+04  0.17130434404E+03 0.  0.
        -24    2    5    5    0    0  0.25534500601E+03 -0.16513706846E+03  0.99690071334E+03  0.10445638369E+04  0.69507219192E+02 0.  0.
          5    1    3    3  502    0 -0.14541457629E+03  0.80200176921E+02  0.48039012147E+02  0.17293728361E+03  0.47000000000E+01 0. -1.
        -13    1    4    4    0    0 -0.55649965890E+02  0.42567702016E+02  0.23921925825E+02  0.74035035582E+02  0.00000000000E+00 0.  1.
         14    1    4    4    0    0 -0.18521803606E+03  0.22886123859E+03  0.27833319148E+03  0.40515744210E+03  0.00000000000E+00 0. -1.
         -5    1    5    5    0  501  0.13093757222E+03 -0.18649204907E+03  0.48099203043E+03  0.53225872987E+03  0.47000000000E+01 0.  1.
         11    1    6    6    0    0  0.10903268371E+03 -0.49091464636E+02  0.48937051430E+03  0.50376740494E+03  0.00000000000E+00 0. -1.
        -12    1    6    6    0    0  0.14631232231E+03 -0.11604560382E+03  0.50753019905E+03  0.54079643191E+03  0.00000000000E+00 0.  1.
</event>
<event>
12    1  0.1081556E+000  0.4332239E+03  0.7818608E-02  0.1032846E+00
          2   -1    0    0  502    0  0.00000000000E+00  0.00000000000E+00  0.22601997360E+03  0.22601997360E+03  0.00000000000E+00 0. -1.
         -2   -1    0    0    0  501 -0.00000000000E+00 -0.00000000000E+00 -0.83053428709E+03  0.83053428709E+03  0.00000000000E+00 0.  1.
          6    2    1    2  502    0 -0.24719918801E+03  0.31122848196E+03 -0.29497134462E+03  0.52394735329E+03  0.17187823693E+03 0.  0.
         24    2    3    3    0    0 -0.14542858379E+03  0.20185698933E+03 -0.26374867907E+03  0.37125051596E+03  0.79798889530E+02 0.  0.
         -6    2    1    2    0  501  0.24719918801E+03 -0.31122848196E+03 -0.30954296886E+03  0.53260690740E+03  0.17286602241E+03 0.  0.
        -24    2    5    5    0    0  0.23548405627E+03 -0.20253252765E+03 -0.20632452839E+03  0.38218021014E+03  0.83783867753E+02 0.  0.
          5    1    3    3  502    0 -0.10177060422E+03  0.10937149263E+03 -0.31222665559E+02  0.15269683732E+03  0.47000000000E+01 0. -1.
        -11    1    4    4    0    0 -0.99126215717E+02  0.10640781714E+03 -0.20067759469E+03  0.24783084393E+03  0.00000000000E+00 0.  1.
         12    1    4    4    0    0 -0.46302368076E+02  0.95449172194E+02 -0.63071084373E+02  0.12341967204E+03  0.00000000000E+00 0. -1.
         -5    1    5    5    0  501  0.11715131746E+02 -0.10869595431E+03 -0.10321844047E+03  0.15042669726E+03  0.47000000000E+01 0.  1.
         11    1    6    6    0    0  0.57337174950E+02 -0.75017923684E+02 -0.10372687354E+03  0.14026583618E+03  0.00000000000E+00 0. -1.
        -12    1    6    6    0    0  0.17814688132E+03 -0.12751460397E+03 -0.10259765485E+03  0.24191437396E+03  0.00000000000E+00 0.  1.
</event>
<event>
12    1  0.1081556E+000  0.2648700E+03  0.7818608E-02  0.1104252E+00
          2   -1    0    0  502    0  0.00000000000E+00  0.00000000000E+00  0.95704530656E+03  0.95704530656E+03  0.00000000000E+00 0. -1.
         -2   -1    0    0    0  501 -0.00000000000E+00 -0.00000000000E+00 -0.16258979604E+03  0.16258979604E+03  0.00000000000E+00 0.  1.
          6    2    1    2  502    0  0.12089561160E+03 -0.16298916231E+03 -0.16852382590E+02  0.26653405693E+03  0.17197437242E+03 0.  0.
         24    2    3    3    0    0  0.36110809846E+02 -0.12135431405E+03  0.42595991182E+02  0.15482854076E+03  0.78272590635E+02 0.  0.
         -6    2    1    2    0  501 -0.12089561160E+03  0.16298916231E+03  0.81130789311E+03  0.85310104567E+03  0.16846269844E+03 0.  0.
        -24    2    5    5    0    0 -0.24861583904E+02  0.10725897507E+03  0.58562328976E+03  0.60153789568E+03  0.82283755014E+02 0.  0.
          5    1    3    3  502    0  0.84784801750E+02 -0.41634848265E+02 -0.59448373771E+02  0.11170551617E+03  0.47000000000E+01 0. -1.
        -13    1    4    4    0    0  0.27759295924E+02 -0.73777557966E+02 -0.14384381285E+02  0.80128752608E+02  0.00000000000E+00 0.  1.
         14    1    4    4    0    0  0.83515139220E+01 -0.47576756080E+02  0.56980372467E+02  0.74699788154E+02  0.00000000000E+00 0. -1.
         -5    1    5    5    0  501 -0.96034027693E+02  0.55730187236E+02  0.22568460335E+03  0.25156314999E+03  0.47000000000E+01 0.  1.
         13    1    6    6    0    0 -0.53670314400E+02  0.81376908538E+02  0.38035522071E+03  0.39264844049E+03  0.00000000000E+00 0. -1.
        -14    1    6    6    0    0  0.28808730496E+02  0.25882066537E+02  0.20526806905E+03  0.20888945519E+03  0.00000000000E+00 0.  1.
</event>
<event>
12    1  0.1081556E+000  0.2362677E+03  0.7818608E-02  0.1122304E+00
          2   -1    0    0  502    0  0.00000000000E+00  0.00000000000E+00  0.22987848389E+04  0.22987848389E+04  0.00000000000E+00 0. -1.
         -2   -1    0    0    0  501 -0.00000000000E+00 -0.00000000000E+00 -0.44764589815E+03  0.44764589815E+03  0.00000000000E+00 0.  1.
          6    2    1    2  502    0 -0.75291230168E+02  0.14339932897E+03 -0.41010499640E+03  0.47276582328E+03  0.17055579351E+03 0.  0.
         24    2    3    3    0    0 -0.63571958168E+02  0.13835226984E+03 -0.42134793047E+03  0.45512190908E+03  0.80119468142E+02 0.  0.
         -6    2    1    2    0  501  0.75291230168E+02 -0.14339932897E+03  0.22612439372E+04  0.22736649138E+04  0.17348158377E+03 0.  0.
        -24    2    5    5    0    0  0.24518495196E+02 -0.11901245315E+01  0.10044476465E+04  0.10078211894E+04  0.78650506343E+02 0.  0.
          5    1    3    3  502    0 -0.11719271999E+02  0.50470591276E+01  0.11242934067E+02  0.17643914205E+02  0.47000000000E+01 0. -1.
        -13    1    4    4    0    0 -0.33433885764E+02  0.24281376119E+02 -0.46803750102E+02  0.62433972860E+02  0.00000000000E+00 0.  1.
         14    1    4    4    0    0 -0.30138072404E+02  0.11407089372E+03 -0.37454418037E+03  0.39268793622E+03  0.00000000000E+00 0. -1.
         -5    1    5    5    0  501  0.50772734972E+02 -0.14220920444E+03  0.12567962906E+04  0.12658437244E+04  0.47000000000E+01 0.  1.
         11    1    6    6    0    0 -0.56660815386E+00 -0.31582615608E+02  0.71570983566E+03  0.71640655463E+03  0.00000000000E+00 0. -1.
        -12    1    6    6    0    0  0.25085103350E+02  0.30392491076E+02  0.28873781088E+03  0.29141463477E+03  0.00000000000E+00 0.  1.
</event>
<event>
12    1  0.1081556E+000  0.3363186E+03  0.7818608E-02  0.1068375E+00
          2   -1    0    0  502    0  0.00000000000E+00  0.00000000000E+00  0.74686061843E+03  0.74686061843E+03  0.00000000000E+00 0. -1.
         -2   -1    0    0    0  501 -0.00000000000E+00 -0.00000000000E+00 -0.36156642840E+03  0.36156642840E+03  0.00000000000E+00 0.  1.
          6    2    1    2  502    0 -0.85627439574E+02 -0.27695195066E+03 -0.22955359933E+03  0.40817686958E+03  0.17285560596E+03 0.  0.
         24    2    3    3    0    0 -0.48325060712E+02 -0.22688244137E+03 -0.24107699410E+03  0.34451132273E+03  0.82213020311E+02 0.  0.
         -6    2    1    2    0  501  0.85627439574E+02  0.27695195066E+03  0.61484778936E+03  0.70025017724E+03  0.16816083151E+03 0.  0.
        -24    2    5    5    0    0  0.74440111806E+02  0.15860562700E+03  0.49588972934E+03  0.53201189779E+03  0.80205738975E+02 0.  0.
          5    1    3    3  502    0 -0.37302378863E+02 -0.50069509292E+02  0.11523394765E+02  0.63665546856E+02  0.47000000000E+01 0. -1.
        -11    1    4    4    0    0 -0.35158907649E+02 -0.46934938124E+02 -0.98137448768E+02  0.11432408344E+03  0.00000000000E+00 0.  1.
         12    1    4    4    0    0 -0.13166153063E+02 -0.17994750325E+03 -0.14293954533E+03  0.23018723929E+03  0.00000000000E+00 0. -1.
         -5    1    5    5    0  501  0.11187327769E+02  0.11834632366E+03  0.11895806002E+03  0.16823827945E+03  0.47000000000E+01 0.  1.
         13    1    6    6    0    0  0.16788551702E+02  0.12431909729E+03  0.31242356570E+03  0.33666834990E+03  0.00000000000E+00 0. -1.
        -14    1    6    6    0    0  0.57651560104E+02  0.34286529708E+02  0.18346616364E+03  0.19534354789E+03  0.00000000000E+00 0.  1.
</event>
<event>
12    1  0.1081556E+000  0.4287507E+03  0.7818608E-02  0.1034255E+00
          2   -1    0    0  502    0  0.00000000000E+00  0.00000000000E+00  0.23815095388E+04  0.23815095388E+04  0.00000000000E+00 0. -1.
         -2   -1    0    0    0  501 -0.00000000000E+00 -0.00000000000E+00 -0.29572622501E+03  0.29572622501E+03  0.00000000000E+00 0.  1.
          6    2    1    2  502    0  0.71088938827E+02  0.38628530736E+03 -0.10799995096E+03  0.44189946674E+03  0.17129265424E+03 0.  0.
         24    2    3    3    0    0  0.10839290311E+03  0.25527176793E+03 -0.99662815496E+02  0.30534277122E+03  0.79930183259E+02 0.  0.
         -6    2    1    2    0  501 -0.71088938827E+02 -0.38628530736E+03  0.21937832647E+04  0.22353362970E+04  0.17254962299E+03 0.  0.
        -24    2    5    5    0    0 -0.82438101570E+02 -0.33468948942E+03  0.20808120494E+04  0.21105343843E+04  0.75917768799E+02 0.  0.
          5    1    3    3  502    0 -0.37303964283E+02  0.13101353943E+03 -0.83371354605E+01  0.13655669553E+03  0.47000000000E+01 0. -1.
        -13    1    4    4    0    0  0.54028657503E+02  0.21238712074E+03 -0.70534562138E+02  0.23022273854E+03  0.00000000000E+00 0.  1.
         14    1    4    4    0    0  0.54364245607E+02  0.42884647191E+02 -0.29128253357E+02  0.75120032673E+02  0.00000000000E+00 0. -1.
         -5    1    5    5    0  501  0.11349162742E+02 -0.51595817945E+02  0.11297121535E+03  0.12480191273E+03  0.47000000000E+01 0.  1.
         13    1    6    6    0    0 -0.33201180638E+02 -0.78712394942E+02  0.35420390159E+03  0.36436021107E+03  0.00000000000E+00 0. -1.
        -14    1    6    6    0    0 -0.49236920932E+02 -0.25597709447E+03  0.17266081478E+04  0.17461741732E+04  0.00000000000E+00 0.  1.
</event>
<event>
12    1  0.1081556E+000  0.3105616E+03  0.7818608E-02  0.1080077E+00
         -2   -1    0    0    0  501 -0.00000000000E+00  0.00000000000E+00  0.21716724901E+03  0.21716724901E+03  0.00000000000E+00 0.  1.
          2   -1    0    0  502    0  0.00000000000E+00 -0.00000000000E+00 -0.15943986301E+04  0.15943986301E+04  0.00000000000E+00 0. -1.
          6    2    1    2  502    0 -0.42973447654E+02  0.25475668872E+03  0.80811511844E+02  0.32079099029E+03  0.17212980961E+03 0.  0.
         24    2    3    3    0    0  0.33258705874E+01  0.20871956741E+03  0.92911632127E+01  0.22383587864E+03  0.80257433411E+02 0.  0.
         -6    2    1    2    0  501  0.42973447654E+02 -0.25475668872E+03 -0.14580428930E+04  0.14907748889E+04  0.17254855504E+03 0.  0.
        -24    2    5    5    0    0  0.35514523424E+02 -0.25224606831E+03 -0.14573907741E+04  0.14815850018E+04  0.78847248985E+02 0.  0.
          5    1    3    3  502    0 -0.46299318241E+02  0.46037121313E+02  0.71520348631E+02  0.96955111659E+02  0.47000000000E+01 0. -1.
        -13    1    4    4    0    0  0.32232607973E+02  0.12515863490E+03 -0.19806751197E+02  0.13075141414E+03  0.00000000000E+00 0.  1.
         14    1    4    4    0    0 -0.28906737385E+02  0.83560932509E+02  0.29097914409E+02  0.93084464498E+02  0.00000000000E+00 0. -1.
         -5    1    5    5    0  501  0.74589242296E+01 -0.25106204048E+01 -0.65211885933E+00  0.91898870769E+01  0.47000000000E+01 0.  1.
         13    1    6    6    0    0  0.13053105598E+02 -0.22153206861E+03 -0.10991066529E+04  0.11212859918E+04  0.00000000000E+00 0. -1.
        -14    1    6    6    0    0  0.22461417826E+02 -0.30713999704E+02 -0.35828412122E+03  0.36029900997E+03  0.00000000000E+00 0.  1.
</event>
<event>
12    1  0.1081556E+000  0.4411534E+03  0.7818608E-02  0.1030394E+00
         -2   -1    0    0    0  501 -0.00000000000E+00  0.00000000000E+00  0.50832062808E+03  0.50832062808E+03  0.00000000000E+00 0.  1.
          2   -1    0    0  502    0  0.00000000000E+00 -0.00000000000E+00 -0.59331496421E+03  0.59331496421E+03  0.00000000000E+00 0. -1.
          6    2    1    2  502    0  0.40546214314E+03 -0.26947390087E+02  0.28553446287E+03  0.52577708778E+03  0.17258593568E+03 0.  0.
         24    2    3    3    0    0  0.33166459546E+03  0.23531553330E+02  0.17666686706E+03  0.38482161542E+03  0.79506954981E+02 0.  0.
         -6    2    1    2    0  501 -0.40546214314E+03  0.26947390087E+02 -0.37052879900E+03  0.57585850451E+03  0.17086753632E+03 0.  0.
        -24    2    5    5    0    0 -0.41068274656E+03  0.27049177392E+02 -0.37882513296E+03  0.56498724801E+03  0.79436343970E+02 0.  0.
          5    1    3    3  502    0  0.73797547678E+02 -0.50478943417E+02  0.10886759581E+03  0.14095547236E+03  0.47000000000E+01 0. -1.
        -11    1    4    4    0    0  0.21176674419E+03 -0.19773127039E+02  0.91650069392E+02  0.23159418325E+03  0.00000000000E+00 0.  1.
         12    1    4    4    0    0  0.11989785128E+03  0.43304680370E+02  0.85016797670E+02  0.15322743217E+03  0.00000000000E+00 0. -1.
         -5    1    5    5    0  501  0.52206034127E+01 -0.10178730503E+00  0.82963339549E+01  0.10871256493E+02  0.47000000000E+01 0.  1.
         11    1    6    6    0    0 -0.98068851999E+02  0.32705260556E+02 -0.65715416988E+02  0.12249755030E+03  0.00000000000E+00 0. -1.
        -12    1    6    6    0    0 -0.31261389456E+03 -0.56560831639E+01 -0.31310971597E+03  0.44248969771E+03  0.00000000000E+00 0.  1.
</event>
<event>
12    1  0.1081556E+000  0.2144624E+03  0.7818608E-02  0.1138080E+00
          2   -1    0    0  502    0  0.00000000000E+00  0.00000000000E+00  0.30397015177E+03  0.30397015177E+03  0.00000000000E+00 0. -1.
         -2   -1    0    0    0  501 -0.00000000000E+00 -0.00000000000E+00 -0.15875433047E+03  0.15875433047E+03  0.00000000000E+00 0.  1.
          6    2    1    2  502    0 -0.59536433069E+01 -0.12830141365E+03  0.22414858679E+02  0.21532947758E+03  0.17136994897E+03 0.  0.
         24    2    3    3    0    0  0.15394345933E+01 -0.90532089660E+02 -0.52112888309E+02  0.13131077060E+03  0.79550840536E+02 0.  0.
         -6    2    1    2    0  501  0.59536433069E+01  0.12830141365E+03  0.12280096262E+03  0.24739500467E+03  0.17212644567E+03 0.  0.
        -24    2    5    5    0    0  0.61126018850E+02  0.40079802527E+02  0.84686167615E+02  0.13648120349E+03  0.78183061915E+02 0.  0.
          5    1    3    3  502    0 -0.74930779002E+01 -0.37769323992E+02  0.74527746988E+02  0.84018706978E+02  0.47000000000E+01 0. -1.
        -11    1    4    4    0    0  0.68931708152E+01 -0.65566231444E+02  0.76035139757E+01  0.66364598503E+02  0.00000000000E+00 0.  1.
         12    1    4    4    0    0 -0.53537362218E+01 -0.24965858217E+02 -0.59716402284E+02  0.64946172095E+02  0.00000000000E+00 0. -1.
         -5    1    5    5    0  501 -0.55172375543E+02  0.88221611126E+02  0.38114795007E+02  0.11091380118E+03  0.47000000000E+01 0.  1.
         13    1    6    6    0    0  0.40515478165E+02  0.50690399960E+02  0.20213520584E+02  0.67967691100E+02  0.00000000000E+00 0. -1.
        -14    1    6    6    0    0  0.20610540685E+02 -0.10610597433E+02  0.64472647031E+02  0.68513512392E+02  0.00000000000E+00 0.  1.
</event>
<event>
12    1  0.1081556E+000  0.3524470E+03  0.7818608E-02  0.1061615E+00
          2   -1    0    0  502    0  0.00000000000E+00  0.00000000000E+00  0.41072850156E+03  0.41072850156E+03  0.00000000000E+00 0. -1.
         -2   -1    0    0    0  501 -0.00000000000E+00 -0.00000000000E+00 -0.10100484383E+04  0.10100484383E+04  0.00000000000E+00 0.  1.
          6    2    1    2  502    0  0.24963427003E+03  0.18244365365E+03 -0.89397211225E+03  0.96053362483E+03  0.16684049694E+03 0.  0.
         24    2    3    3    0    0  0.26617829324E+03  0.15911002943E+03 -0.78333304253E+03  0.84616030421E+03  0.78801774273E+02 0.  0.
         -6    2    1    2    0  501 -0.24963427003E+03 -0.18244365365E+03  0.29465217553E+03  0.46024331501E+03  0.17146734072E+03 0.  0.
        -24    2    5    5    0    0 -0.10651906801E+03 -0.91477850136E+02  0.22384993628E+03  0.27641789364E+03  0.81139072184E+02 0.  0.
          5    1    3    3  502    0 -0.16544023212E+02  0.23333624219E+02 -0.11063906972E+03  0.11437332063E+03  0.47000000000E+01 0. -1.
        -13    1    4    4    0    0  0.11136279351E+03  0.36387714995E+02 -0.36874206730E+03  0.38690625451E+03  0.00000000000E+00 0.  1.
         14    1    4    4    0    0  0.15481549973E+03  0.12272231444E+03 -0.41459097523E+03  0.45925404969E+03  0.00000000000E+00 0. -1.
         -5    1    5    5    0  501 -0.14311520202E+03 -0.90965803514E+02  0.70802239245E+02  0.18382542137E+03  0.47000000000E+01 0.  1.
         11    1    6    6    0    0 -0.30791525928E+02 -0.77359776668E+02  0.95252024778E+02  0.12651324571E+03  0.00000000000E+00 0. -1.
        -12    1    6    6    0    0 -0.75727542081E+02 -0.14118073468E+02  0.12859791151E+03  0.14990464793E+03  0.00000000000E+00 0.  1.
</event>
<event>
12    1  0.1081556E+000  0.2507595E+03  0.7818608E-02  0.1112826E+00
         -1   -1    0    0    0  501 -0.00000000000E+00  0.00000000000E+00  0.19501513965E+03  0.19501513965E+03  0.00000000000E+00 0.  1.
          1   -1    0    0  502    0  0.00000000000E+00 -0.00000000000E+00 -0.44163244237E+03  0.44163244237E+03  0.00000000000E+00 0. -1.
          6    2    1    2  502    0  0.80867631951E+02  0.16281723994E+03  0.41898532250E+02  0.25469100649E+03  0.17338683417E+03 0.  0.
         24    2    3    3    0    0  0.79575018214E+02  0.17048081180E+03 -0.75885195115E+01  0.20437739525E+03  0.79477313420E+02 0.  0.
         -6    2    1    2    0  501 -0.80867631951E+02 -0.16281723994E+03 -0.28851583498E+03  0.38195657552E+03  0.17204769988E+03 0.  0.
        -24    2    5    5    0    0 -0.53595794178E+01 -0.12096486512E+03 -0.10305157219E+03  0.17732967102E+03  0.78517272036E+02 0.  0.
          5    1    3    3  502    0  0.12926137379E+01 -0.76635718540E+01  0.49487051762E+02  0.50313611239E+02  0.47000000000E+01 0. -1.
        -11    1    4    4    0    0  0.20171115074E+02  0.13183194204E+03 -0.47930191623E+01  0.13345226808E+03  0.00000000000E+00 0.  1.
         12    1    4    4    0    0  0.59403903139E+02  0.38648869760E+02 -0.27955003492E+01  0.70925127170E+02  0.00000000000E+00 0. -1.
         -5    1    5    5    0  501 -0.75508052534E+02 -0.41852374819E+02 -0.18546426278E+03  0.20462690450E+03  0.47000000000E+01 0.  1.
         11    1    6    6    0    0 -0.41668989218E+02 -0.63963047843E+02 -0.48138006817E+02  0.90248788646E+02  0.00000000000E+00 0. -1.
        -12    1    6    6    0    0  0.36309409800E+02 -0.57001817281E+02 -0.54913565377E+02  0.87080882378E+02  0.00000000000E+00 0.  1.
</event>
<event>
12    1  0.1081556E+000  0.7420693E+03  0.7818608E-02  0.9647875E-01
         -2   -1    0    0    0  501 -0.00000000000E+00  0.00000000000E+00  0.72077246927E+03  0.72077246927E+03  0.00000000000E+00 0.  1.
          2   -1    0    0  502    0  0.00000000000E+00 -0.00000000000E+00 -0.77391071321E+03  0.77391071321E+03  0.00000000000E+00 0. -1.
          6    2    1    2  502    0 -0.71340604850E+03 -0.11058775978E+03  0.58022033969E+02  0.74434914655E+03  0.17178839567E+03 0.  0.
         24    2    3    3    0    0 -0.36165428608E+03  0.90815526142E+00  0.60350755815E+02  0.37531235382E+03  0.80140512973E+02 0.  0.
         -6    2    1    2    0  501  0.71340604850E+03  0.11058775978E+03 -0.11116027791E+03  0.75033403593E+03  0.17165871792E+03 0.  0.
        -24    2    5    5    0    0  0.65784441637E+03  0.57598019878E+02 -0.10192133599E+03  0.67285852013E+03  0.79207457661E+02 0.  0.
          5    1    3    3  502    0 -0.35175176242E+03 -0.11149591504E+03 -0.23287218463E+01  0.36903679272E+03  0.47000000000E+01 0. -1.
        -11    1    4    4    0    0 -0.30477245088E+03 -0.17850849512E+02  0.26326658044E+02  0.30642779340E+03  0.00000000000E+00 0.  1.
         12    1    4    4    0    0 -0.56881835199E+02  0.18759004773E+02  0.34024097771E+02  0.68884560424E+02  0.00000000000E+00 0. -1.
         -5    1    5    5    0  501  0.55561632137E+02  0.52989739900E+02 -0.92389419229E+01  0.77475515799E+02  0.47000000000E+01 0.  1.
         13    1    6    6    0    0  0.63305857374E+03  0.62401337149E+02 -0.83452211202E+02  0.64157724104E+03  0.00000000000E+00 0. -1.
        -14    1    6    6    0    0  0.24785842624E+02 -0.48033172711E+01 -0.18469124785E+02  0.31281279094E+02  0.00000000000E+00 0.  1.
</event>
<event>
12    1  0.1081556E+000  0.1843154E+03  0.7818608E-02  0.1163691E+00
          1   -1    0    0  502    0  0.00000000000E+00  0.00000000000E+00  0.62376393542E+03  0.62376393542E+03  0.00000000000E+00 0. -1.
         -1   -1    0    0    0  501 -0.00000000000E+00 -0.00000000000E+00 -0.36086257732E+03  0.36086257732E+03  0.00000000000E+00 0.  1.
          6    2    1    2  502    0  0.38282706195E+02  0.54642781375E+02 -0.32220099777E+03  0.37115645942E+03  0.17173303484E+03 0.  0.
         24    2    3    3    0    0  0.12801945898E+02  0.71093700130E+02 -0.32247533580E+03  0.34046334725E+03  0.81894716580E+02 0.  0.
         -6    2    1    2    0  501 -0.38282706195E+02 -0.54642781375E+02  0.58510235587E+03  0.61347005332E+03  0.17189921561E+03 0.  0.
        -24    2    5    5    0    0 -0.99654774051E+01 -0.91009022974E+02  0.28758991009E+03  0.31237187271E+03  0.80537429008E+02 0.  0.
          5    1    3    3  502    0  0.25480760296E+02 -0.16450918755E+02  0.27433803344E+00  0.30693112168E+02  0.47000000000E+01 0. -1.
        -13    1    4    4    0    0  0.30642146863E+02  0.81393684502E+02 -0.23449595270E+03  0.25010442793E+03  0.00000000000E+00 0.  1.
         14    1    4    4    0    0 -0.17840200965E+02 -0.10299984372E+02 -0.87979383107E+02  0.90358919319E+02  0.00000000000E+00 0. -1.
         -5    1    5    5    0  501 -0.28317228790E+02  0.36366241600E+02  0.29751244578E+03  0.30109818061E+03  0.47000000000E+01 0.  1.
         11    1    6    6    0    0 -0.34697493444E+02 -0.69307312532E+02  0.12973674950E+03  0.15112592032E+03  0.00000000000E+00 0. -1.
        -12    1    6    6    0    0  0.24732016039E+02 -0.21701710442E+02  0.15785316059E+03  0.16124595239E+03  0.00000000000E+00 0.  1.
</event>
<event>
12    1  0.1081556E+000  0.2080444E+03  0.7818608E-02  0.1143124E+00
         -1   -1    0    0    0  501 -0.00000000000E+00  0.00000000000E+00  0.14779023023E+03  0.14779023023E+03  0.00000000000E+00 0.  1.
          1   -1    0    0  502    0  0.00000000000E+00 -0.00000000000E+00 -0.29913017758E+03  0.29913017758E+03  0.00000000000E+00 0. -1.
          6    2    1    2  502    0 -0.10242255090E+03 -0.59774032389E+02 -0.43128965520E+02  0.21190441828E+03  0.17023531049E+03 0.  0.
         24    2    3    3    0    0 -0.92608901943E+02 -0.69628807873E+02  0.20362930600E+02  0.14673743907E+03  0.87707738988E+02 0.  0.
         -6    2    1    2    0  501  0.10242255090E+03  0.59774032389E+02 -0.10821098183E+03  0.23501598953E+03  0.17163794704E+03 0.  0.
        -24    2    5    5    0    0  0.98532921820E+02 -0.18670077515E+02 -0.82336126844E+02  0.15218963072E+03  0.79530732660E+02 0.  0.
          5    1    3    3  502    0 -0.98136489551E+01  0.98547754840E+01 -0.63491896120E+02  0.65166979204E+02  0.47000000000E+01 0. -1.
        -11    1    4    4    0    0 -0.10533002736E+03 -0.74912020082E+02  0.10268021438E+02  0.12965977665E+03  0.00000000000E+00 0.  1.
         12    1    4    4    0    0  0.12721125412E+02  0.52832122094E+01  0.10094909163E+02  0.17077662428E+02  0.00000000000E+00 0. -1.
         -5    1    5    5    0  501  0.38896290779E+01  0.78444109904E+02 -0.25874854987E+02  0.82826358810E+02  0.47000000000E+01 0.  1.
         11    1    6    6    0    0  0.10784360777E+03 -0.39914208178E+01 -0.58697033694E+02  0.12284753535E+03  0.00000000000E+00 0. -1.
        -12    1    6    6    0    0 -0.93106859544E+01 -0.14678656698E+02 -0.23639093149E+02  0.29342095363E+02  0.00000000000E+00 0.  1.
</event>
<event>
12    1  0.1081556E+000  0.3300639E+03  0.7818608E-02  0.1071109E+00
          1   -1    0    0  502    0  0.00000000000E+00  0.00000000000E+00  0.21394655427E+03  0.21394655427E+03  0.00000000000E+00 0. -1.
         -1   -1    0    0    0  501 -0.00000000000E+00 -0.00000000000E+00 -0.72555756405E+03  0.72555756405E+03  0.00000000000E+00 0.  1.
          6    2    1    2  502    0  0.14712383419E+03  0.23952742231E+03 -0.51210599264E+03  0.60904267807E+03  0.17222551318E+03 0.  0.
         24    2    3    3    0    0  0.14885637468E+03  0.17444179306E+03 -0.29200118985E+03  0.37946185344E+03  0.78348221995E+02 0.  0.
         -6    2    1    2    0  501 -0.14712383419E+03 -0.23952742231E+03  0.49498286016E+00  0.33046144025E+03  0.17374035183E+03 0.  0.
        -24    2    5    5    0    0 -0.53067579119E+02 -0.17909994358E+03  0.53821407790E+02  0.20651041403E+03  0.69691100017E+02 0.  0.
          5    1    3    3  502    0 -0.17325404864E+01  0.65085629258E+02 -0.22010480279E+03  0.22958082464E+03  0.47000000000E+01 0. -1.
        -13    1    4    4    0    0  0.43468760066E+02  0.10248828423E+03 -0.16793637369E+03  0.20148450837E+03  0.00000000000E+00 0.  1.
         14    1    4    4    0    0  0.10538761461E+03  0.71953508826E+02 -0.12406481617E+03  0.17797734506E+03  0.00000000000E+00 0. -1.
         -5    1    5    5    0  501 -0.94056255071E+02 -0.60427478730E+02 -0.53326424930E+02  0.12395102621E+03  0.47000000000E+01 0.  1.
         11    1    6    6    0    0 -0.59767668885E+02 -0.12968740530E+03  0.15528639737E+02  0.14363890834E+03  0.00000000000E+00 0. -1.
        -12    1    6    6    0    0  0.67000897656E+01 -0.49412538283E+02  0.38292768053E+02  0.62871505689E+02  0.00000000000E+00 0.  1.
</event>
<event>
12    1  0.1081556E+000  0.2476366E+03  0.7818608E-02  0.1114808E+00
          1   -1    0    0  502    0  0.00000000000E+00  0.00000000000E+00  0.25570391548E+03  0.25570391548E+03  0.00000000000E+00 0. -1.
         -1   -1    0    0    0  501 -0.00000000000E+00 -0.00000000000E+00 -0.34733757817E+03  0.34733757817E+03  0.00000000000E+00 0.  1.
          6    2    1    2  502    0  0.17053390576E+03 -0.50777550259E+02 -0.21366339047E+03  0.32763370954E+03  0.17329636631E+03 0.  0.
         24    2    3    3    0    0  0.18954396748E+03 -0.67329656502E+02 -0.16235484669E+03  0.27027508916E+03  0.78926100381E+02 0.  0.
         -6    2    1    2    0  501 -0.17053390576E+03  0.50777550259E+02  0.12202972778E+03  0.27540778411E+03  0.17116664530E+03 0.  0.
        -24    2    5    5    0    0 -0.67653099959E+02  0.17975867792E+02 -0.66424935104E+01  0.10736302487E+03  0.81133363252E+02 0.  0.
          5    1    3    3  502    0 -0.19010061721E+02  0.16552106243E+02 -0.51308543777E+02  0.57358620383E+02  0.47000000000E+01 0. -1.
        -13    1    4    4    0    0  0.12050609198E+03 -0.81666439330E+01 -0.11896518551E+03  0.16953208440E+03  0.00000000000E+00 0.  1.
         14    1    4    4    0    0  0.69037875498E+02 -0.59163012569E+02 -0.43389661180E+02  0.10074300475E+03  0.00000000000E+00 0. -1.
         -5    1    5    5    0  501 -0.10288080580E+03  0.32801682467E+02  0.12867222130E+03  0.16804475924E+03  0.47000000000E+01 0.  1.
         13    1    6    6    0    0 -0.86074653974E+02  0.18735815647E+02 -0.98842953754E+01  0.88642970053E+02  0.00000000000E+00 0. -1.
        -14    1    6    6    0    0  0.18421554015E+02 -0.75994785548E+00  0.32418018650E+01  0.18720054818E+02  0.00000000000E+00 0.  1.
</event>
<event>
12    1  0.1081556E+000  0.6133887E+03  0.7818608E-02  0.9878012E-01
          1   -1    0    0  502    0  0.00000000000E+00  0.00000000000E+00  0.18211773804E+03  0.18211773804E+03  0.00000000000E+00 0. -1.
         -1   -1    0    0    0  501 -0.00000000000E+00 -0.00000000000E+00 -0.24482048346E+04  0.24482048346E+04  0.00000000000E+00 0.  1.
          6    2    1    2  502    0  0.46173722034E+03  0.36347740896E+03 -0.61484330243E+03  0.86915966713E+03  0.17913445493E+03 0.  0.
         24    2    3    3    0    0  0.47024165881E+03  0.33503323833E+03 -0.59569421397E+03  0.83352016789E+03  0.80807086712E+02 0.  0.
         -6    2    1    2    0  501 -0.46173722034E+03 -0.36347740896E+03 -0.16512437941E+04  0.17611629055E+04  0.17254455851E+03 0.  0.
        -24    2    5    5    0    0 -0.47242393187E+03 -0.35919725271E+03 -0.16298142195E+04  0.17363870663E+04  0.80861709943E+02 0.  0.
          5    1    3    3  502    0 -0.85044384707E+01  0.28444170632E+02 -0.19149088465E+02  0.35639499234E+02  0.47000000000E+01 0. -1.
        -11    1    4    4    0    0  0.97670890893E+02  0.11215494567E+03 -0.14399995264E+03  0.20701285257E+03  0.00000000000E+00 0.  1.
         12    1    4    4    0    0  0.37257076792E+03  0.22287829266E+03 -0.45169426132E+03  0.62650731533E+03  0.00000000000E+00 0. -1.
         -5    1    5    5    0  501  0.10686711533E+02 -0.42801562538E+01 -0.21429574621E+02  0.24775839227E+02  0.47000000000E+01 0.  1.
         13    1    6    6    0    0 -0.38232716721E+03 -0.25855617037E+03 -0.13214867515E+04  0.13997687632E+04  0.00000000000E+00 0. -1.
        -14    1    6    6    0    0 -0.90096764665E+02 -0.10064108234E+03 -0.30832746805E+03  0.33661830314E+03  0.00000000000E+00 0.  1.
</event>
<event>
12    1  0.1081556E+000  0.4017619E+03  0.7818608E-02  0.1043171E+00
          2   -1    0    0  502    0  0.00000000000E+00  0.00000000000E+00  0.31134917263E+04  0.31134917263E+04  0.00000000000E+00 0. -1.
         -2   -1    0    0    0  501 -0.00000000000E+00 -0.00000000000E+00 -0.21207189367E+03  0.21207189367E+03  0.00000000000E+00 0.  1.
          6    2    1    2  502    0 -0.34085190581E+03 -0.11782302526E+03  0.33611897794E+01  0.39946965508E+03  0.17176268731E+03 0.  0.
         24    2    3    3    0    0 -0.15607200661E+03 -0.99933636238E+02  0.50036617125E+02  0.20799034312E+03  0.80069450343E+02 0.  0.
         -6    2    1    2    0  501  0.34085190581E+03  0.11782302526E+03  0.28980586428E+04  0.29260939649E+04  0.18226274169E+03 0.  0.
        -24    2    5    5    0    0  0.29226891307E+03  0.56790350047E+02  0.25904884823E+04  0.26087506362E+04  0.79391708327E+02 0.  0.
          5    1    3    3  502    0 -0.18477989920E+03 -0.17889389020E+02 -0.46675427345E+02  0.19147931196E+03  0.47000000000E+01 0. -1.
        -13    1    4    4    0    0 -0.10460334341E+03 -0.22645784182E+02  0.12196988817E+02  0.10771934613E+03  0.00000000000E+00 0.  1.
         14    1    4    4    0    0 -0.51468663197E+02 -0.77287852056E+02  0.37839628307E+02  0.10027099699E+03  0.00000000000E+00 0. -1.
         -5    1    5    5    0  501  0.48582992740E+02  0.61032675212E+02  0.30757016049E+03  0.31734332867E+03  0.47000000000E+01 0.  1.
         11    1    6    6    0    0  0.88959515730E+02  0.45721779070E+02  0.65685013261E+03  0.66442183380E+03  0.00000000000E+00 0. -1.
        -12    1    6    6    0    0  0.20330939734E+03  0.11068570976E+02  0.19336383497E+04  0.19443288024E+04  0.00000000000E+00 0.  1.
</event>
<event>
12    1  0.1081556E+000  0.1894804E+03  0.7818608E-02  0.1158931E+00
         -2   -1    0    0    0  501 -0.00000000000E+00  0.00000000000E+00  0.23925913410E+02  0.23925913410E+02  0.00000000000E+00 0.  1.
          2   -1    0    0  502    0  0.00000000000E+00 -0.00000000000E+00 -0.31685404884E+04  0.31685404884E+04  0.00000000000E+00 0. -1.
          6    2    1    2  502    0 -0.72974705093E+02  0.27248873394E+02 -0.41537789484E+03  0.45668135847E+03  0.17306432033E+03 0.  0.
         24    2    3    3    0    0 -0.39086602035E+02  0.58778455886E+02 -0.13611030824E+03  0.17356478703E+03  0.81339104693E+02 0.  0.
         -6    2    1    2    0  501  0.72974705093E+02 -0.27248873394E+02 -0.27292366802E+04  0.27357850434E+04  0.17239239655E+03 0.  0.
        -24    2    5    5    0    0  0.89381685958E+02  0.41678198049E+01 -0.25551926459E+04  0.25581066443E+04  0.83028244335E+02 0.  0.
          5    1    3    3  502    0 -0.33888103059E+02 -0.31529582492E+02 -0.27926758659E+03  0.28311657144E+03  0.47000000000E+01 0. -1.
        -11    1    4    4    0    0 -0.60451581132E+02  0.23518193834E+02 -0.68210793071E+02  0.94128695912E+02  0.00000000000E+00 0.  1.
         12    1    4    4    0    0  0.21364979098E+02  0.35260262052E+02 -0.67899515171E+02  0.79436091119E+02  0.00000000000E+00 0. -1.
         -5    1    5    5    0  501 -0.16406980865E+02 -0.31416693199E+02 -0.17404403429E+03  0.17767839909E+03  0.47000000000E+01 0.  1.
         13    1    6    6    0    0  0.59012914041E+02 -0.29513383973E+02 -0.19914652482E+04  0.19925580038E+04  0.00000000000E+00 0. -1.
        -14    1    6    6    0    0  0.30368771918E+02  0.33681203778E+02 -0.56372739775E+03  0.56554864050E+03  0.00000000000E+00 0.  1.
</event>
<event>
12    1  0.1081556E+000  0.1893439E+03  0.7818608E-02  0.1159054E+00
          3   -1    0    0  502    0  0.00000000000E+00  0.00000000000E+00  0.35308784369E+02  0.35308784369E+02  0.00000000000E+00 0. -1.
         -3   -1    0    0    0  501 -0.00000000000E+00 -0.00000000000E+00 -0.10157891207E+04  0.10157891207E+04  0.00000000000E+00 0.  1.
          6    2    1    2  502    0 -0.52451633226E+02 -0.64176884261E+02 -0.49669052460E+03  0.53106039330E+03  0.16868259484E+03 0.  0.
         24    2    3    3    0    0 -0.35464910630E+02 -0.72217800548E+02 -0.16788712416E+03  0.20168678898E+03  0.77577727405E+02 0.  0.
         -6    2    1    2    0  501  0.52451633226E+02  0.64176884261E+02 -0.48378981174E+03  0.52003751178E+03  0.17180391559E+03 0.  0.
        -24    2    5    5    0    0  0.15764078237E+02  0.98607756897E+02 -0.25035957972E+03  0.28120027662E+03  0.80135388728E+02 0.  0.
          5    1    3    3  502    0 -0.16986722596E+02  0.80409162867E+01 -0.32880340044E+03  0.32937360432E+03  0.47000000000E+01 0. -1.
        -13    1    4    4    0    0 -0.46199347560E+02 -0.73710258345E+02 -0.16970062910E+03  0.19069841482E+03  0.00000000000E+00 0.  1.
         14    1    4    4    0    0  0.10734436930E+02  0.14924577972E+01  0.18135049384E+01  0.10988374158E+02  0.00000000000E+00 0. -1.
         -5    1    5    5    0  501  0.36687554989E+02 -0.34430872636E+02 -0.23343023202E+03  0.23883723516E+03  0.47000000000E+01 0.  1.
         13    1    6    6    0    0  0.26299728853E+02  0.68385894734E+02 -0.82592486475E+02  0.11040754122E+03  0.00000000000E+00 0. -1.
        -14    1    6    6    0    0 -0.10535650616E+02  0.30221862162E+02 -0.16776709325E+03  0.17079273540E+03  0.00000000000E+00 0.  1.
</event>
<event>
12    1  0.1081556E+000  0.4366702E+03  0.7818608E-02  0.1031773E+00
         -1   -1    0    0    0  501 -0.00000000000E+00  0.00000000000E+00  0.52943850569E+03  0.52943850569E+03  0.00000000000E+00 0.  1.
          1   -1    0    0  502    0  0.00000000000E+00 -0.00000000000E+00 -0.92335342592E+03  0.92335342592E+03  0.00000000000E+00 0. -1.
          6    2    1    2  502    0  0.36250277935E+03 -0.17282343172E+03  0.37026980604E+03  0.57287334887E+03  0.17264976394E+03 0.  0.
         24    2    3    3    0    0  0.29110038093E+03 -0.16700487746E+03  0.36439725079E+03  0.50084047458E+03  0.73659783564E+02 0.  0.
         -6    2    1    2    0  501 -0.36250277935E+03  0.17282343172E+03 -0.76418472628E+03  0.87991858274E+03  0.17030036049E+03 0.  0.
        -24    2    5    5    0    0 -0.21763130268E+03  0.11152813738E+03 -0.59904777351E+03  0.65180203132E+03  0.78649499388E+02 0.  0.
          5    1    3    3  502    0  0.71402398420E+02 -0.58185542535E+01  0.58725552523E+01  0.72032874293E+02  0.47000000000E+01 0. -1.
        -11    1    4    4    0    0  0.20350121798E+03 -0.13743390377E+03  0.22185076532E+03  0.33093592386E+03  0.00000000000E+00 0.  1.
         12    1    4    4    0    0  0.87599162948E+02 -0.29570973689E+02  0.14254648547E+03  0.16990455072E+03  0.00000000000E+00 0. -1.
         -5    1    5    5    0  501 -0.14487147668E+03  0.61295294334E+02 -0.16513695277E+03  0.22811655142E+03  0.47000000000E+01 0.  1.
         11    1    6    6    0    0 -0.14128436387E+03  0.11027617588E+03 -0.44883529428E+03  0.48329621127E+03  0.00000000000E+00 0. -1.
        -12    1    6    6    0    0 -0.76346938810E+02  0.12519615013E+01 -0.15021247923E+03  0.16850582004E+03  0.00000000000E+00 0.  1.
</event>
<event>
12    1  0.1081556E+000  0.6399682E+03  0.7818608E-02  0.9825787E-01
          2   -1    0    0  502    0  0.00000000000E+00  0.00000000000E+00  0.10468587856E+04  0.10468587856E+04  0.00000000000E+00 0. -1.
         -2   -1    0    0    0  501 -0.00000000000E+00 -0.00000000000E+00 -0.67046989058E+03  0.67046989058E+03  0.00000000000E+00 0.  1.
          6    2    1    2  502    0 -0.56510334643E+03 -0.24609489642E+03 -0.36591727271E+03  0.73737192240E+03  0.17296650337E+03 0.  0.
         24    2    3    3    0    0 -0.37783048256E+03 -0.94072178665E+02 -0.20070252918E+03  0.44496803437E+03  0.78163917775E+02 0.  0.
         -6    2    1    2    0  501  0.56510334643E+03  0.24609489642E+03  0.74230616777E+03  0.97995675382E+03  0.17144183406E+03 0.  0.
        -24    2    5    5    0    0  0.35485558914E+03  0.17424395159E+03  0.37597677076E+03  0.55148739106E+03  0.80600040531E+02 0.  0.
          5    1    3    3  502    0 -0.18727286388E+03 -0.15202271776E+03 -0.16521474353E+03  0.29240388803E+03  0.47000000000E+01 0. -1.
        -13    1    4    4    0    0 -0.24807337827E+03 -0.97622640415E+02 -0.14757203004E+03  0.30470983735E+03  0.00000000000E+00 0.  1.
         14    1    4    4    0    0 -0.12975710429E+03  0.35504617501E+01 -0.53130499137E+02  0.14025819702E+03  0.00000000000E+00 0. -1.
         -5    1    5    5    0  501  0.21024775730E+03  0.71850944832E+02  0.36632939701E+03  0.42846936277E+03  0.47000000000E+01 0.  1.
         11    1    6    6    0    0  0.67018551415E+02  0.14804775943E+02  0.32867955689E+02  0.76098424003E+02  0.00000000000E+00 0. -1.
        -12    1    6    6    0    0  0.28783703772E+03  0.15943917565E+03  0.34310881507E+03  0.47538896705E+03  0.00000000000E+00 0.  1.
</event>
<event>
12    1  0.1081556E+000  0.2996574E+03  0.7818608E-02  0.1085412E+00
          1   -1    0    0  502    0  0.00000000000E+00  0.00000000000E+00  0.38892858839E+03  0.38892858839E+03  0.00000000000E+00 0. -1.
         -1   -1    0    0    0  501 -0.00000000000E+00 -0.00000000000E+00 -0.23568554585E+03  0.23568554585E+03  0.00000000000E+00 0.  1.
          6    2    1    2  502    0 -0.10853090402E+03 -0.21611107319E+03  0.12013028598E+03  0.31940932404E+03  0.17061089530E+03 0.  0.
         24    2    3    3    0    0 -0.10836251612E+03 -0.10433047663E+03  0.11841833308E+03  0.20751673759E+03  0.80081280687E+02 0.  0.
         -6    2    1    2    0  501  0.10853090402E+03  0.21611107319E+03  0.33112756558E+02  0.30520481020E+03  0.18322272905E+03 0.  0.
        -24    2    5    5    0    0  0.10121654262E+03  0.21637232887E+03  0.74843007730E+02  0.26257768268E+03  0.79270362916E+02 0.  0.
          5    1    3    3  502    0 -0.16838790099E+00 -0.11178059655E+03  0.17119528961E+01  0.11189258645E+03  0.47000000000E+01 0. -1.
        -13    1    4    4    0    0 -0.30021039821E+02 -0.51437264817E+02  0.48456192670E+01  0.59753954429E+02  0.00000000000E+00 0.  1.
         14    1    4    4    0    0 -0.78341476295E+02 -0.52893211815E+02  0.11357271381E+03  0.14776278316E+03  0.00000000000E+00 0. -1.
         -5    1    5    5    0  501  0.73143614017E+01 -0.26125568308E+00 -0.41730251172E+02  0.42627127515E+02  0.47000000000E+01 0.  1.
         11    1    6    6    0    0  0.79545297609E+02  0.82781118384E+02  0.48854292325E+02  0.12476742288E+03  0.00000000000E+00 0. -1.
        -12    1    6    6    0    0  0.21671245007E+02  0.13359121049E+03  0.25988715405E+02  0.13781025981E+03  0.00000000000E+00 0.  1.
</event>
<event>
12    1  0.1081556E+000  0.2003838E+03  0.7818608E-02  0.1149416E+00
         -1   -1    0    0    0  501 -0.00000000000E+00  0.00000000000E+00  0.30452705645E+02  0.30452705645E+02  0.00000000000E+00 0.  1.
          1   -1    0    0  502    0  0.00000000000E+00 -0.00000000000E+00 -0.25034325008E+04  0.25034325008E+04  0.00000000000E+00 0. -1.
          6    2    1    2  502    0  0.58943392981E+02 -0.87882286428E+02 -0.36990143312E+03  0.42142641041E+03  0.17197537418E+03 0.  0.
         24    2    3    3    0    0 -0.14958958133E+02 -0.93271763990E+02 -0.26761731786E+03  0.29503521529E+03  0.80643394388E+02 0.  0.
         -6    2    1    2    0  501 -0.58943392981E+02  0.87882286428E+02 -0.21030783620E+04  0.21124587960E+04  0.16836255000E+03 0.  0.
        -24    2    5    5    0    0  0.21432272535E+02  0.77526235221E+02 -0.10059194680E+04  0.10123009782E+04  0.80060195428E+02 0.  0.
          5    1    3    3  502    0  0.73902351114E+02  0.53894775625E+01 -0.10228411526E+03  0.12639119512E+03  0.47000000000E+01 0. -1.
        -13    1    4    4    0    0  0.14938649083E+02 -0.70266699064E+02 -0.99409923885E+02  0.12264952181E+03  0.00000000000E+00 0.  1.
         14    1    4    4    0    0 -0.29897607216E+02 -0.23005064926E+02 -0.16820739397E+03  0.17238569348E+03  0.00000000000E+00 0. -1.
         -5    1    5    5    0  501 -0.80375665516E+02  0.10356051207E+02 -0.10971588940E+04  0.11001578178E+04  0.47000000000E+01 0.  1.
         11    1    6    6    0    0  0.13435552663E+02  0.75296315785E+02 -0.99766944339E+03  0.10005970056E+04  0.00000000000E+00 0. -1.
        -12    1    6    6    0    0  0.79967198724E+01  0.22299194360E+01 -0.82500246015E+01  0.11703972630E+02  0.00000000000E+00 0.  1.
</event>
<event>
12    1  0.1081556E+000  0.6682580E+03  0.7818608E-02  0.9773110E-01
         -2   -1    0    0    0  501 -0.00000000000E+00  0.00000000000E+00  0.33423162411E+03  0.33423162411E+03  0.00000000000E+00 0.  1.
          2   -1    0    0  502    0  0.00000000000E+00 -0.00000000000E+00 -0.13365204898E+04  0.13365204898E+04  0.00000000000E+00 0. -1.
          6    2    1    2  502    0  0.18672687122E+03  0.61739762855E+03 -0.48547256455E+03  0.82483861220E+03  0.16919919934E+03 0.  0.
         24    2    3    3    0    0  0.25634563182E+02  0.23920095547E+03 -0.17790320827E+03  0.31141436836E+03  0.86343091081E+02 0.  0.
         -6    2    1    2    0  501 -0.18672687122E+03 -0.61739762855E+03 -0.51681630109E+03  0.84591350166E+03  0.18006611852E+03 0.  0.
        -24    2    5    5    0    0 -0.10587990731E+03 -0.43528825032E+03 -0.43724975513E+03  0.63131391534E+03  0.81752649481E+02 0.  0.
          5    1    3    3  502    0  0.16109230804E+03  0.37819667308E+03 -0.30756935629E+03  0.51342424384E+03  0.47000000000E+01 0. -1.
        -11    1    4    4    0    0  0.45083759786E+02  0.10678112615E+03 -0.49820522471E+02  0.12616195448E+03  0.00000000000E+00 0.  1.
         12    1    4    4    0    0 -0.19449196603E+02  0.13241982932E+03 -0.12808268580E+03  0.18525241388E+03  0.00000000000E+00 0. -1.
         -5    1    5    5    0  501 -0.80846963916E+02 -0.18210937823E+03 -0.79566545962E+02  0.21459958633E+03  0.47000000000E+01 0.  1.
         11    1    6    6    0    0 -0.90002187188E+02 -0.30832758306E+03 -0.35726382019E+03  0.48042036738E+03  0.00000000000E+00 0. -1.
        -12    1    6    6    0    0 -0.15877720121E+02 -0.12696066726E+03 -0.79985934942E+02  0.15089354796E+03  0.00000000000E+00 0.  1.
</event>
<event>
12    1  0.1081556E+000  0.3727002E+03  0.7818608E-02  0.1053665E+00
          2   -1    0    0  502    0  0.00000000000E+00  0.00000000000E+00  0.21282677250E+04  0.21282677250E+04  0.00000000000E+00 0. -1.
         -2   -1    0    0    0  501 -0.00000000000E+00 -0.00000000000E+00 -0.68422566404E+02  0.68422566404E+02  0.00000000000E+00 0.  1.
          6    2    1    2  502    0 -0.32372869504E+03  0.61838106059E+02  0.79661764388E+03  0.87990300498E+03  0.17608352642E+03 0.  0.
         24    2    3    3    0    0 -0.21594603174E+03  0.77942737677E+02  0.67050502415E+03  0.71316085517E+03  0.79458536074E+02 0.  0.
         -6    2    1    2    0  501  0.32372869504E+03 -0.61838106059E+02  0.12632275147E+04  0.13167872864E+04  0.17193249955E+03 0.  0.
        -24    2    5    5    0    0  0.21705380463E+03 -0.36092647598E+02  0.58931971661E+03  0.63398704388E+03  0.78910139434E+02 0.  0.
          5    1    3    3  502    0 -0.10778266330E+03 -0.16104631618E+02  0.12611261973E+03  0.16674214981E+03  0.47000000000E+01 0. -1.
        -13    1    4    4    0    0 -0.45284061643E+02  0.27578056828E+02  0.76505176687E+02  0.93081886085E+02  0.00000000000E+00 0.  1.
         14    1    4    4    0    0 -0.17066197009E+03  0.50364680849E+02  0.59399984746E+03  0.62007896908E+03  0.00000000000E+00 0. -1.
         -5    1    5    5    0  501  0.10667489041E+03 -0.25745458461E+02  0.67390779806E+03  0.68280024250E+03  0.47000000000E+01 0.  1.
         13    1    6    6    0    0  0.13844830609E+03  0.14989655998E+02  0.37678170953E+03  0.40169276802E+03  0.00000000000E+00 0. -1.
        -14    1    6    6    0    0  0.78605498539E+02 -0.51082303596E+02  0.21253800708E+03  0.23229427586E+03  0.00000000000E+00 0.  1.
</event>
<event>
12    1  0.1081556E+000  0.3641581E+03  0.7818608E-02  0.1056949E+00
         -2   -1    0    0    0  501 -0.00000000000E+00  0.00000000000E+00  0.30774090897E+03  0.30774090897E+03  0.00000000000E+00 0.  1.
          2   -1    0    0  502    0  0.00000000000E+00 -0.00000000000E+00 -0.17753200511E+04  0.17753200511E+04  0.00000000000E+00 0. -1.
          6    2    1    2  502    0  0.31398994171E+02  0.31928551112E+03  0.17256807495E+03  0.40297215654E+03  0.17227212198E+03 0.  0.
         24    2    3    3    0    0 -0.33979207997E+02  0.98106207558E+02  0.77084083653E+02  0.15330462514E+03  0.82346448614E+02 0.  0.
         -6    2    1    2    0  501 -0.31398994171E+02 -0.31928551112E+03 -0.16401472171E+04  0.16800888036E+04  0.17229729997E+03 0.  0.
        -24    2    5    5    0    0 -0.10427750556E+02 -0.24656855714E+03 -0.14849288565E+04  0.15073393377E+04  0.78443476465E+02 0.  0.
          5    1    3    3  502    0  0.65378202167E+02  0.22117930356E+03  0.95483991293E+02  0.24966753140E+03  0.47000000000E+01 0. -1.
        -13    1    4    4    0    0  0.18570796091E+02  0.54461256518E+02  0.11644389435E+02  0.58706854236E+02  0.00000000000E+00 0.  1.
         14    1    4    4    0    0 -0.52550004087E+02  0.43644951040E+02  0.65439694218E+02  0.94597770905E+02  0.00000000000E+00 0. -1.
         -5    1    5    5    0  501 -0.20971243615E+02 -0.72716953986E+02 -0.15521836066E+03  0.17274946583E+03  0.47000000000E+01 0.  1.
         13    1    6    6    0    0  0.47060131094E+01 -0.19586383252E+03 -0.96251611079E+03  0.98225355738E+03  0.00000000000E+00 0. -1.
        -14    1    6    6    0    0 -0.15133763665E+02 -0.50704724617E+02 -0.52241274566E+03  0.52508578036E+03  0.00000000000E+00 0.  1.
</event>
<event>
12    1  0.1081556E+000  0.2179042E+03  0.7818608E-02  0.1135455E+00
          2   -1    0    0  502    0  0.00000000000E+00  0.00000000000E+00  0.89039492651E+03  0.89039492651E+03  0.00000000000E+00 0.  1.
         -2   -1    0    0    0  501 -0.00000000000E+00 -0.00000000000E+00 -0.75069072985E+02  0.75069072985E+02  0.00000000000E+00 0. -1.
          6    2    1    2  502    0  0.34959693211E+02 -0.12922416089E+03  0.14770996836E+03  0.26314896767E+03  0.17177916208E+03 0.  0.
         24    2    3    3    0    0  0.54704031551E+02 -0.30326970327E+02  0.12275414253E+03  0.15915196559E+03  0.79677552966E+02 0.  0.
         -6    2    1    2    0  501 -0.34959693211E+02  0.12922416089E+03  0.66761588516E+03  0.70231503182E+03  0.17208826194E+03 0.  0.
        -24    2    5    5    0    0 -0.81288054214E+02  0.11223293340E+03  0.41449087687E+03  0.44438213616E+03  0.80428955157E+02 0.  0.
          5    1    3    3  502    0 -0.19744338341E+02 -0.98897190565E+02  0.24955825833E+02  0.10399700208E+03  0.47000000000E+01 0. -1.
        -11    1    4    4    0    0  0.18799694878E+02 -0.50712314781E+02  0.95274481995E+02  0.10955543947E+03  0.00000000000E+00 0.  1.
         12    1    4    4    0    0  0.35904336673E+02  0.20385344453E+02  0.27479660535E+02  0.49596526124E+02  0.00000000000E+00 0. -1.
         -5    1    5    5    0  501  0.46328361003E+02  0.16991227489E+02  0.25312500829E+03  0.25793289566E+03  0.47000000000E+01 0.  1.
         13    1    6    6    0    0 -0.34451530259E+02  0.43674541080E+02  0.66868278717E+02  0.86981263352E+02  0.00000000000E+00 0. -1.
        -14    1    6    6    0    0 -0.46836523955E+02  0.68558392323E+02  0.34762259815E+03  0.35740087281E+03  0.00000000000E+00 0.  1.
</event>
<event>
12    1  0.1081556E+000  0.3121190E+03  0.7818608E-02  0.1079335E+00
         -2   -1    0    0    0  501 -0.00000000000E+00  0.00000000000E+00  0.62581554847E+03  0.62581554847E+03  0.00000000000E+00 0.  1.
          2   -1    0    0  502    0  0.00000000000E+00 -0.00000000000E+00 -0.19843180287E+03  0.19843180287E+03  0.00000000000E+00 0. -1.
          6    2    1    2  502    0 -0.21788570124E+03  0.14232728674E+03  0.40503130325E+03  0.51135744193E+03  0.17235092529E+03 0.  0.
         24    2    3    3    0    0 -0.20808478355E+03  0.79245513350E+02  0.36943157781E+03  0.43811265664E+03  0.76706457916E+02 0.  0.
         -6    2    1    2    0  501  0.21788570124E+03 -0.14232728674E+03  0.22352442348E+02  0.31288990941E+03  0.17224757872E+03 0.  0.
        -24    2    5    5    0    0  0.49851933035E+02 -0.51399584460E+02  0.53265895600E+02  0.11928999750E+03  0.79156271764E+02 0.  0.
          5    1    3    3  502    0 -0.98009176887E+01  0.63081773390E+02  0.35599725436E+02  0.73244785293E+02  0.47000000000E+01 0. -1.
        -13    1    4    4    0    0 -0.71927337991E+02  0.56825848094E+02  0.19685198908E+03  0.21714839297E+03  0.00000000000E+00 0.  1.
         14    1    4    4    0    0 -0.13615744556E+03  0.22419665256E+02  0.17257958873E+03  0.22096426367E+03  0.00000000000E+00 0. -1.
         -5    1    5    5    0  501  0.16803376821E+03 -0.90927702280E+02 -0.30913453252E+02  0.19359991191E+03  0.47000000000E+01 0.  1.
         11    1    6    6    0    0  0.49590998847E+02 -0.14870375779E+02 -0.33843288920E+01  0.51883031180E+02  0.00000000000E+00 0. -1.
        -12    1    6    6    0    0  0.26093418820E+00 -0.36529208681E+02  0.56650224492E+02  0.67406966320E+02  0.00000000000E+00 0.  1.
</event>
<event>
12    1  0.1081556E+000  0.1912319E+03  0.7818608E-02  0.1157355E+00
          2   -1    0    0  502    0  0.00000000000E+00  0.00000000000E+00  0.22465190056E+03  0.22465190056E+03  0.00000000000E+00 0. -1.
         -2   -1    0    0    0  501 -0.00000000000E+00 -0.00000000000E+00 -0.63838547584E+03  0.63838547584E+03  0.00000000000E+00 0.  1.
          6    2    1    2  502    0  0.40430071089E+02  0.71357029737E+02 -0.57908593195E+03  0.60957405814E+03  0.17179522530E+03 0.  0.
         24    2    3    3    0    0  0.81272110679E+02  0.44524470759E+02 -0.51223988907E+03  0.52663708287E+03  0.79808073691E+02 0.  0.
         -6    2    1    2    0  501 -0.40430071089E+02 -0.71357029737E+02  0.16535235667E+03  0.25346331825E+03  0.17371193252E+03 0.  0.
        -24    2    5    5    0    0  0.32835193236E+02  0.34690797878E+01  0.58714533912E+02  0.10392917209E+03  0.79143489248E+02 0.  0.
          5    1    3    3  502    0 -0.40842039590E+02  0.26832558978E+02 -0.66846042881E+02  0.82936975276E+02  0.47000000000E+01 0. -1.
        -13    1    4    4    0    0  0.10424075147E+02  0.49545105055E+02 -0.18704385185E+03  0.19377507913E+03  0.00000000000E+00 0.  1.
         14    1    4    4    0    0  0.70848035532E+02 -0.50206342961E+01 -0.32519603722E+03  0.33286200374E+03  0.00000000000E+00 0. -1.
         -5    1    5    5    0  501 -0.73265264325E+02 -0.74826109525E+02  0.10663782276E+03  0.14953414616E+03  0.47000000000E+01 0.  1.
         13    1    6    6    0    0 -0.60377796096E+01  0.30177128758E+02  0.45533132381E+02  0.54957984198E+02  0.00000000000E+00 0. -1.
        -14    1    6    6    0    0  0.38872972845E+02 -0.26708048971E+02  0.13181401531E+02  0.48971187896E+02  0.00000000000E+00 0.  1.
</event>
<event>
12    1  0.1081556E+000  0.3933922E+03  0.7818608E-02  0.1046092E+00
          1   -1    0    0  502    0  0.00000000000E+00  0.00000000000E+00  0.14378148566E+04  0.14378148566E+04  0.00000000000E+00 0. -1.
         -1   -1    0    0    0  501 -0.00000000000E+00 -0.00000000000E+00 -0.38114868595E+03  0.38114868595E+03  0.00000000000E+00 0.  1.
          6    2    1    2  502    0 -0.28874401093E+03 -0.19554911655E+03 -0.24074379552E+03  0.46423987439E+03  0.18960096271E+03 0.  0.
         24    2    3    3    0    0 -0.11083959435E+03 -0.16881477933E+03 -0.13116137077E+03  0.25353841726E+03  0.79338379400E+02 0.  0.
         -6    2    1    2    0  501  0.28874401093E+03  0.19554911655E+03  0.12974099662E+04  0.13547236682E+04  0.17433024964E+03 0.  0.
        -24    2    5    5    0    0  0.21343520625E+03  0.11198614230E+03  0.10727536875E+04  0.11034335564E+04  0.93110987538E+02 0.  0.
          5    1    3    3  502    0 -0.17790441658E+03 -0.26734337216E+02 -0.10958242475E+03  0.21070145713E+03  0.47000000000E+01 0. -1.
        -11    1    4    4    0    0 -0.63743771502E+02 -0.48910422496E+02 -0.84305193361E+02  0.11645970746E+03  0.00000000000E+00 0.  1.
         12    1    4    4    0    0 -0.47095822850E+02 -0.11990435684E+03 -0.46856177408E+02  0.13707870980E+03  0.00000000000E+00 0. -1.
         -5    1    5    5    0  501  0.75308804682E+02  0.83562974243E+02  0.22465627867E+03  0.25129011177E+03  0.47000000000E+01 0.  1.
         11    1    6    6    0    0 -0.32104303839E+01  0.81535134809E+01  0.13877921067E+03  0.13905558586E+03  0.00000000000E+00 0. -1.
        -12    1    6    6    0    0  0.21664563663E+03  0.10383262882E+03  0.93397447686E+03  0.96437797057E+03  0.00000000000E+00 0.  1.
</event>
<event>
12    1  0.1081556E+000  0.7898121E+03  0.7818608E-02  0.9574882E-01
          1   -1    0    0  502    0  0.00000000000E+00  0.00000000000E+00  0.12275655547E+04  0.12275655547E+04  0.00000000000E+00 0. -1.
         -1   -1    0    0    0  501 -0.00000000000E+00 -0.00000000000E+00 -0.17058592920E+04  0.17058592920E+04  0.00000000000E+00 0.  1.
          6    2    1    2  502    0 -0.72669267375E+03  0.25736623473E+03 -0.14681301932E+04  0.16670847414E+04  0.17159734915E+03 0.  0.
         24    2    3    3    0    0 -0.52535330043E+03  0.16578051065E+03 -0.11707721433E+04  0.12964509762E+04  0.81230870132E+02 0.  0.
         -6    2    1    2    0  501  0.72669267375E+03 -0.25736623473E+03  0.98983645587E+03  0.12663401052E+04  0.17181801980E+03 0.  0.
        -24    2    5    5    0    0  0.59147565644E+03 -0.16981099696E+03  0.70401967169E+03  0.93821987492E+03  0.77029920940E+02 0.  0.
          5    1    3    3  502    0 -0.20133937331E+03  0.91585724084E+02 -0.29735804991E+03  0.37063376525E+03  0.47000000000E+01 0. -1.
        -11    1    4    4    0    0 -0.34555150615E+03  0.69343313830E+02 -0.76419969290E+03  0.84155541065E+03  0.00000000000E+00 0.  1.
         12    1    4    4    0    0 -0.17980179428E+03  0.96437196819E+02 -0.40657245036E+03  0.45489556554E+03  0.00000000000E+00 0. -1.
         -5    1    5    5    0  501  0.13521701731E+03 -0.87555237775E+02  0.28581678418E+03  0.32812023033E+03  0.47000000000E+01 0.  1.
         13    1    6    6    0    0  0.41524755953E+03 -0.14933720888E+03  0.53067523268E+03  0.69017993323E+03  0.00000000000E+00 0. -1.
        -14    1    6    6    0    0  0.17622809691E+03 -0.20473788079E+02  0.17334443901E+03  0.24803994169E+03  0.00000000000E+00 0.  1.
</event>
<event>
12    1  0.1081556E+000  0.4829167E+03  0.7818608E-02  0.1018337E+00
         -2   -1    0    0    0  501 -0.00000000000E+00  0.00000000000E+00  0.11999429187E+04  0.11999429187E+04  0.00000000000E+00 0.  1.
          2   -1    0    0  502    0  0.00000000000E+00 -0.00000000000E+00 -0.67600800183E+03  0.67600800183E+03  0.00000000000E+00 0. -1.
          6    2    1    2  502    0  0.31520838097E+03  0.32781053996E+03  0.10541647852E+04  0.11607573047E+04  0.17110830650E+03 0.  0.
         24    2    3    3    0    0  0.19829717503E+03  0.22179557870E+03  0.83958582743E+03  0.89434855635E+03  0.80249176202E+02 0.  0.
         -6    2    1    2    0  501 -0.31520838097E+03 -0.32781053996E+03 -0.53022986832E+03  0.71519361583E+03  0.15343442024E+03 0.  0.
        -24    2    5    5    0    0 -0.12350897324E+03 -0.95670443239E+02 -0.17705274113E+03  0.25108817457E+03  0.85383242426E+02 0.  0.
          5    1    3    3  502    0  0.11691120594E+03  0.10601496126E+03  0.21457895778E+03  0.26640874836E+03  0.47000000000E+01 0. -1.
        -13    1    4    4    0    0  0.15201718545E+03  0.13528517258E+03  0.47421173129E+03  0.51603107337E+03  0.00000000000E+00 0.  1.
         14    1    4    4    0    0  0.46279989582E+02  0.86510406119E+02  0.36537409614E+03  0.37831748298E+03  0.00000000000E+00 0. -1.
         -5    1    5    5    0  501 -0.19169940772E+03 -0.23214009672E+03 -0.35317712719E+03  0.46410544125E+03  0.47000000000E+01 0.  1.
         13    1    6    6    0    0 -0.46880076774E+02 -0.10466492294E+02 -0.10568283659E+03  0.11608682530E+03  0.00000000000E+00 0. -1.
        -14    1    6    6    0    0 -0.76628896468E+02 -0.85203950945E+02 -0.71369904544E+02  0.13500134927E+03  0.00000000000E+00 0.  1.
</event>
<event>
12    1  0.1081556E+000  0.5402704E+03  0.7818608E-02  0.1003771E+00
         -2   -1    0    0    0  501 -0.00000000000E+00  0.00000000000E+00  0.14359296811E+03  0.14359296811E+03  0.00000000000E+00 0.  1.
          2   -1    0    0  502    0  0.00000000000E+00 -0.00000000000E+00 -0.22297753941E+04  0.22297753941E+04  0.00000000000E+00 0. -1.
          6    2    1    2  502    0 -0.51203962565E+03 -0.20917615437E+02 -0.69006694115E+03  0.87630011304E+03  0.17055022714E+03 0.  0.
         24    2    3    3    0    0 -0.51647724497E+03 -0.45689269367E+01 -0.66634979019E+03  0.84677782772E+03  0.79000170684E+02 0.  0.
         -6    2    1    2    0  501  0.51203962565E+03  0.20917615437E+02 -0.13961154848E+04  0.14970682491E+04  0.17161809562E+03 0.  0.
        -24    2    5    5    0    0  0.46482236329E+03  0.45656441368E+02 -0.13303603599E+04  0.14122902696E+04  0.80998630482E+02 0.  0.
          5    1    3    3  502    0  0.44376193197E+01 -0.16348688500E+02 -0.23717150954E+02  0.29522285316E+02  0.47000000000E+01 0. -1.
        -13    1    4    4    0    0 -0.36353710991E+03 -0.26656909099E+02 -0.42161547366E+03  0.55734139333E+03  0.00000000000E+00 0.  1.
         14    1    4    4    0    0 -0.15294013506E+03  0.22087982163E+02 -0.24473431653E+03  0.28943643440E+03  0.00000000000E+00 0. -1.
         -5    1    5    5    0  501  0.47217262360E+02 -0.24738825931E+02 -0.65755124886E+02  0.84777979582E+02  0.47000000000E+01 0.  1.
         11    1    6    6    0    0  0.21048913728E+03 -0.12333304493E+01 -0.49741245393E+03  0.54011697561E+03  0.00000000000E+00 0. -1.
        -12    1    6    6    0    0  0.25433322602E+03  0.46889771818E+02 -0.83294790600E+03  0.87217329395E+03  0.00000000000E+00 0.  1.
</event>
<event>
12    1  0.1081556E+000  0.3752335E+03  0.7818608E-02  0.1052710E+00
          2   -1    0    0  502    0  0.00000000000E+00  0.00000000000E+00  0.31836368436E+04  0.31836368436E+04  0.00000000000E+00 0. -1.
         -2   -1    0    0    0  501 -0.00000000000E+00 -0.00000000000E+00 -0.23608566337E+03  0.23608566337E+03  0.00000000000E+00 0.  1.
          6    2    1    2  502    0  0.39407950900E+02 -0.33077616980E+03 -0.67751622500E+02  0.38114182193E+03  0.17237443246E+03 0.  0.
         24    2    3    3    0    0  0.15200574695E+02 -0.31342695488E+03 -0.19769326535E+02  0.32447275587E+03  0.80151291426E+02 0.  0.
         -6    2    1    2    0  501 -0.39407950900E+02  0.33077616980E+03  0.30153028027E+04  0.30385806850E+04  0.17307722617E+03 0.  0.
        -24    2    5    5    0    0 -0.17158439496E+02  0.30254695385E+03  0.21660505398E+04  0.21885551410E+04  0.78546756656E+02 0.  0.
          5    1    3    3  502    0  0.24207376205E+02 -0.17349214928E+02 -0.47982295965E+02  0.56669066054E+02  0.47000000000E+01 0. -1.
        -11    1    4    4    0    0  0.26416267317E+02 -0.24766075200E+03 -0.45089056589E+02  0.25311398674E+03  0.00000000000E+00 0.  1.
         12    1    4    4    0    0 -0.11215692622E+02 -0.65766202881E+02  0.25319730054E+02  0.71358769135E+02  0.00000000000E+00 0. -1.
         -5    1    5    5    0  501 -0.22249511404E+02  0.28229215955E+02  0.84925226293E+03  0.85002554401E+03  0.47000000000E+01 0.  1.
         13    1    6    6    0    0 -0.25525861056E+02  0.17418106053E+03  0.14910540233E+04  0.15014102411E+04  0.00000000000E+00 0. -1.
        -14    1    6    6    0    0  0.83674215603E+01  0.12836589332E+03  0.67499651644E+03  0.68714489994E+03  0.00000000000E+00 0.  1.
</event>
<event>
12    1  0.1081556E+000  0.1041720E+04  0.7818608E-02  0.9263935E-01
         -1   -1    0    0    0  501 -0.00000000000E+00  0.00000000000E+00  0.71717237264E+03  0.71717237264E+03  0.00000000000E+00 0.  1.
          1   -1    0    0  502    0  0.00000000000E+00 -0.00000000000E+00 -0.15346367731E+04  0.15346367731E+04  0.00000000000E+00 0. -1.
          6    2    1    2  502    0  0.95599217879E+03  0.37670497858E+03 -0.27554236831E+03  0.10777338472E+04  0.17250786025E+03 0.  0.
         24    2    3    3    0    0  0.59572840813E+03  0.29574583374E+03 -0.22004315530E+03  0.70430832553E+03  0.72617441326E+02 0.  0.
         -6    2    1    2    0  501 -0.95599217879E+03 -0.37670497858E+03 -0.54192203212E+03  0.11740752985E+04  0.17013415569E+03 0.  0.
        -24    2    5    5    0    0 -0.70136307796E+03 -0.28327322965E+03 -0.46586973535E+03  0.89234579610E+03  0.84217098857E+02 0.  0.
          5    1    3    3  502    0  0.36026377066E+03  0.80959144832E+02 -0.55499213017E+02  0.37342552166E+03  0.47000000000E+01 0. -1.
        -13    1    4    4    0    0  0.38580436737E+03  0.15240706833E+03 -0.13257114749E+03  0.43548597395E+03  0.00000000000E+00 0.  1.
         14    1    4    4    0    0  0.20992404076E+03  0.14333876541E+03 -0.87472007809E+02  0.26882235158E+03  0.00000000000E+00 0. -1.
         -5    1    5    5    0  501 -0.25462910083E+03 -0.93431748930E+02 -0.76052296778E+02  0.28172950244E+03  0.47000000000E+01 0.  1.
         13    1    6    6    0    0 -0.61811572238E+03 -0.26316093576E+03 -0.38369260099E+03  0.77365414522E+03  0.00000000000E+00 0. -1.
        -14    1    6    6    0    0 -0.83247355576E+02 -0.20112293891E+02 -0.82177134360E+02  0.11869165088E+03  0.00000000000E+00 0.  1.
</event>
<event>
12    1  0.1081556E+000  0.5185653E+03  0.7818608E-02  0.1009044E+00
         -1   -1    0    0    0  501 -0.00000000000E+00  0.00000000000E+00  0.15254838345E+03  0.15254838345E+03  0.00000000000E+00 0.  1.
          1   -1    0    0  502    0  0.00000000000E+00 -0.00000000000E+00 -0.25391998676E+04  0.25391998676E+04  0.00000000000E+00 0. -1.
          6    2    1    2  502    0 -0.14732441247E+03 -0.46642243586E+03 -0.44916630014E+03  0.68607686635E+03  0.17232739244E+03 0.  0.
         24    2    3    3    0    0 -0.10233010583E+03 -0.24228508959E+03 -0.16365488804E+03  0.32028882108E+03  0.81415547263E+02 0.  0.
         -6    2    1    2    0  501  0.14732441247E+03  0.46642243586E+03 -0.19374851841E+04  0.20056713847E+04  0.17208862230E+03 0.  0.
        -24    2    5    5    0    0  0.14958756518E+03  0.26624700339E+03 -0.12779637071E+04  0.13164210716E+04  0.80680199254E+02 0.  0.
          5    1    3    3  502    0 -0.44994306637E+02 -0.22413734627E+03 -0.28551141210E+03  0.36578804527E+03  0.47000000000E+01 0. -1.
        -11    1    4    4    0    0 -0.63027872043E+02 -0.70655885840E+02 -0.30288282602E+02  0.99408988130E+02  0.00000000000E+00 0.  1.
         12    1    4    4    0    0 -0.39302233789E+02 -0.17162920375E+03 -0.13336660544E+03  0.22087983295E+03  0.00000000000E+00 0. -1.
         -5    1    5    5    0  501 -0.22631527120E+01  0.20017543247E+03 -0.65952147698E+03  0.68925031318E+03  0.47000000000E+01 0.  1.
         11    1    6    6    0    0  0.84070008698E+02  0.20425086112E+03 -0.79532532697E+03  0.82542628766E+03  0.00000000000E+00 0. -1.
        -12    1    6    6    0    0  0.65517556483E+02  0.61996142272E+02 -0.48263838010E+03  0.49099478390E+03  0.00000000000E+00 0.  1.
</event>
<event>
12    1  0.1081556E+000  0.2586388E+03  0.7818608E-02  0.1107964E+00
         -2   -1    0    0    0  501 -0.00000000000E+00  0.00000000000E+00  0.10307012013E+03  0.10307012013E+03  0.00000000000E+00 0.  1.
          2   -1    0    0  502    0  0.00000000000E+00 -0.00000000000E+00 -0.67789790057E+03  0.67789790057E+03  0.00000000000E+00 0. -1.
          6    2    1    2  502    0 -0.87805243223E+01  0.19334170335E+03 -0.20700094541E+03  0.33141352650E+03  0.17183545118E+03 0.  0.
         24    2    3    3    0    0 -0.21633953748E+00  0.21038444319E+03 -0.15014557757E+03  0.27126019663E+03  0.82320951606E+02 0.  0.
         -6    2    1    2    0  501  0.87805243223E+01 -0.19334170335E+03 -0.36782683503E+03  0.44955449421E+03  0.17130251263E+03 0.  0.
        -24    2    5    5    0    0 -0.24976627520E+02 -0.18680434804E+03 -0.35916706091E+03  0.41378629601E+03  0.81843904779E+02 0.  0.
          5    1    3    3  502    0 -0.85641847848E+01 -0.17042739835E+02 -0.56855367838E+02  0.60153329867E+02  0.47000000000E+01 0. -1.
        -13    1    4    4    0    0 -0.32004736699E+02  0.17412364263E+03 -0.12623017924E+03  0.21743367781E+03  0.00000000000E+00 0.  1.
         14    1    4    4    0    0  0.31788397161E+02  0.36260800555E+02 -0.23915398330E+02  0.53826518820E+02  0.00000000000E+00 0. -1.
         -5    1    5    5    0  501  0.33757151843E+02 -0.65373553106E+01 -0.86597741214E+01  0.35768198205E+02  0.47000000000E+01 0.  1.
         11    1    6    6    0    0 -0.20890757331E+02 -0.72559779282E+02 -0.22600732302E+03  0.23828691817E+03  0.00000000000E+00 0. -1.
        -12    1    6    6    0    0 -0.40858701889E+01 -0.11424456876E+03 -0.13315973789E+03  0.17549937783E+03  0.00000000000E+00 0.  1.
</event>
<event>
12    1  0.1081556E+000  0.2771846E+03  0.7818608E-02  0.1097237E+00
          1   -1    0    0  502    0  0.00000000000E+00  0.00000000000E+00  0.22308204112E+04  0.22308204112E+04  0.00000000000E+00 0. -1.
         -1   -1    0    0    0  501 -0.00000000000E+00 -0.00000000000E+00 -0.42836752640E+03  0.42836752640E+03  0.00000000000E+00 0.  1.
          6    2    1    2  502    0  0.71142763644E+02 -0.20466852419E+03 -0.37373949286E+03  0.46544206462E+03  0.17321838639E+03 0.  0.
         24    2    3    3    0    0  0.11249898515E+03 -0.13487650207E+03 -0.24425202461E+03  0.31256839834E+03  0.84807190995E+02 0.  0.
         -6    2    1    2    0  501 -0.71142763644E+02  0.20466852419E+03  0.21761923777E+04  0.21937458730E+04  0.17250273324E+03 0.  0.
        -24    2    5    5    0    0 -0.70623430705E+02  0.18002705748E+03  0.12539992328E+04  0.12712114520E+04  0.77891393949E+02 0.  0.
          5    1    3    3  502    0 -0.41356221504E+02 -0.69792022123E+02 -0.12948746826E+03  0.15287366629E+03  0.47000000000E+01 0. -1.
        -13    1    4    4    0    0  0.53277668762E+02 -0.58851806656E+02 -0.45042334005E+02  0.91273528408E+02  0.00000000000E+00 0.  1.
         14    1    4    4    0    0  0.59221316386E+02 -0.76024695413E+02 -0.19920969060E+03  0.22129486993E+03  0.00000000000E+00 0. -1.
         -5    1    5    5    0  501 -0.51933293892E+00  0.24641466708E+02  0.92219314482E+03  0.92253442101E+03  0.47000000000E+01 0.  1.
         11    1    6    6    0    0 -0.11549146921E+02  0.53861492086E+01  0.25661065204E+03  0.25692687703E+03  0.00000000000E+00 0. -1.
        -12    1    6    6    0    0 -0.59074283784E+02  0.17464090828E+03  0.99738858079E+03  0.10142845749E+04  0.00000000000E+00 0.  1.
</event>
<event>
12    1  0.1081556E+000  0.7736344E+03  0.7818608E-02  0.9598984E-01
          1   -1    0    0  502    0  0.00000000000E+00  0.00000000000E+00  0.61412477249E+03  0.61412477249E+03  0.00000000000E+00 0. -1.
         -1   -1    0    0    0  501 -0.00000000000E+00 -0.00000000000E+00 -0.97748280593E+03  0.97748280593E+03  0.00000000000E+00 0.  1.
          6    2    1    2  502    0  0.24318473959E+03  0.71415995441E+03 -0.13820706105E+03  0.78561761189E+03  0.17008992427E+03 0.  0.
         24    2    3    3    0    0  0.35549200547E+02  0.23418969112E+03 -0.44653473998E+02  0.25433770980E+03  0.81149126923E+02 0.  0.
         -6    2    1    2    0  501 -0.24318473959E+03 -0.71415995441E+03 -0.22515097239E+03  0.80598996654E+03  0.17252132547E+03 0.  0.
        -24    2    5    5    0    0 -0.12168854629E+03 -0.31465876997E+03 -0.15974507784E+03  0.38330504559E+03  0.87097785649E+02 0.  0.
          5    1    3    3  502    0  0.20763553904E+03  0.47997026329E+03 -0.93553587048E+02  0.53127990209E+03  0.47000000000E+01 0. -1.
        -13    1    4    4    0    0  0.17030877692E+02  0.11028886414E+03 -0.62324802695E+02  0.12782044195E+03  0.00000000000E+00 0.  1.
         14    1    4    4    0    0  0.18518322855E+02  0.12390082698E+03  0.17671328697E+02  0.12651726785E+03  0.00000000000E+00 0. -1.
         -5    1    5    5    0  501 -0.12149619330E+03 -0.39950118444E+03 -0.65405894554E+02  0.42268492094E+03  0.47000000000E+01 0.  1.
         13    1    6    6    0    0 -0.27099518204E+02 -0.18489818560E+03 -0.71554358644E+02  0.20010434570E+03  0.00000000000E+00 0. -1.
        -14    1    6    6    0    0 -0.94589028086E+02 -0.12976058437E+03 -0.88190719194E+02  0.18320069989E+03  0.00000000000E+00 0.  1.
</event>
<event>
12    1  0.1081556E+000  0.5018748E+03  0.7818608E-02  0.1013291E+00
         -1   -1    0    0    0  501 -0.00000000000E+00  0.00000000000E+00  0.15216308667E+04  0.15216308667E+04  0.00000000000E+00 0.  1.
          1   -1    0    0  502    0  0.00000000000E+00 -0.00000000000E+00 -0.53669853847E+03  0.53669853847E+03  0.00000000000E+00 0. -1.
          6    2    1    2  502    0  0.53012871470E+02  0.46710133344E+03  0.13479697204E+04  0.14379560129E+04  0.17234009317E+03 0.  0.
         24    2    3    3    0    0  0.76709213762E+02  0.37403993013E+03  0.91836850868E+03  0.99772739897E+03  0.79177472237E+02 0.  0.
         -6    2    1    2    0  501 -0.53012871470E+02 -0.46710133344E+03 -0.36303739211E+03  0.62037339231E+03  0.17908930057E+03 0.  0.
        -24    2    5    5    0    0 -0.88718793527E+02 -0.41920937148E+03 -0.35009736376E+03  0.55907015240E+03  0.79898371268E+02 0.  0.
          5    1    3    3  502    0 -0.23696342292E+02  0.93061403305E+02  0.42960121171E+03  0.44022861393E+03  0.47000000000E+01 0. -1.
        -11    1    4    4    0    0  0.86062657985E+00  0.17324596933E+03  0.46158818088E+03  0.49302997404E+03  0.00000000000E+00 0.  1.
         12    1    4    4    0    0  0.75848587182E+02  0.20079396080E+03  0.45678032780E+03  0.50469742493E+03  0.00000000000E+00 0. -1.
         -5    1    5    5    0  501  0.35705922057E+02 -0.47891961954E+02 -0.12940028350E+02  0.61303239910E+02  0.47000000000E+01 0.  1.
         11    1    6    6    0    0 -0.67690013174E+02 -0.34516200779E+03 -0.24438611149E+03  0.42830283795E+03  0.00000000000E+00 0. -1.
        -12    1    6    6    0    0 -0.21028780353E+02 -0.74047363692E+02 -0.10571125227E+03  0.13076731445E+03  0.00000000000E+00 0.  1.
</event>
<event>
12    1  0.1081556E+000  0.3171837E+03  0.7818608E-02  0.1076953E+00
         -2   -1    0    0    0  501 -0.00000000000E+00  0.00000000000E+00  0.28597827646E+03  0.28597827646E+03  0.00000000000E+00 0.  1.
          2   -1    0    0  502    0  0.00000000000E+00 -0.00000000000E+00 -0.13414106599E+04  0.13414106599E+04  0.00000000000E+00 0. -1.
          6    2    1    2  502    0  0.52008142354E+02  0.26137529241E+03  0.17107521681E+03  0.36059321210E+03  0.17244954176E+03 0.  0.
         24    2    3    3    0    0  0.78031844323E+00  0.24981353041E+03  0.12481947030E+03  0.29045300702E+03  0.79847606393E+02 0.  0.
         -6    2    1    2    0  501 -0.52008142354E+02 -0.26137529241E+03 -0.12265076003E+04  0.12667957243E+04  0.17154772863E+03 0.  0.
        -24    2    5    5    0    0  0.12962194438E+01 -0.17308730403E+03 -0.48027402973E+03  0.51345466230E+03  0.54878516755E+02 0.  0.
          5    1    3    3  502    0  0.51227823910E+02  0.11561761995E+02  0.46255746514E+02  0.70140205080E+02  0.47000000000E+01 0. -1.
        -11    1    4    4    0    0 -0.35729921279E+02  0.68299875432E+02  0.34536413730E+02  0.84464573236E+02  0.00000000000E+00 0.  1.
         12    1    4    4    0    0  0.36510239722E+02  0.18151365498E+03  0.90283056569E+02  0.20598843378E+03  0.00000000000E+00 0. -1.
         -5    1    5    5    0  501 -0.53304361797E+02 -0.88287988381E+02 -0.74623357056E+03  0.75334106201E+03  0.47000000000E+01 0.  1.
         13    1    6    6    0    0  0.22719981732E+02 -0.76674133175E+02 -0.26072782819E+03  0.27271619068E+03  0.00000000000E+00 0. -1.
        -14    1    6    6    0    0 -0.21423762288E+02 -0.96413170851E+02 -0.21954620154E+03  0.24073847161E+03  0.00000000000E+00 0.  1.
</event>
<event>
12    1  0.1081556E+000  0.1220188E+04  0.7818608E-02  0.9095367E-01
         -1   -1    0    0    0  501 -0.00000000000E+00  0.00000000000E+00  0.12867818834E+04  0.12867818834E+04  0.00000000000E+00 0.  1.
          1   -1    0    0  502    0  0.00000000000E+00 -0.00000000000E+00 -0.16475090772E+04  0.16475090772E+04  0.00000000000E+00 0. -1.
          6    2    1    2  502    0  0.11897074262E+04  0.21049758051E+03  0.62014233406E+03  0.13687385135E+04  0.17075014679E+03 0.  0.
         24    2    3    3    0    0  0.11703413297E+04  0.21310808744E+03  0.58449845464E+03  0.13278186335E+04  0.79686857088E+02 0.  0.
         -6    2    1    2    0  501 -0.11897074262E+04 -0.21049758051E+03 -0.98086952792E+03  0.15655524471E+04  0.17069400267E+03 0.  0.
        -24    2    5    5    0    0 -0.36793560515E+03 -0.37732239330E+02 -0.35062665998E+03  0.51560723352E+03  0.78175655735E+02 0.  0.
          5    1    3    3  502    0  0.19366096523E+02 -0.26105069333E+01  0.35643879413E+02  0.40919880017E+02  0.47000000000E+01 0. -1.
        -11    1    4    4    0    0  0.95592011215E+03  0.20465231648E+03  0.47327758726E+03  0.10861203921E+04  0.00000000000E+00 0.  1.
         12    1    4    4    0    0  0.21442121750E+03  0.84557709686E+01  0.11122086738E+03  0.24169824144E+03  0.00000000000E+00 0. -1.
         -5    1    5    5    0  501 -0.82177182103E+03 -0.17276534118E+03 -0.63024286794E+03  0.10499452136E+04  0.47000000000E+01 0.  1.
         13    1    6    6    0    0 -0.37157538608E+03 -0.39792825176E+02 -0.34505240981E+03  0.50863828207E+03  0.00000000000E+00 0. -1.
        -14    1    6    6    0    0  0.36397809344E+01  0.20605858459E+01 -0.55742501697E+01  0.69689514443E+01  0.00000000000E+00 0.  1.
</event>
<event>
12    1  0.1081556E+000  0.7037314E+03  0.7818608E-02  0.9710872E-01
         -3   -1    0    0    0  501 -0.00000000000E+00  0.00000000000E+00  0.20620246840E+04  0.20620246840E+04  0.00000000000E+00 0.  1.
          3   -1    0    0  502    0  0.00000000000E+00 -0.00000000000E+00 -0.26758622452E+03  0.26758622452E+03  0.00000000000E+00 0. -1.
          6    2    1    2  502    0  0.52037815568E+03 -0.44200561284E+03  0.12708119936E+04  0.14529736265E+04  0.17322485308E+03 0.  0.
         24    2    3    3    0    0  0.34273387303E+03 -0.37413811879E+03  0.89207154510E+03  0.10291459431E+04  0.76836781890E+02 0.  0.
         -6    2    1    2    0  501 -0.52037815568E+03  0.44200561284E+03  0.52362646587E+03  0.87663728193E+03  0.16776728415E+03 0.  0.
        -24    2    5    5    0    0 -0.25571878013E+03  0.30112310805E+03  0.31337759808E+03  0.51041447867E+03  0.79058208611E+02 0.  0.
          5    1    3    3  502    0  0.17764428265E+03 -0.67867494050E+02  0.37874044848E+03  0.42382768340E+03  0.47000000000E+01 0. -1.
        -13    1    4    4    0    0  0.22836062747E+03 -0.22217547731E+03  0.62160940213E+03  0.69850466549E+03  0.00000000000E+00 0.  1.
         14    1    4    4    0    0  0.11437324556E+03 -0.15196264149E+03  0.27046214298E+03  0.33064127766E+03  0.00000000000E+00 0. -1.
         -5    1    5    5    0  501 -0.26465937555E+03  0.14088250479E+03  0.21024886778E+03  0.36622280326E+03  0.47000000000E+01 0.  1.
         11    1    6    6    0    0 -0.16569541803E+03  0.15087081031E+03  0.20951369933E+03  0.30677836163E+03  0.00000000000E+00 0. -1.
        -12    1    6    6    0    0 -0.90023362096E+02  0.15025229774E+03  0.10386389876E+03  0.20363611704E+03  0.00000000000E+00 0.  1.
</event>
<event>
12    1  0.1081556E+000  0.1933811E+03  0.7818608E-02  0.1155447E+00
         -2   -1    0    0    0  501 -0.00000000000E+00  0.00000000000E+00  0.30543041521E+03  0.30543041521E+03  0.00000000000E+00 0.  1.
          2   -1    0    0  502    0  0.00000000000E+00 -0.00000000000E+00 -0.41316020627E+03  0.41316020627E+03  0.00000000000E+00 0. -1.
          6    2    1    2  502    0 -0.75347475973E+02 -0.46230229196E+02  0.24750888152E+03  0.31423073617E+03  0.17223772205E+03 0.  0.
         24    2    3    3    0    0 -0.93750801759E+02 -0.83990175838E+02  0.16401762584E+03  0.22064988479E+03  0.77078061754E+02 0.  0.
         -6    2    1    2    0  501  0.75347475973E+02  0.46230229196E+02 -0.35523867258E+03  0.40435988531E+03  0.17174960298E+03 0.  0.
        -24    2    5    5    0    0 -0.22652451310E+02  0.10353691862E+02 -0.11537061728E+03  0.14273059484E+03  0.80257777731E+02 0.  0.
          5    1    3    3  502    0  0.18403325786E+02  0.37759946643E+02  0.83491255673E+02  0.93580851376E+02  0.47000000000E+01 0. -1.
        -13    1    4    4    0    0 -0.42646801509E+02 -0.57197885219E+02  0.14195217782E+03  0.15887343560E+03  0.00000000000E+00 0.  1.
         14    1    4    4    0    0 -0.51104000249E+02 -0.26792290620E+02  0.22065448026E+02  0.61776449192E+02  0.00000000000E+00 0. -1.
         -5    1    5    5    0  501  0.97999927283E+02  0.35876537334E+02 -0.23986805531E+03  0.26162929048E+03  0.47000000000E+01 0.  1.
         11    1    6    6    0    0  0.22603246263E+02 -0.19397591497E+01 -0.82241890335E+02  0.85313527257E+02  0.00000000000E+00 0. -1.
        -12    1    6    6    0    0 -0.45255697574E+02  0.12293451012E+02 -0.33128726940E+02  0.57417067579E+02  0.00000000000E+00 0.  1.
</event>
<event>
12    1  0.1081556E+000  0.7797808E+03  0.7818608E-02  0.9589754E-01
         -2   -1    0    0    0  501 -0.00000000000E+00  0.00000000000E+00  0.12224956594E+04  0.12224956594E+04  0.00000000000E+00 0.  1.
          2   -1    0    0  502    0  0.00000000000E+00 -0.00000000000E+00 -0.22804644096E+04  0.22804644096E+04  0.00000000000E+00 0. -1.
          6    2    1    2  502    0 -0.19189509581E+03 -0.73616581923E+03  0.10197874736E+04  0.12836183858E+04  0.17013473468E+03 0.  0.
         24    2    3    3    0    0 -0.20541589455E+03 -0.56956828105E+03  0.76460724492E+03  0.97853382242E+03  0.79375601538E+02 0.  0.
         -6    2    1    2    0  501  0.19189509581E+03  0.73616581923E+03 -0.20777562238E+04  0.22193416832E+04  0.17217067113E+03 0.  0.
        -24    2    5    5    0    0  0.15747218385E+03  0.71601656941E+03 -0.20034088709E+04  0.21348399197E+04  0.80107195249E+02 0.  0.
          5    1    3    3  502    0  0.13520798743E+02 -0.16659753818E+03  0.25518022868E+03  0.30508456342E+03  0.47000000000E+01 0. -1.
        -11    1    4    4    0    0 -0.14482976185E+03 -0.32669949926E+03  0.49655909023E+03  0.61178358332E+03  0.00000000000E+00 0.  1.
         12    1    4    4    0    0 -0.60586132704E+02 -0.24286878178E+03  0.26804815469E+03  0.36675023909E+03  0.00000000000E+00 0. -1.
         -5    1    5    5    0  501  0.34422911958E+02  0.20149249813E+02 -0.74347352939E+02  0.84501763442E+02  0.47000000000E+01 0.  1.
         11    1    6    6    0    0  0.32232555972E+02  0.17809801049E+03 -0.59846332403E+03  0.62523290798E+03  0.00000000000E+00 0. -1.
        -12    1    6    6    0    0  0.12523962788E+03  0.53791855893E+03 -0.14049455468E+04  0.15096070118E+04  0.00000000000E+00 0.  1.
</event>
<event>
12    1  0.1081556E+000  0.3771366E+03  0.7818608E-02  0.1051997E+00
          2   -1    0    0  502    0  0.00000000000E+00  0.00000000000E+00  0.33297134375E+04  0.33297134375E+04  0.00000000000E+00 0. -1.
         -2   -1    0    0    0  501 -0.00000000000E+00 -0.00000000000E+00 -0.24719578715E+03  0.24719578715E+03  0.00000000000E+00 0.  1.
          6    2    1    2  502    0  0.20801535348E+03  0.26331104219E+03 -0.85399453099E+02  0.38661366573E+03  0.17197083392E+03 0.  0.
         24    2    3    3    0    0  0.13705976973E+03  0.21206670983E+03 -0.11441198842E+01  0.26503353726E+03  0.80522027823E+02 0.  0.
         -6    2    1    2    0  501 -0.20801535348E+03 -0.26331104219E+03  0.31679171034E+04  0.31902955589E+04  0.17229012345E+03 0.  0.
        -24    2    5    5    0    0 -0.95291816364E+02 -0.20828197979E+03  0.23830207503E+04  0.23954250231E+04  0.82530185386E+02 0.  0.
          5    1    3    3  502    0  0.70955583757E+02  0.51244332358E+02 -0.84255333215E+02  0.12158012848E+03  0.47000000000E+01 0. -1.
        -13    1    4    4    0    0  0.13866738779E+03  0.19374561282E+03 -0.19495399513E+02  0.23905245769E+03  0.00000000000E+00 0.  1.
         14    1    4    4    0    0 -0.16076180677E+01  0.18321097009E+02  0.18351279629E+02  0.25981079567E+02  0.00000000000E+00 0. -1.
         -5    1    5    5    0  501 -0.11272353712E+03 -0.55029062398E+02  0.78489635312E+03  0.79487053579E+03  0.47000000000E+01 0.  1.
         13    1    6    6    0    0 -0.85379979702E+02 -0.19886703099E+03  0.19125868054E+04  0.19247924888E+04  0.00000000000E+00 0. -1.
        -14    1    6    6    0    0 -0.99118366617E+01 -0.94149488048E+01  0.47043394495E+03  0.47063253428E+03  0.00000000000E+00 0.  1.
</event>
<event>
12    1  0.1081556E+000  0.3485614E+03  0.7818608E-02  0.1063207E+00
         -2   -1    0    0    0  501 -0.00000000000E+00  0.00000000000E+00  0.40101757060E+03  0.40101757060E+03  0.00000000000E+00 0.  1.
          2   -1    0    0  502    0  0.00000000000E+00 -0.00000000000E+00 -0.37716735501E+03  0.37716735501E+03  0.00000000000E+00 0. -1.
          6    2    1    2  502    0 -0.15884125069E+03 -0.25769733276E+03 -0.16066823795E+03  0.38331727760E+03  0.17169564464E+03 0.  0.
         24    2    3    3    0    0 -0.17964896360E+03 -0.24837597416E+03 -0.16826055062E+03  0.35883091702E+03  0.80521049765E+02 0.  0.
         -6    2    1    2    0  501  0.15884125069E+03  0.25769733276E+03  0.18451845354E+03  0.39486764801E+03  0.17388197582E+03 0.  0.
        -24    2    5    5    0    0  0.16955445194E+03  0.26117560478E+03  0.14381008268E+03  0.35236903020E+03  0.80753853544E+02 0.  0.
          5    1    3    3  502    0  0.20807712907E+02 -0.93213586020E+01  0.75923126737E+01  0.24486360577E+02  0.47000000000E+01 0. -1.
        -13    1    4    4    0    0 -0.11508280060E+03 -0.13893403247E+03 -0.14075406436E+03  0.22881962986E+03  0.00000000000E+00 0.  1.
         14    1    4    4    0    0 -0.64566162992E+02 -0.10944194169E+03 -0.27506486257E+02  0.13001128716E+03  0.00000000000E+00 0. -1.
         -5    1    5    5    0  501 -0.10713201250E+02 -0.34782720154E+01  0.40708370862E+02  0.42498617806E+02  0.47000000000E+01 0.  1.
         11    1    6    6    0    0  0.29289120013E+02  0.96613752151E+02  0.73922428693E+02  0.12512631666E+03  0.00000000000E+00 0. -1.
        -12    1    6    6    0    0  0.14026533193E+03  0.16456185263E+03  0.69887653984E+02  0.22724271355E+03  0.00000000000E+00 0.  1.
</event>
<event>
12    1  0.1081556E+000  0.4583509E+03  0.7818608E-02  0.1025261E+00
          2   -1    0    0  502    0  0.00000000000E+00  0.00000000000E+00  0.66439285914E+03  0.66439285914E+03  0.00000000000E+00 0. -1.
         -2   -1    0    0    0  501 -0.00000000000E+00 -0.00000000000E+00 -0.55562986084E+03  0.55562986084E+03  0.00000000000E+00 0.  1.
          6    2    1    2  502    0 -0.34267140110E+03  0.25137948101E+03 -0.34608827525E+03  0.57387642951E+03  0.17012268950E+03 0.  0.
         24    2    3    3    0    0 -0.30880332997E+03  0.23702490594E+03 -0.24689431202E+03  0.46797726800E+03  0.80657420146E+02 0.  0.
         -6    2    1    2    0  501  0.34267140110E+03 -0.25137948101E+03  0.45485127355E+03  0.64614629046E+03  0.17320512415E+03 0.  0.
        -24    2    5    5    0    0  0.34405777483E+03 -0.25981457653E+03  0.41134112985E+03  0.60155598352E+03  0.82393625971E+02 0.  0.
          5    1    3    3  502    0 -0.33868071131E+02  0.14354575069E+02 -0.99193963230E+02  0.10589916151E+03  0.47000000000E+01 0. -1.
        -13    1    4    4    0    0 -0.30276887048E+03  0.20666366436E+03 -0.22883844779E+03  0.43214105832E+03  0.00000000000E+00 0.  1.
         14    1    4    4    0    0 -0.60344594893E+01  0.30361241575E+02 -0.18055864233E+02  0.35836209683E+02  0.00000000000E+00 0. -1.
         -5    1    5    5    0  501 -0.13863737366E+01  0.84350955233E+01  0.43510143703E+02  0.44590306948E+02  0.47000000000E+01 0.  1.
         13    1    6    6    0    0  0.15236523558E+03 -0.15451779791E+03  0.16847493914E+03  0.27472662776E+03  0.00000000000E+00 0. -1.
        -14    1    6    6    0    0  0.19169253925E+03 -0.10529677862E+03  0.24286619071E+03  0.32682935575E+03  0.00000000000E+00 0.  1.
</event>
<event>
12    1  0.1081556E+000  0.5511660E+03  0.7818608E-02  0.1001224E+00
          2   -1    0    0  502    0  0.00000000000E+00  0.00000000000E+00  0.13531016237E+04  0.13531016237E+04  0.00000000000E+00 0. -1.
         -2   -1    0    0    0  501 -0.00000000000E+00 -0.00000000000E+00 -0.25564018549E+03  0.25564018549E+03  0.00000000000E+00 0.  1.
          6    2    1    2  502    0  0.18691357993E+03 -0.48885210777E+03  0.82968769183E+03  0.99624016618E+03  0.17378070404E+03 0.  0.
         24    2    3    3    0    0  0.20038543142E+03 -0.35518152228E+03  0.58839369379E+03  0.72002611929E+03  0.76956082742E+02 0.  0.
         -6    2    1    2    0  501 -0.18691357993E+03  0.48885210777E+03  0.26777374634E+03  0.61250164297E+03  0.17187906730E+03 0.  0.
        -24    2    5    5    0    0 -0.39137945903E+02  0.17907739303E+03  0.55645401329E+02  0.20899385288E+03  0.83555540502E+02 0.  0.
          5    1    3    3  502    0 -0.13471851491E+02 -0.13367058549E+03  0.24129399804E+03  0.27621404688E+03  0.47000000000E+01 0. -1.
        -11    1    4    4    0    0  0.12663905479E+01 -0.39619243314E+02  0.36851722208E+02  0.54123355545E+02  0.00000000000E+00 0.  1.
         12    1    4    4    0    0  0.19911904087E+03 -0.31556227897E+03  0.55154197158E+03  0.66590276375E+03  0.00000000000E+00 0. -1.
         -5    1    5    5    0  501 -0.14777563403E+03  0.30977471474E+03  0.21212834501E+03  0.40350779009E+03  0.47000000000E+01 0.  1.
         13    1    6    6    0    0 -0.52300504388E+02  0.14824843375E+03  0.70549753160E+02  0.17230846915E+03  0.00000000000E+00 0. -1.
        -14    1    6    6    0    0  0.13162558485E+02  0.30828959275E+02 -0.14904351831E+02  0.36685383729E+02  0.00000000000E+00 0.  1.
</event>
<event>
12    1  0.1081556E+000  0.2509853E+03  0.7818608E-02  0.1112684E+00
          1   -1    0    0  502    0  0.00000000000E+00  0.00000000000E+00  0.62925955757E+03  0.62925955757E+03  0.00000000000E+00 0.  1.
         -1   -1    0    0    0  501 -0.00000000000E+00 -0.00000000000E+00 -0.10474404115E+03  0.10474404115E+03  0.00000000000E+00 0. -1.
          6    2    1    2  502    0 -0.13067332463E+03  0.12766061380E+03  0.33870957455E+03  0.42111687558E+03  0.17100437690E+03 0.  0.
         24    2    3    3    0    0  0.80658853506E+00  0.57782284160E+02  0.10701814855E+03  0.14566641650E+03  0.80164691923E+02 0.  0.
         -6    2    1    2    0  501  0.13067332463E+03 -0.12766061380E+03  0.18580594186E+03  0.31288672314E+03  0.17320942064E+03 0.  0.
        -24    2    5    5    0    0  0.12648809226E+03 -0.11787709555E+03  0.80163227803E+02  0.20660546217E+03  0.79783624688E+02 0.  0.
          5    1    3    3  502    0 -0.13147991317E+03  0.69878329644E+02  0.23169142601E+03  0.27545045908E+03  0.47000000000E+01 0. -1.
        -11    1    4    4    0    0 -0.21310630918E+02  0.29447255065E+02  0.10332475173E+03  0.10953213292E+03  0.00000000000E+00 0.  1.
         12    1    4    4    0    0  0.22117219453E+02  0.28335029095E+02  0.36933968113E+01  0.36134283584E+02  0.00000000000E+00 0. -1.
         -5    1    5    5    0  501  0.41852323763E+01 -0.97835182514E+01  0.10564271406E+03  0.10628126097E+03  0.47000000000E+01 0.  1.
         11    1    6    6    0    0  0.12953777225E+03 -0.81075462775E+02  0.71280538061E+02  0.16862437609E+03  0.00000000000E+00 0. -1.
        -12    1    6    6    0    0 -0.30496799952E+01 -0.36801632777E+02  0.88826897427E+01  0.37981086085E+02  0.00000000000E+00 0.  1.
</event>
<event>
12    1  0.1081556E+000  0.2520074E+03  0.7818608E-02  0.1112043E+00
          1   -1    0    0  502    0  0.00000000000E+00  0.00000000000E+00  0.90955879179E+03  0.90955879179E+03  0.00000000000E+00 0. -1.
         -1   -1    0    0    0  501 -0.00000000000E+00 -0.00000000000E+00 -0.17008703046E+03  0.17008703046E+03  0.00000000000E+00 0.  1.
          6    2    1    2  502    0 -0.16996612871E+03  0.81346640832E+02 -0.44128956215E+02  0.25682173539E+03  0.16883210035E+03 0.  0.
         24    2    3    3    0    0 -0.10038840303E+03  0.11167290261E+03 -0.57054339072E+02  0.17968615614E+03  0.80518621830E+02 0.  0.
         -6    2    1    2    0  501  0.16996612871E+03 -0.81346640832E+02  0.78360071754E+03  0.82282408686E+03  0.16584219155E+03 0.  0.
        -24    2    5    5    0    0  0.14933915326E+03 -0.81238107059E+02  0.77897251314E+03  0.80116781359E+03  0.78548561877E+02 0.  0.
          5    1    3    3  502    0 -0.69577725681E+02 -0.30326261777E+02  0.12925382857E+02  0.77135579250E+02  0.47000000000E+01 0. -1.
        -11    1    4    4    0    0 -0.15938757967E+02  0.41062617636E+02 -0.53836060106E+02  0.69559355520E+02  0.00000000000E+00 0.  1.
         12    1    4    4    0    0 -0.84449645066E+02  0.70610284973E+02 -0.32182789664E+01  0.11012680062E+03  0.00000000000E+00 0. -1.
         -5    1    5    5    0  501  0.20626975449E+02 -0.10853377334E+00  0.46282044005E+01  0.21656273265E+02  0.47000000000E+01 0.  1.
         13    1    6    6    0    0  0.99762481790E+02 -0.83795370244E+02  0.45035268821E+03  0.46881953950E+03  0.00000000000E+00 0. -1.
        -14    1    6    6    0    0  0.49576671475E+02  0.25572631851E+01  0.32861982493E+03  0.33234827409E+03  0.00000000000E+00 0.  1.
</event>
<event>
12    1  0.1081556E+000  0.1890679E+03  0.7818608E-02  0.1159305E+00
         -2   -1    0    0    0  501 -0.00000000000E+00  0.00000000000E+00  0.34359493268E+03  0.34359493268E+03  0.00000000000E+00 0.  1.
          2   -1    0    0  502    0  0.00000000000E+00 -0.00000000000E+00 -0.45569348004E+03  0.45569348004E+03  0.00000000000E+00 0. -1.
          6    2    1    2  502    0  0.64098615130E+02  0.44134161841E+02  0.29501266809E+03  0.35047893870E+03  0.17247189751E+03 0.  0.
         24    2    3    3    0    0 -0.12397866602E+02  0.72007575127E+02  0.17397423751E+03  0.20453021289E+03  0.78909915068E+02 0.  0.
         -6    2    1    2    0  501 -0.64098615130E+02 -0.44134161841E+02 -0.40711121546E+03  0.44880947402E+03  0.17214512923E+03 0.  0.
        -24    2    5    5    0    0 -0.58895930360E+02  0.32232860597E+02 -0.18547677309E+03  0.21428249031E+03  0.83711793574E+02 0.  0.
          5    1    3    3  502    0  0.76496481732E+02 -0.27873413286E+02  0.12103843058E+03  0.14594872580E+03  0.47000000000E+01 0. -1.
        -13    1    4    4    0    0 -0.34422691394E+02  0.21019030573E+02  0.12188252905E+03  0.12838252301E+03  0.00000000000E+00 0.  1.
         14    1    4    4    0    0  0.22024824792E+02  0.50988544554E+02  0.52091708468E+02  0.76147689879E+02  0.00000000000E+00 0. -1.
         -5    1    5    5    0  501 -0.52026847698E+01 -0.76367022438E+02 -0.22163444237E+03  0.23452698371E+03  0.47000000000E+01 0.  1.
         13    1    6    6    0    0 -0.69948409154E+02 -0.11913768473E+01 -0.10199797762E+03  0.12368422195E+03  0.00000000000E+00 0. -1.
        -14    1    6    6    0    0  0.11052478794E+02  0.33424237445E+02 -0.83478795473E+02  0.90598268360E+02  0.00000000000E+00 0.  1.
</event>
<event>
12    1  0.1081556E+000  0.1861414E+03  0.7818608E-02  0.1161988E+00
          2   -1    0    0  502    0  0.00000000000E+00  0.00000000000E+00  0.75259298671E+03  0.75259298671E+03  0.00000000000E+00 0. -1.
         -2   -1    0    0    0  501 -0.00000000000E+00 -0.00000000000E+00 -0.56787761888E+02  0.56787761888E+02  0.00000000000E+00 0.  1.
          6    2    1    2  502    0 -0.93435590180E+00  0.71176185195E+02  0.17271088972E+03  0.25434622091E+03  0.17261525513E+03 0.  0.
         24    2    3    3    0    0 -0.24035766635E+02  0.84914043432E+02  0.56638659554E+02  0.13511008317E+03  0.85197910592E+02 0.  0.
         -6    2    1    2    0  501  0.93435590180E+00 -0.71176185195E+02  0.52309433510E+03  0.55503452769E+03  0.17137304674E+03 0.  0.
        -24    2    5    5    0    0  0.20552516015E+01 -0.34332902066E+01  0.44208245612E+03  0.44932090149E+03  0.80226946606E+02 0.  0.
          5    1    3    3  502    0  0.23101410733E+02 -0.13737858237E+02  0.11607223017E+03  0.11923613774E+03  0.47000000000E+01 0. -1.
        -13    1    4    4    0    0  0.17753851819E+02  0.45809769778E+02  0.60276568173E+02  0.77762451943E+02  0.00000000000E+00 0.  1.
         14    1    4    4    0    0 -0.41789618454E+02  0.39104273654E+02 -0.36379086190E+01  0.57347631230E+02  0.00000000000E+00 0. -1.
         -5    1    5    5    0  501 -0.11208956997E+01 -0.67742894988E+02  0.81011878982E+02  0.10571362620E+03  0.47000000000E+01 0.  1.
         13    1    6    6    0    0  0.90938653560E+01 -0.32479003602E+02  0.36643174784E+03  0.36798071945E+03  0.00000000000E+00 0. -1.
        -14    1    6    6    0    0 -0.70386137545E+01  0.29045713395E+02  0.75650708277E+02  0.81340182032E+02  0.00000000000E+00 0.  1.
</event>
<event>
12    1  0.1081556E+000  0.2057295E+03  0.7818608E-02  0.1144993E+00
          1   -1    0    0  502    0  0.00000000000E+00  0.00000000000E+00  0.92462863224E+03  0.92462863224E+03  0.00000000000E+00 0. -1.
         -1   -1    0    0    0  501 -0.00000000000E+00 -0.00000000000E+00 -0.12427701840E+03  0.12427701840E+03  0.00000000000E+00 0.  1.
          6    2    1    2  502    0 -0.11191397425E+03 -0.23794962032E+01 -0.16201555036E+02  0.20698562757E+03  0.17334981973E+03 0.  0.
         24    2    3    3    0    0 -0.89562954713E+02 -0.38883393503E+02 -0.64553310792E+02  0.14223931588E+03  0.80817398500E+02 0.  0.
         -6    2    1    2    0  501  0.11191397425E+03  0.23794962032E+01  0.81655316888E+03  0.84192002307E+03  0.17187160329E+03 0.  0.
        -24    2    5    5    0    0  0.10993435884E+03 -0.56493031177E+02  0.61074011690E+03  0.62779156695E+03  0.76431245723E+02 0.  0.
          5    1    3    3  502    0 -0.22351019536E+02  0.36503897300E+02  0.48351755756E+02  0.64746311687E+02  0.47000000000E+01 0. -1.
        -13    1    4    4    0    0 -0.81442225129E+01  0.15233863971E+02 -0.36737014068E+02  0.40595654625E+02  0.00000000000E+00 0.  1.
         14    1    4    4    0    0 -0.81418732200E+02 -0.54117257474E+02 -0.27816296724E+02  0.10164366125E+03  0.00000000000E+00 0. -1.
         -5    1    5    5    0  501  0.19796154112E+01  0.58872527380E+02  0.20581305198E+03  0.21412845612E+03  0.47000000000E+01 0.  1.
         11    1    6    6    0    0  0.76335733521E+02 -0.32307860769E+02  0.53582929768E+03  0.54220289406E+03  0.00000000000E+00 0. -1.
        -12    1    6    6    0    0  0.33598625316E+02 -0.24185170407E+02  0.74910819222E+02  0.85588672892E+02  0.00000000000E+00 0.  1.
</event>
<event>
12    1  0.1429244E+000  0.4715930E+03  0.7818608E-02  0.1021472E+00
         -1   -1    0    0    0  501 -0.00000000000E+00  0.00000000000E+00  0.65288971191E+03  0.65288971191E+03  0.00000000000E+00 0.  1.
          1   -1    0    0  502    0  0.00000000000E+00 -0.00000000000E+00 -0.65643181012E+03  0.65643181012E+03  0.00000000000E+00 0. -1.
          6    2    1    2  502    0 -0.35658341964E+03 -0.25661520416E+03  0.45229883230E+03  0.65326373986E+03  0.17081036839E+03 0.  0.
         24    2    3    3    0    0 -0.33355367381E+03 -0.27154886472E+03  0.44596458505E+03  0.62470509670E+03  0.79844896371E+02 0.  0.
         -6    2    1    2    0  501  0.35658341964E+03  0.25661520416E+03 -0.45584093050E+03  0.65605778217E+03  0.17209811578E+03 0.  0.
        -24    2    5    5    0    0  0.19656554578E+03  0.19852034507E+03 -0.35281768071E+03  0.45701855838E+03  0.79607196228E+02 0.  0.
          5    1    3    3  502    0 -0.23029745830E+02  0.14933660566E+02  0.63342472424E+01  0.28558643158E+02  0.47000000000E+01 0. -1.
        -13    1    4    4    0    0 -0.12708101812E+03 -0.12988953143E+03  0.23649113827E+03  0.29824307875E+03  0.00000000000E+00 0.  1.
         14    1    4    4    0    0 -0.20647265569E+03 -0.14165933330E+03  0.20947344678E+03  0.32646201795E+03  0.00000000000E+00 0. -1.
         -5    1    5    5    0  501  0.16001787386E+03  0.58094859089E+02 -0.10302324980E+03  0.19903922379E+03  0.47000000000E+01 0.  1.
         13    1    6    6    0    0  0.13398151988E+03  0.87258919509E+02 -0.16352728649E+03  0.22870579383E+03  0.00000000000E+00 0. -1.
        -14    1    6    6    0    0  0.62584025896E+02  0.11126142556E+03 -0.18929039421E+03  0.22831276455E+03  0.00000000000E+00 0.  1.
</event>
<event>
12    1  0.1081556E+000  0.5850641E+03  0.7818608E-02  0.9936887E-01
         -2   -1    0    0    0  501 -0.00000000000E+00  0.00000000000E+00  0.24246389380E+03  0.24246389380E+03  0.00000000000E+00 0.  1.
          2   -1    0    0  502    0  0.00000000000E+00 -0.00000000000E+00 -0.27471468491E+04  0.27471468491E+04  0.00000000000E+00 0. -1.
          6    2    1    2  502    0  0.10443877071E+03 -0.54947659013E+03 -0.20987698114E+03  0.62133619528E+03  0.17081668661E+03 0.  0.
         24    2    3    3    0    0  0.21549929319E+02 -0.37253377767E+03 -0.11605508339E+03  0.40453223451E+03  0.10455492058E+03 0.  0.
         -6    2    1    2    0  501 -0.10443877071E+03  0.54947659013E+03 -0.22948059741E+04  0.23682745476E+04  0.17250476494E+03 0.  0.
        -24    2    5    5    0    0 -0.23771745062E+02  0.43072700703E+03 -0.16450941284E+04  0.17028752652E+04  0.85782440555E+02 0.  0.
          5    1    3    3  502    0  0.82888841395E+02 -0.17694281247E+03 -0.93821897750E+02  0.21680396078E+03  0.47000000000E+01 0. -1.
        -11    1    4    4    0    0  0.42955819007E+02 -0.36024442446E+03 -0.10708997364E+03  0.37827174121E+03  0.00000000000E+00 0.  1.
         12    1    4    4    0    0 -0.21405889687E+02 -0.12289353208E+02 -0.89651097454E+01  0.26260493299E+02  0.00000000000E+00 0. -1.
         -5    1    5    5    0  501 -0.80667025652E+02  0.11874958311E+03 -0.64971184573E+03  0.66539928238E+03  0.47000000000E+01 0.  1.
         11    1    6    6    0    0 -0.52185996226E+02  0.35669914993E+03 -0.13570876287E+04  0.14041525892E+04  0.00000000000E+00 0. -1.
        -12    1    6    6    0    0  0.28414251164E+02  0.74027857092E+02 -0.28800649971E+03  0.29872267602E+03  0.00000000000E+00 0.  1.
</event>
<event>
12    1  0.1081556E+000  0.5881639E+03  0.7818608E-02  0.9930271E-01
         -1   -1    0    0    0  501 -0.00000000000E+00  0.00000000000E+00  0.14519759867E+03  0.14519759867E+03  0.00000000000E+00 0.  1.
          1   -1    0    0  502    0  0.00000000000E+00 -0.00000000000E+00 -0.25985314892E+04  0.25985314892E+04  0.00000000000E+00 0. -1.
          6    2    1    2  502    0 -0.54324370365E+03 -0.14414380676E+03 -0.83225317825E+03  0.10194455129E+04  0.17530728005E+03 0.  0.
         24    2    3    3    0    0 -0.40043679570E+03 -0.60941473035E+02 -0.67458404920E+03  0.79097650940E+03  0.80726132701E+02 0.  0.
         -6    2    1    2    0  501  0.54324370365E+03  0.14414380676E+03 -0.16210807122E+04  0.17242835750E+04  0.17134763689E+03 0.  0.
        -24    2    5    5    0    0  0.19947940169E+03  0.76170700634E+02 -0.49448912184E+03  0.54444250938E+03  0.79398659082E+02 0.  0.
          5    1    3    3  502    0 -0.14280690795E+03 -0.83202333724E+02 -0.15766912905E+03  0.22846900348E+03  0.47000000000E+01 0. -1.
        -13    1    4    4    0    0 -0.35348183399E+03 -0.70352495439E+02 -0.55067317815E+03  0.65813359564E+03  0.00000000000E+00 0.  1.
         14    1    4    4    0    0 -0.46954961708E+02  0.94110224038E+01 -0.12391087105E+03  0.13284291376E+03  0.00000000000E+00 0. -1.
         -5    1    5    5    0  501  0.34376430196E+03  0.67973106126E+02 -0.11265915904E+04  0.11798410656E+04  0.47000000000E+01 0.  1.
         13    1    6    6    0    0  0.36990502962E+02 -0.99145276871E+01 -0.46876601226E+02  0.60531073930E+02  0.00000000000E+00 0. -1.
        -14    1    6    6    0    0  0.16248889872E+03  0.86085228321E+02 -0.44761252062E+03  0.48391143545E+03  0.00000000000E+00 0.  1.
</event>
<event>
12    1  0.1081556E+000  0.3480964E+03  0.7818608E-02  0.1063399E+00
          2   -1    0    0  502    0  0.00000000000E+00  0.00000000000E+00  0.28379538551E+04  0.28379538551E+04  0.00000000000E+00 0. -1.
         -2   -1    0    0    0  501 -0.00000000000E+00 -0.00000000000E+00 -0.12773424614E+03  0.12773424614E+03  0.00000000000E+00 0.  1.
          6    2    1    2  502    0  0.16833834992E+03  0.25271899470E+03  0.14539015629E+03  0.37736275665E+03  0.17046894797E+03 0.  0.
         24    2    3    3    0    0  0.71873959341E+02  0.22280861136E+03  0.11115627547E+03  0.27061980242E+03  0.77909027459E+02 0.  0.
         -6    2    1    2    0  501 -0.16833834992E+03 -0.25271899470E+03  0.25648294526E+04  0.25883253446E+04  0.16992138735E+03 0.  0.
        -24    2    5    5    0    0 -0.73179909649E+02 -0.99166975467E+02  0.16004638986E+04  0.16071748142E+04  0.79604048751E+02 0.  0.
          5    1    3    3  502    0  0.96464390575E+02  0.29910383346E+02  0.34233880823E+02  0.10674295423E+03  0.47000000000E+01 0. -1.
        -11    1    4    4    0    0  0.47177497529E+02  0.74327333357E+02  0.85426574319E+01  0.88449113919E+02  0.00000000000E+00 0.  1.
         12    1    4    4    0    0  0.24696461812E+02  0.14848127800E+03  0.10261361803E+03  0.18217068850E+03  0.00000000000E+00 0. -1.
         -5    1    5    5    0  501 -0.95158440267E+02 -0.15355201924E+03  0.96436555406E+03  0.98115053035E+03  0.47000000000E+01 0.  1.
         11    1    6    6    0    0 -0.42132559697E+02 -0.10124012541E+03  0.14024995839E+04  0.14067799396E+04  0.00000000000E+00 0. -1.
        -12    1    6    6    0    0 -0.31047349952E+02  0.20731499382E+01  0.19796431466E+03  0.20039487461E+03  0.00000000000E+00 0.  1.
</event>
<event>
12    1  0.1081556E+000  0.4936020E+03  0.7818608E-02  0.1015462E+00
         -2   -1    0    0    0  501 -0.00000000000E+00  0.00000000000E+00  0.25742411999E+03  0.25742411999E+03  0.00000000000E+00 0.  1.
          2   -1    0    0  502    0  0.00000000000E+00 -0.00000000000E+00 -0.25651480705E+04  0.25651480705E+04  0.00000000000E+00 0. -1.
          6    2    1    2  502    0 -0.41406009672E+03  0.20651248766E+03 -0.32906449637E+02  0.49485097735E+03  0.17234118513E+03 0.  0.
         24    2    3    3    0    0 -0.75912205880E+02  0.57431524906E+02 -0.79216279517E+01  0.12442492419E+03  0.79735603820E+02 0.  0.
         -6    2    1    2    0  501  0.41406009672E+03 -0.20651248766E+03 -0.22748175009E+04  0.23277212132E+04  0.17145906984E+03 0.  0.
        -24    2    5    5    0    0  0.12123705811E+03 -0.11584113728E+03 -0.93575611289E+03  0.95401305036E+03  0.79898711592E+02 0.  0.
          5    1    3    3  502    0 -0.33814789084E+03  0.14908096276E+03 -0.24984821685E+02  0.37042605315E+03  0.47000000000E+01 0. -1.
        -11    1    4    4    0    0 -0.86666698697E+02  0.51009335509E+02 -0.24636302827E+02  0.10353751199E+03  0.00000000000E+00 0.  1.
         12    1    4    4    0    0  0.10754492817E+02  0.64221893971E+01  0.16714674875E+02  0.20887412204E+02  0.00000000000E+00 0. -1.
         -5    1    5    5    0  501  0.29282303861E+03 -0.90671350387E+02 -0.13390613880E+04  0.13737081628E+04  0.47000000000E+01 0.  1.
         13    1    6    6    0    0  0.55998827677E+02 -0.63921371306E+01 -0.35474455539E+03  0.35919413650E+03  0.00000000000E+00 0. -1.
        -14    1    6    6    0    0  0.65238230436E+02 -0.10944900015E+03 -0.58101155750E+03  0.59481891386E+03  0.00000000000E+00 0.  1.
</event>
<event>
12    1  0.1081556E+000  0.7710031E+03  0.7818608E-02  0.9602964E-01
          1   -1    0    0  502    0  0.00000000000E+00  0.00000000000E+00  0.10730329045E+04  0.10730329045E+04  0.00000000000E+00 0. -1.
         -1   -1    0    0    0  501 -0.00000000000E+00 -0.00000000000E+00 -0.59137364233E+03  0.59137364233E+03  0.00000000000E+00 0.  1.
          6    2    1    2  502    0  0.21663499337E+03  0.71955493265E+03  0.31596868738E+02  0.77169888724E+03  0.17271591992E+03 0.  0.
         24    2    3    3    0    0  0.12105079300E+03  0.38508507941E+03 -0.48906202166E+02  0.41461450433E+03  0.81052808245E+02 0.  0.
         -6    2    1    2    0  501 -0.21663499337E+03 -0.71955493265E+03  0.45006239343E+03  0.89270765959E+03  0.17228112506E+03 0.  0.
        -24    2    5    5    0    0 -0.15457447257E+03 -0.64649787675E+03  0.35576788386E+03  0.75816255119E+03  0.79918049447E+02 0.  0.
          5    1    3    3  502    0  0.95584200368E+02  0.33446985324E+03  0.80503070904E+02  0.35708438290E+03  0.47000000000E+01 0. -1.
        -13    1    4    4    0    0  0.91721625224E+02  0.36419061991E+03 -0.41490018073E+02  0.37784796647E+03  0.00000000000E+00 0.  1.
         14    1    4    4    0    0  0.29329167775E+02  0.20894459498E+02 -0.74161840935E+01  0.36766537865E+02  0.00000000000E+00 0. -1.
         -5    1    5    5    0  501 -0.62060520794E+02 -0.73057055900E+02  0.94294509575E+02  0.13454510840E+03  0.47000000000E+01 0.  1.
         13    1    6    6    0    0 -0.50694148336E+02 -0.21305696633E+03  0.75502840902E+02  0.23165458459E+03  0.00000000000E+00 0. -1.
        -14    1    6    6    0    0 -0.10388032424E+03 -0.43344091042E+03  0.28026504296E+03  0.52650796660E+03  0.00000000000E+00 0.  1.
</event>
<event>
12    1  0.1081556E+000  0.3887928E+03  0.7818608E-02  0.1047731E+00
          1   -1    0    0  502    0  0.00000000000E+00  0.00000000000E+00  0.51739916168E+03  0.51739916168E+03  0.00000000000E+00 0. -1.
         -1   -1    0    0    0  501 -0.00000000000E+00 -0.00000000000E+00 -0.10520009729E+04  0.10520009729E+04  0.00000000000E+00 0.  1.
          6    2    1    2  502    0 -0.29866575718E+03  0.17973676880E+03 -0.93422475075E+03  0.10119506914E+04  0.17251601739E+03 0.  0.
         24    2    3    3    0    0 -0.22731500245E+03  0.20119703944E+03 -0.73362306986E+03  0.79790724298E+03  0.79377583488E+02 0.  0.
         -6    2    1    2    0  501  0.29866575718E+03 -0.17973676880E+03  0.39962293953E+03  0.55744944321E+03  0.17188614653E+03 0.  0.
        -24    2    5    5    0    0  0.23878072008E+03 -0.80553969182E+02  0.21926123470E+03  0.34302957478E+03  0.78029647555E+02 0.  0.
          5    1    3    3  502    0 -0.71350754722E+02 -0.21460270633E+02 -0.20060168089E+03  0.21404344837E+03  0.47000000000E+01 0. -1.
        -13    1    4    4    0    0 -0.14409697071E+03  0.11420106042E+03 -0.53427449169E+03  0.56502659374E+03  0.00000000000E+00 0.  1.
         14    1    4    4    0    0 -0.83218031748E+02  0.86995979016E+02 -0.19934857817E+03  0.23288064924E+03  0.00000000000E+00 0. -1.
         -5    1    5    5    0  501  0.59885037093E+02 -0.99182799621E+02  0.18036170483E+03  0.21441986843E+03  0.47000000000E+01 0.  1.
         11    1    6    6    0    0  0.17176017555E+03 -0.91712146473E+02  0.17612089929E+03  0.26254760879E+03  0.00000000000E+00 0. -1.
        -12    1    6    6    0    0  0.67020544536E+02  0.11158177290E+02  0.43140335408E+02  0.80481965989E+02  0.00000000000E+00 0.  1.
</event>
<event>
12    1  0.1081556E+000  0.2397819E+03  0.7818608E-02  0.1119938E+00
          1   -1    0    0  502    0  0.00000000000E+00  0.00000000000E+00  0.39964262133E+03  0.39964262133E+03  0.00000000000E+00 0. -1.
         -1   -1    0    0    0  501 -0.00000000000E+00 -0.00000000000E+00 -0.52960586198E+03  0.52960586198E+03  0.00000000000E+00 0.  1.
          6    2    1    2  502    0 -0.66271956667E+02  0.15316147512E+03 -0.46148430259E+03  0.51991315431E+03  0.17173094302E+03 0.  0.
         24    2    3    3    0    0 -0.81147048934E+02  0.15030414350E+03 -0.27814557203E+03  0.33588975136E+03  0.79251414635E+02 0.  0.
         -6    2    1    2    0  501  0.66271956667E+02 -0.15316147512E+03  0.33152106194E+03  0.40933532899E+03  0.17262325264E+03 0.  0.
        -24    2    5    5    0    0  0.89936314324E+02 -0.44359454913E+02  0.19406322497E+03  0.23237593148E+03  0.79257405784E+02 0.  0.
          5    1    3    3  502    0  0.14875092268E+02  0.28573316268E+01 -0.18333873056E+03  0.18402340296E+03  0.47000000000E+01 0. -1.
        -13    1    4    4    0    0 -0.69689233248E+02  0.13010350615E+03 -0.27546310520E+03  0.31251149398E+03  0.00000000000E+00 0.  1.
         14    1    4    4    0    0 -0.11457815687E+02  0.20200637344E+02 -0.26824668283E+01  0.23378257371E+02  0.00000000000E+00 0. -1.
         -5    1    5    5    0  501 -0.23664357657E+02 -0.10880202021E+03  0.13745783697E+03  0.17695939752E+03  0.47000000000E+01 0.  1.
         11    1    6    6    0    0  0.36596518904E+02 -0.63298790054E+01  0.14724524385E+03  0.15185695375E+03  0.00000000000E+00 0. -1.
        -12    1    6    6    0    0  0.53339795420E+02 -0.38029575907E+02  0.46817981112E+02  0.80518977729E+02  0.00000000000E+00 0.  1.
</event>
<event>
12    1  0.1081556E+000  0.4508874E+03  0.7818608E-02  0.1027458E+00
         -1   -1    0    0    0  501 -0.00000000000E+00  0.00000000000E+00  0.16433883612E+03  0.16433883612E+03  0.00000000000E+00 0.  1.
          1   -1    0    0  502    0  0.00000000000E+00 -0.00000000000E+00 -0.12394398112E+04  0.12394398112E+04  0.00000000000E+00 0. -1.
          6    2    1    2  502    0 -0.27376430080E+03 -0.31433389574E+03 -0.56822596243E+03  0.72539093138E+03  0.17192605545E+03 0.  0.
         24    2    3    3    0    0 -0.79864255907E+02 -0.11860233313E+03 -0.29412138576E+03  0.33672207366E+03  0.80184490584E+02 0.  0.
         -6    2    1    2    0  501  0.27376430080E+03  0.31433389574E+03 -0.50687501265E+03  0.67838771595E+03  0.17185727887E+03 0.  0.
        -24    2    5    5    0    0  0.18433541426E+03  0.29658054634E+03 -0.42385567136E+03  0.55498995182E+03  0.80128965211E+02 0.  0.
          5    1    3    3  502    0 -0.19390004489E+03 -0.19573156261E+03 -0.27410457667E+03  0.38866885772E+03  0.47000000000E+01 0. -1.
        -11    1    4    4    0    0 -0.92113765119E+02 -0.10207514670E+03 -0.21689687578E+03  0.25680447041E+03  0.00000000000E+00 0.  1.
         12    1    4    4    0    0  0.12249509212E+02 -0.16527186426E+02 -0.77224509979E+02  0.79917603246E+02  0.00000000000E+00 0. -1.
         -5    1    5    5    0  501  0.89428886541E+02  0.17753349394E+02 -0.83019341297E+02  0.12339776413E+03  0.47000000000E+01 0.  1.
         11    1    6    6    0    0  0.46220597240E+02  0.60154829381E+02 -0.47270651249E+02  0.89383788108E+02  0.00000000000E+00 0. -1.
        -12    1    6    6    0    0  0.13811481702E+03  0.23642571696E+03 -0.37658502011E+03  0.46560616372E+03  0.00000000000E+00 0.  1.
</event>
<event>
12    1  0.1081556E+000  0.7637094E+03  0.7818608E-02  0.9614085E-01
         -3   -1    0    0    0  501 -0.00000000000E+00  0.00000000000E+00  0.90143319044E+03  0.90143319044E+03  0.00000000000E+00 0.  1.
          3   -1    0    0  502    0  0.00000000000E+00 -0.00000000000E+00 -0.66882373511E+03  0.66882373511E+03  0.00000000000E+00 0. -1.
          6    2    1    2  502    0 -0.20963145606E+03 -0.71379839990E+03 -0.25445736555E+02  0.76402507799E+03  0.17214334499E+03 0.  0.
         24    2    3    3    0    0 -0.14605736523E+03 -0.57966030513E+03 -0.74427672553E+02  0.60764089226E+03  0.79681567656E+02 0.  0.
         -6    2    1    2    0  501  0.20963145606E+03  0.71379839990E+03  0.25805519189E+03  0.80623184756E+03  0.17310056871E+03 0.  0.
        -24    2    5    5    0    0  0.40971225710E+02  0.17235132951E+03  0.92869236004E+02  0.21553760063E+03  0.80300312381E+02 0.  0.
          5    1    3    3  502    0 -0.63574090833E+02 -0.13413809476E+03  0.48981935997E+02  0.15638418573E+03  0.47000000000E+01 0. -1.
        -11    1    4    4    0    0 -0.13851382636E+03 -0.45866339460E+03 -0.36037060612E+02  0.48047565951E+03  0.00000000000E+00 0.  1.
         12    1    4    4    0    0 -0.75435388672E+01 -0.12099691053E+03 -0.38390611940E+02  0.12716523275E+03  0.00000000000E+00 0. -1.
         -5    1    5    5    0  501  0.16866023035E+03  0.54144707039E+03  0.16518595589E+03  0.59069424693E+03  0.47000000000E+01 0.  1.
         11    1    6    6    0    0  0.56479170613E+02  0.88920085865E+02  0.28798473551E+02  0.10920636640E+03  0.00000000000E+00 0. -1.
        -12    1    6    6    0    0 -0.15507944903E+02  0.83431243645E+02  0.64070762453E+02  0.10633123423E+03  0.00000000000E+00 0.  1.
</event>
<event>
12    1  0.1081556E+000  0.1606649E+04  0.7818608E-02  0.8816474E-01
         -2   -1    0    0    0  501 -0.00000000000E+00  0.00000000000E+00  0.71604773477E+03  0.71604773477E+03  0.00000000000E+00 0.  1.
          2   -1    0    0  502    0  0.00000000000E+00 -0.00000000000E+00 -0.39490359596E+04  0.39490359596E+04  0.00000000000E+00 0. -1.
          6    2    1    2  502    0  0.15758442124E+04  0.26147238215E+03 -0.23049869157E+04  0.28096623874E+04  0.17200366605E+03 0.  0.
         24    2    3    3    0    0  0.92563542455E+03  0.96507116664E+02 -0.14032597985E+04  0.16857767657E+04  0.81182997701E+02 0.  0.
         -6    2    1    2    0  501 -0.15758442124E+04 -0.26147238215E+03 -0.92800130908E+03  0.18554213070E+04  0.17247900861E+03 0.  0.
        -24    2    5    5    0    0 -0.13227801803E+04 -0.23090724155E+03 -0.84003620707E+03  0.15857259579E+04  0.76160519357E+02 0.  0.
          5    1    3    3  502    0  0.65020878782E+03  0.16496526549E+03 -0.90172711726E+03  0.11238856217E+04  0.47000000000E+01 0. -1.
        -13    1    4    4    0    0  0.81750554589E+03  0.10135665773E+03 -0.12007467689E+04  0.14561529084E+04  0.00000000000E+00 0.  1.
         14    1    4    4    0    0  0.10812987866E+03 -0.48495410613E+01 -0.20251302955E+03  0.22962385731E+03  0.00000000000E+00 0. -1.
         -5    1    5    5    0  501 -0.25306403209E+03 -0.30565140595E+02 -0.87965102012E+02  0.26969534911E+03  0.47000000000E+01 0.  1.
         11    1    6    6    0    0 -0.69011344372E+03 -0.81867889400E+02 -0.43596199695E+03  0.82037904611E+03  0.00000000000E+00 0. -1.
        -12    1    6    6    0    0 -0.63266673655E+03 -0.14903935215E+03 -0.40407421011E+03  0.76534691174E+03  0.00000000000E+00 0.  1.
</event>
<event>
12    1  0.1081556E+000  0.1424187E+04  0.7818608E-02  0.8936494E-01
         -2   -1    0    0    0  501 -0.00000000000E+00  0.00000000000E+00  0.91612767882E+03  0.91612767882E+03  0.00000000000E+00 0.  1.
          2   -1    0    0  502    0  0.00000000000E+00 -0.00000000000E+00 -0.25802733050E+04  0.25802733050E+04  0.00000000000E+00 0. -1.
          6    2    1    2  502    0 -0.27967434185E+02 -0.14134327373E+04 -0.14906836097E+04  0.20615971185E+04  0.17167054101E+03 0.  0.
         24    2    3    3    0    0 -0.75761270517E+02 -0.12146511629E+04 -0.12736602488E+04  0.17634032315E+04  0.79141074560E+02 0.  0.
         -6    2    1    2    0  501  0.27967434185E+02  0.14134327373E+04 -0.17346201648E+03  0.14348038653E+04  0.17320156036E+03 0.  0.
        -24    2    5    5    0    0  0.29158370706E+01  0.47374454478E+03 -0.10831662270E+03  0.49251543070E+03  0.79978515296E+02 0.  0.
          5    1    3    3  502    0  0.47793836332E+02 -0.19878157435E+03 -0.21702336088E+03  0.29819388702E+03  0.47000000000E+01 0. -1.
        -13    1    4    4    0    0  0.11486555760E+02 -0.26581343208E+03 -0.25408638333E+03  0.36789755616E+03  0.00000000000E+00 0.  1.
         14    1    4    4    0    0 -0.87247826276E+02 -0.94883773086E+03 -0.10195738655E+04  0.13955056753E+04  0.00000000000E+00 0. -1.
         -5    1    5    5    0  501  0.25051597114E+02  0.93968819250E+03 -0.65145393783E+02  0.94228843460E+03  0.47000000000E+01 0.  1.
         11    1    6    6    0    0  0.35629275844E+02  0.35023266632E+03 -0.68114532156E+02  0.35856931735E+03  0.00000000000E+00 0. -1.
        -12    1    6    6    0    0 -0.32713438773E+02  0.12351187847E+03 -0.40202090543E+02  0.13394611336E+03  0.00000000000E+00 0.  1.
</event>
<event>
12    1  0.1081556E+000  0.2309200E+03  0.7818608E-02  0.1125994E+00
          2   -1    0    0  502    0  0.00000000000E+00  0.00000000000E+00  0.20899961222E+04  0.20899961222E+04  0.00000000000E+00 0. -1.
         -2   -1    0    0    0  501 -0.00000000000E+00 -0.00000000000E+00 -0.16192268752E+03  0.16192268752E+03  0.00000000000E+00 0.  1.
          6    2    1    2  502    0  0.14689861162E+03 -0.75005805000E+01 -0.72521084019E+02  0.23747462995E+03  0.17175398522E+03 0.  0.
         24    2    3    3    0    0  0.52662049295E+02  0.13224550128E+02 -0.10040443531E+03  0.13692796418E+03  0.75630923448E+02 0.  0.
         -6    2    1    2    0  501 -0.14689861162E+03  0.75005805000E+01  0.20005945187E+04  0.20144441798E+04  0.18431349478E+03 0.  0.
        -24    2    5    5    0    0 -0.11076322469E+03  0.65058530095E+02  0.16797262566E+04  0.16864240350E+04  0.77747182900E+02 0.  0.
          5    1    3    3  502    0  0.94236562326E+02 -0.20725130628E+02  0.27883351295E+02  0.10054666577E+03  0.47000000000E+01 0. -1.
        -13    1    4    4    0    0  0.33173054749E+02 -0.30560846649E+02 -0.51370634520E+02  0.68361970424E+02  0.00000000000E+00 0.  1.
         14    1    4    4    0    0  0.19488994546E+02  0.43785396777E+02 -0.49033800793E+02  0.68565993755E+02  0.00000000000E+00 0. -1.
         -5    1    5    5    0  501 -0.36135386928E+02 -0.57557949595E+02  0.32086826214E+03  0.32802014480E+03  0.47000000000E+01 0.  1.
         13    1    6    6    0    0 -0.39065562525E+02  0.50833904561E+02  0.45203352849E+03  0.45655724166E+03  0.00000000000E+00 0. -1.
        -14    1    6    6    0    0 -0.71697662168E+02  0.14224625535E+02  0.12276927281E+04  0.12298667933E+04  0.00000000000E+00 0.  1.
</event>
<event>
12    1  0.1081556E+000  0.3616084E+03  0.7818608E-02  0.1057949E+00
         -1   -1    0    0    0  501 -0.00000000000E+00  0.00000000000E+00  0.66487979665E+03  0.66487979665E+03  0.00000000000E+00 0.  1.
          1   -1    0    0  502    0  0.00000000000E+00 -0.00000000000E+00 -0.90678209918E+03  0.90678209918E+03  0.00000000000E+00 0. -1.
          6    2    1    2  502    0  0.26618964292E+03 -0.17390298842E+03  0.57447660965E+03  0.67868882913E+03  0.17174392670E+03 0.  0.
         24    2    3    3    0    0  0.18464440362E+03 -0.15275021099E+03  0.52015630350E+03  0.57834017838E+03  0.80551841146E+02 0.  0.
         -6    2    1    2    0  501 -0.26618964292E+03  0.17390298842E+03 -0.81637891218E+03  0.89297306671E+03  0.17270551304E+03 0.  0.
        -24    2    5    5    0    0 -0.24239999064E+03  0.19790671824E+03 -0.77339689353E+03  0.83809437751E+03  0.79590238782E+02 0.  0.
          5    1    3    3  502    0  0.81545239303E+02 -0.21152777431E+02  0.54320306155E+02  0.10034865075E+03  0.47000000000E+01 0. -1.
        -13    1    4    4    0    0  0.16007349041E+03 -0.94817824210E+02  0.42865377374E+03  0.46728791966E+03  0.00000000000E+00 0.  1.
         14    1    4    4    0    0  0.24570913208E+02 -0.57932386780E+02  0.91502529762E+02  0.11105225872E+03  0.00000000000E+00 0. -1.
         -5    1    5    5    0  501 -0.23789652280E+02 -0.24003729817E+02 -0.42982018651E+02  0.54878689197E+02  0.47000000000E+01 0.  1.
         11    1    6    6    0    0 -0.15405947705E+03  0.13299217309E+03 -0.59350756372E+03  0.62743323849E+03  0.00000000000E+00 0. -1.
        -12    1    6    6    0    0 -0.88340513596E+02  0.64914545145E+02 -0.17988932981E+03  0.21066113902E+03  0.00000000000E+00 0.  1.
</event>
<event>
12    1  0.1081556E+000  0.3027876E+03  0.7818608E-02  0.1083855E+00
          1   -1    0    0  502    0  0.00000000000E+00  0.00000000000E+00  0.85469879174E+03  0.85469879174E+03  0.00000000000E+00 0. -1.
         -1   -1    0    0    0  501 -0.00000000000E+00 -0.00000000000E+00 -0.11044465027E+03  0.11044465027E+03  0.00000000000E+00 0.  1.
          6    2    1    2  502    0  0.85487918906E+02 -0.23694827715E+03  0.29305648410E+03  0.42302420896E+03  0.17208924478E+03 0.  0.
         24    2    3    3    0    0  0.97087374351E+02 -0.20776881635E+03  0.17085824344E+03  0.29676856227E+03  0.79279258925E+02 0.  0.
         -6    2    1    2    0  501 -0.85487918906E+02  0.23694827715E+03  0.45119765737E+03  0.54211923305E+03  0.16389407096E+03 0.  0.
        -24    2    5    5    0    0 -0.11098277032E+03  0.13342171243E+03  0.31950733992E+03  0.37261357897E+03  0.81470303288E+02 0.  0.
          5    1    3    3  502    0 -0.11599455445E+02 -0.29179460795E+02  0.12219824067E+03  0.12625564669E+03  0.47000000000E+01 0. -1.
        -13    1    4    4    0    0  0.24074043172E+02 -0.14308321685E+03  0.10085102569E+03  0.17670114850E+03  0.00000000000E+00 0.  1.
         14    1    4    4    0    0  0.73013331179E+02 -0.64685599501E+02  0.70007217750E+02  0.12006741377E+03  0.00000000000E+00 0. -1.
         -5    1    5    5    0  501  0.25494851414E+02  0.10352656472E+03  0.13169031746E+03  0.16950565408E+03  0.47000000000E+01 0.  1.
         13    1    6    6    0    0 -0.47503282490E+02  0.76320048464E+01  0.56231304695E+02  0.74005195581E+02  0.00000000000E+00 0. -1.
        -14    1    6    6    0    0 -0.63479487829E+02  0.12578970758E+03  0.26327603522E+03  0.29860838339E+03  0.00000000000E+00 0.  1.
</event>
<event>
12    1  0.1081556E+000  0.3128725E+03  0.7818608E-02  0.1078977E+00
          1   -1    0    0  502    0  0.00000000000E+00  0.00000000000E+00  0.36363983514E+03  0.36363983514E+03  0.00000000000E+00 0. -1.
         -1   -1    0    0    0  501 -0.00000000000E+00 -0.00000000000E+00 -0.93314979587E+03  0.93314979587E+03  0.00000000000E+00 0.  1.
          6    2    1    2  502    0  0.20593007755E+03  0.16049493253E+03 -0.83169733615E+03  0.88861291456E+03  0.17247212165E+03 0.  0.
         24    2    3    3    0    0  0.98853309302E+02  0.12685354622E+03 -0.38661105347E+03  0.42956927153E+03  0.95905440044E+02 0.  0.
         -6    2    1    2    0  501 -0.20593007755E+03 -0.16049493253E+03  0.26218737542E+03  0.40817671645E+03  0.17233743589E+03 0.  0.
        -24    2    5    5    0    0 -0.11946416282E+03 -0.15116957989E+03  0.24028837232E+03  0.31837152200E+03  0.80610148669E+02 0.  0.
          5    1    3    3  502    0  0.10707676825E+03  0.33641386319E+02 -0.44508628268E+03  0.45904364302E+03  0.47000000000E+01 0. -1.
        -11    1    4    4    0    0  0.10182008922E+03  0.59149927366E+02 -0.27246306116E+03  0.29682008722E+03  0.00000000000E+00 0.  1.
         12    1    4    4    0    0 -0.29667799186E+01  0.67703618850E+02 -0.11414799231E+03  0.13274918432E+03  0.00000000000E+00 0. -1.
         -5    1    5    5    0  501 -0.86465914730E+02 -0.93253526412E+01  0.21899003105E+02  0.89805194443E+02  0.47000000000E+01 0.  1.
         11    1    6    6    0    0 -0.16510487699E+02 -0.59154166367E+02  0.12185743517E+03  0.13645895394E+03  0.00000000000E+00 0. -1.
        -12    1    6    6    0    0 -0.10295367512E+03 -0.92015413527E+02  0.11843093714E+03  0.18191256807E+03  0.00000000000E+00 0.  1.
</event>
<event>
12    1  0.1081556E+000  0.3030427E+03  0.7818608E-02  0.1083729E+00
          1   -1    0    0  502    0  0.00000000000E+00  0.00000000000E+00  0.94597478463E+03  0.94597478463E+03  0.00000000000E+00 0. -1.
         -1   -1    0    0    0  501 -0.00000000000E+00 -0.00000000000E+00 -0.15070548818E+03  0.15070548818E+03  0.00000000000E+00 0.  1.
          6    2    1    2  502    0 -0.23049639658E+03 -0.97732801780E+02  0.69578415322E+02  0.30981383948E+03  0.16871031348E+03 0.  0.
         24    2    3    3    0    0 -0.24484138939E+03 -0.92824097992E+02  0.40538741294E+02  0.27671902328E+03  0.79789781138E+02 0.  0.
         -6    2    1    2    0  501  0.23049639658E+03  0.97732801780E+02  0.72569088113E+03  0.78686643332E+03  0.17277511266E+03 0.  0.
        -24    2    5    5    0    0  0.97442618129E+02  0.70738998038E+01  0.19106777691E+03  0.22850606758E+03  0.78504927622E+02 0.  0.
          5    1    3    3  502    0  0.14344992808E+02 -0.49087037875E+01  0.29039674028E+02  0.33094816198E+02  0.47000000000E+01 0. -1.
        -11    1    4    4    0    0 -0.64610783785E+02 -0.25079295517E+02  0.47547759011E+02  0.84049472526E+02  0.00000000000E+00 0.  1.
         12    1    4    4    0    0 -0.18023060560E+03 -0.67744802475E+02 -0.70090177172E+01  0.19266955076E+03  0.00000000000E+00 0. -1.
         -5    1    5    5    0  501  0.13305377845E+03  0.90658901976E+02  0.53462310422E+03  0.55836036575E+03  0.47000000000E+01 0.  1.
         11    1    6    6    0    0  0.90072551186E+02  0.27764237750E+02  0.18157017168E+03  0.20457674506E+03  0.00000000000E+00 0. -1.
        -12    1    6    6    0    0  0.73700669425E+01 -0.20690337946E+02  0.94976052247E+01  0.23929322516E+02  0.00000000000E+00 0.  1.
</event>
<event>
12    1  0.1081556E+000  0.1581459E+04  0.7818608E-02  0.8832020E-01
         -2   -1    0    0    0  501 -0.00000000000E+00  0.00000000000E+00  0.10426136324E+04  0.10426136324E+04  0.00000000000E+00 0.  1.
          2   -1    0    0  502    0  0.00000000000E+00 -0.00000000000E+00 -0.26115549085E+04  0.26115549085E+04  0.00000000000E+00 0. -1.
          6    2    1    2  502    0  0.17257492889E+03  0.15624742076E+04 -0.26304011516E+03  0.16033450592E+04  0.17440619591E+03 0.  0.
         24    2    3    3    0    0  0.19145038418E+03  0.11824883005E+04 -0.22150255297E+03  0.12206009783E+04  0.76625953662E+02 0.  0.
         -6    2    1    2    0  501 -0.17257492889E+03 -0.15624742076E+04 -0.13059011609E+04  0.20508234817E+04  0.17143907337E+03 0.  0.
        -24    2    5    5    0    0 -0.53584002562E+02 -0.44280476728E+03 -0.32716709117E+03  0.55892503839E+03  0.80072378123E+02 0.  0.
          5    1    3    3  502    0 -0.18875455298E+02  0.37998590705E+03 -0.41537562185E+02  0.38274408087E+03  0.47000000000E+01 0. -1.
        -13    1    4    4    0    0  0.53921458491E+02  0.19039433275E+03 -0.19384439775E+02  0.19882978181E+03  0.00000000000E+00 0.  1.
         14    1    4    4    0    0  0.13752892569E+03  0.99209396777E+03 -0.20211811320E+03  0.10217711965E+04  0.00000000000E+00 0. -1.
         -5    1    5    5    0  501 -0.11899092632E+03 -0.11196694403E+04 -0.97873406972E+03  0.14918984434E+04  0.47000000000E+01 0.  1.
         13    1    6    6    0    0 -0.55124368115E+02 -0.41289251949E+03 -0.27618961352E+03  0.49979959106E+03  0.00000000000E+00 0. -1.
        -14    1    6    6    0    0  0.15403655526E+01 -0.29912247788E+02 -0.50977477652E+02  0.59125447326E+02  0.00000000000E+00 0.  1.
</event>
<event>
12    1  0.1081556E+000  0.2251037E+03  0.7818608E-02  0.1130134E+00
          2   -1    0    0  502    0  0.00000000000E+00  0.00000000000E+00  0.37988354116E+03  0.37988354116E+03  0.00000000000E+00 0. -1.
         -2   -1    0    0    0  501 -0.00000000000E+00 -0.00000000000E+00 -0.39072162334E+03  0.39072162334E+03  0.00000000000E+00 0.  1.
          6    2    1    2  502    0  0.14045693592E+03 -0.42350025533E+02 -0.31811724719E+03  0.39039798715E+03  0.17230882133E+03 0.  0.
         24    2    3    3    0    0  0.60850076238E+02 -0.64165595817E+02 -0.25977647810E+03  0.28921050496E+03  0.91317808464E+02 0.  0.
         -6    2    1    2    0  501 -0.14045693592E+03  0.42350025533E+02  0.30727916501E+03  0.38020717735E+03  0.16916068381E+03 0.  0.
        -24    2    5    5    0    0 -0.69481112444E+02  0.17953048533E+02  0.27955749284E+03  0.30006130339E+03  0.82063737742E+02 0.  0.
          5    1    3    3  502    0  0.79606859679E+02  0.21815570284E+02 -0.58340769092E+02  0.10118748220E+03  0.47000000000E+01 0. -1.
        -11    1    4    4    0    0  0.84456509520E+02 -0.46281569597E+02 -0.18054698782E+03  0.20462673456E+03  0.00000000000E+00 0.  1.
         12    1    4    4    0    0 -0.23606433283E+02 -0.17884026221E+02 -0.79229490272E+02  0.84583770399E+02  0.00000000000E+00 0. -1.
         -5    1    5    5    0  501 -0.70975823472E+02  0.24396977000E+02  0.27721672177E+02  0.80145873958E+02  0.47000000000E+01 0.  1.
         13    1    6    6    0    0 -0.86157552023E+02  0.29155670225E+01  0.21146068853E+03  0.22835771740E+03  0.00000000000E+00 0. -1.
        -14    1    6    6    0    0  0.16676439579E+02  0.15037481511E+02  0.68096804303E+02  0.71703585988E+02  0.00000000000E+00 0.  1.
</event>
<event>
12    1  0.1081556E+000  0.4911201E+03  0.7818608E-02  0.1016123E+00
          1   -1    0    0  502    0  0.00000000000E+00  0.00000000000E+00  0.18083083727E+04  0.18083083727E+04  0.00000000000E+00 0. -1.
         -1   -1    0    0    0  501 -0.00000000000E+00 -0.00000000000E+00 -0.20823707664E+03  0.20823707664E+03  0.00000000000E+00 0.  1.
          6    2    1    2  502    0 -0.38826336696E+03 -0.24547571537E+03  0.19448995506E+03  0.52730533356E+03  0.17093215972E+03 0.  0.
         24    2    3    3    0    0 -0.34950625500E+03 -0.19836081992E+03  0.21509721244E+03  0.46274004755E+03  0.79749004052E+02 0.  0.
         -6    2    1    2    0  501  0.38826336696E+03  0.24547571537E+03  0.14055813410E+04  0.14892401157E+04  0.17655154287E+03 0.  0.
        -24    2    5    5    0    0  0.31589887518E+03  0.23445618962E+03  0.13023662815E+04  0.13626167051E+04  0.76187595349E+02 0.  0.
          5    1    3    3  502    0 -0.38757111961E+02 -0.47114895447E+02 -0.20607257384E+02  0.64565286009E+02  0.47000000000E+01 0. -1.
        -11    1    4    4    0    0 -0.15764191878E+03 -0.12786770935E+03  0.82568666171E+02  0.21913171903E+03  0.00000000000E+00 0.  1.
         12    1    4    4    0    0 -0.19186433622E+03 -0.70493110573E+02  0.13252854627E+03  0.24360832853E+03  0.00000000000E+00 0. -1.
         -5    1    5    5    0  501  0.72364491779E+02  0.11019525751E+02  0.10321505951E+03  0.12662341066E+03  0.47000000000E+01 0.  1.
         13    1    6    6    0    0  0.22630628580E+03  0.20651412559E+03  0.96761601729E+03  0.10149597903E+04  0.00000000000E+00 0. -1.
        -14    1    6    6    0    0  0.89592589376E+02  0.27942064026E+02  0.33475026416E+03  0.34765691474E+03  0.00000000000E+00 0.  1.
</event>
<event>
12    1  0.1081556E+000  0.1150652E+04  0.7818608E-02  0.9157182E-01
          2   -1    0    0  502    0  0.00000000000E+00  0.00000000000E+00  0.32369377490E+04  0.32369377490E+04  0.00000000000E+00 0. -1.
         -2   -1    0    0    0  501 -0.00000000000E+00 -0.00000000000E+00 -0.51826446387E+03  0.51826446387E+03  0.00000000000E+00 0.  1.
          6    2    1    2  502    0  0.11113680136E+04  0.24293984958E+03  0.49728556452E+03  0.12534682353E+04  0.17242694682E+03 0.  0.
         24    2    3    3    0    0  0.51182723968E+03  0.89910665753E+02  0.16514183307E+03  0.55118010420E+03  0.80477519513E+02 0.  0.
         -6    2    1    2    0  501 -0.11113680136E+04 -0.24293984958E+03  0.22213877206E+04  0.25017339776E+04  0.17306315994E+03 0.  0.
        -24    2    5    5    0    0 -0.95642411524E+03 -0.24220779664E+03  0.19993479291E+04  0.22309353319E+04  0.79174543335E+02 0.  0.
          5    1    3    3  502    0  0.59954077390E+03  0.15302918383E+03  0.33214373145E+03  0.70228813106E+03  0.47000000000E+01 0. -1.
        -13    1    4    4    0    0  0.22440267709E+03 -0.53043192868E+00  0.64256023014E+02  0.23342167710E+03  0.00000000000E+00 0.  1.
         14    1    4    4    0    0  0.28742456258E+03  0.90441097682E+02  0.10088581005E+03  0.31775842710E+03  0.00000000000E+00 0. -1.
         -5    1    5    5    0  501 -0.15494389834E+03 -0.73205294329E+00  0.22203979150E+03  0.27079864576E+03  0.47000000000E+01 0.  1.
         11    1    6    6    0    0 -0.63543749953E+03 -0.15816589775E+03  0.14090072689E+04  0.15537370275E+04  0.00000000000E+00 0. -1.
        -12    1    6    6    0    0 -0.32098661572E+03 -0.84041898889E+02  0.59034066027E+03  0.67719830434E+03  0.00000000000E+00 0.  1.
</event>
<event>
12    1  0.1081556E+000  0.1085619E+04  0.7818608E-02  0.9219323E-01
         -1   -1    0    0    0  501 -0.00000000000E+00  0.00000000000E+00  0.73318667110E+03  0.73318667110E+03  0.00000000000E+00 0.  1.
          1   -1    0    0  502    0  0.00000000000E+00 -0.00000000000E+00 -0.17910360977E+04  0.17910360977E+04  0.00000000000E+00 0. -1.
          6    2    1    2  502    0  0.10319951573E+04  0.28985330581E+03 -0.93294784379E+03  0.14313456593E+04  0.17125937470E+03 0.  0.
         24    2    3    3    0    0  0.71213638835E+03  0.26546515318E+03 -0.63934388307E+03  0.99645511001E+03  0.80945674853E+02 0.  0.
         -6    2    1    2    0  501 -0.10319951573E+04 -0.28985330581E+03 -0.12490158280E+03  0.10928771095E+04  0.17248486163E+03 0.  0.
        -24    2    5    5    0    0 -0.93859058146E+03 -0.24307167109E+03 -0.73932517511E+02  0.97654623763E+03  0.90224277098E+02 0.  0.
          5    1    3    3  502    0  0.31985876897E+03  0.24388152627E+02 -0.29360396073E+03  0.43489054926E+03  0.47000000000E+01 0. -1.
        -13    1    4    4    0    0  0.44902964829E+03  0.13577319944E+03 -0.35917784855E+03  0.59082206595E+03  0.00000000000E+00 0.  1.
         14    1    4    4    0    0  0.26310674007E+03  0.12969195374E+03 -0.28016603452E+03  0.40563304406E+03  0.00000000000E+00 0. -1.
         -5    1    5    5    0  501 -0.93404575864E+02 -0.46781634714E+02 -0.50969065289E+02  0.11633087189E+03  0.47000000000E+01 0.  1.
         11    1    6    6    0    0 -0.19833635010E+03 -0.67912472969E+02 -0.49767246268E+02  0.21546737701E+03  0.00000000000E+00 0. -1.
        -12    1    6    6    0    0 -0.74025423137E+03 -0.17515919812E+03 -0.24165271242E+02  0.76107886062E+03  0.00000000000E+00 0.  1.
</event>
<event>
12    1  0.1081556E+000  0.9132142E+03  0.7818608E-02  0.9409212E-01
          2   -1    0    0  502    0  0.00000000000E+00  0.00000000000E+00  0.33738093396E+04  0.33738093396E+04  0.00000000000E+00 0. -1.
         -2   -1    0    0    0  501 -0.00000000000E+00 -0.00000000000E+00 -0.40820275850E+03  0.40820275850E+03  0.00000000000E+00 0.  1.
          6    2    1    2  502    0 -0.95603846179E+02  0.89193675066E+03  0.29493824626E+03  0.95945604188E+03  0.16992958724E+03 0.  0.
         24    2    3    3    0    0 -0.14238982712E+02  0.49298041995E+03  0.10708507641E+03  0.51101730778E+03  0.80243580305E+02 0.  0.
         -6    2    1    2    0  501  0.95603846179E+02 -0.89193675066E+03  0.26706683349E+04  0.28225560562E+04  0.17222680751E+03 0.  0.
        -24    2    5    5    0    0 -0.23570890706E+02 -0.38949413114E+03  0.11943051408E+04  0.12584839433E+04  0.71803906791E+02 0.  0.
          5    1    3    3  502    0 -0.81364863467E+02  0.39895633071E+03  0.18785316985E+03  0.44843873410E+03  0.47000000000E+01 0. -1.
        -11    1    4    4    0    0  0.31169785218E+02  0.23787963498E+03  0.64482734753E+02  0.24842765411E+03  0.00000000000E+00 0.  1.
         12    1    4    4    0    0 -0.45408767930E+02  0.25510078497E+03  0.42602341656E+02  0.26258965367E+03  0.00000000000E+00 0. -1.
         -5    1    5    5    0  501  0.11917473689E+03 -0.50244261953E+03  0.14763631941E+04  0.15640721130E+04  0.47000000000E+01 0.  1.
         13    1    6    6    0    0  0.10164282283E+02 -0.15301351855E+02  0.94673334862E+02  0.96439018747E+02  0.00000000000E+00 0. -1.
        -14    1    6    6    0    0 -0.33735172990E+02 -0.37419277928E+03  0.10996318059E+04  0.11620449245E+04  0.00000000000E+00 0.  1.
</event>
<event>
12    1  0.1081556E+000  0.1803311E+03  0.7818608E-02  0.1167483E+00
          2   -1    0    0  502    0  0.00000000000E+00  0.00000000000E+00  0.10256734567E+04  0.10256734567E+04  0.00000000000E+00 0.  1.
         -2   -1    0    0    0  501 -0.00000000000E+00 -0.00000000000E+00 -0.34489254091E+02  0.34489254091E+02  0.00000000000E+00 0. -1.
          6    2    1    2  502    0 -0.56559126895E+01 -0.47736817373E+02  0.35038376699E+03  0.39503037750E+03  0.17598131121E+03 0.  0.
         24    2    3    3    0    0  0.10869382829E+02 -0.23121599243E+02  0.35468198736E+03  0.36470614538E+03  0.80984618826E+02 0.  0.
         -6    2    1    2    0  501  0.56559126895E+01  0.47736817373E+02  0.64080043563E+03  0.66513233331E+03  0.17165380690E+03 0.  0.
        -24    2    5    5    0    0 -0.12783960779E+02  0.84042091980E+02  0.30414585518E+03  0.32599150941E+03  0.80865691757E+02 0.  0.
          5    1    3    3  502    0 -0.16525295519E+02 -0.24615218130E+02 -0.42982203628E+01  0.30324232123E+02  0.47000000000E+01 0. -1.
        -11    1    4    4    0    0 -0.33024829341E+02 -0.18006717864E+02  0.21288526132E+03  0.21618282941E+03  0.00000000000E+00 0.  1.
         12    1    4    4    0    0  0.43894212170E+02 -0.51148813791E+01  0.14179672603E+03  0.14852331597E+03  0.00000000000E+00 0. -1.
         -5    1    5    5    0  501  0.18439873468E+02 -0.36305274607E+02  0.33665458045E+03  0.33914082390E+03  0.47000000000E+01 0.  1.
         13    1    6    6    0    0  0.25214642011E+02  0.14823343956E+01  0.48717753248E+02  0.54876178516E+02  0.00000000000E+00 0. -1.
        -14    1    6    6    0    0 -0.37998602789E+02  0.82559757585E+02  0.25542810194E+03  0.27111533089E+03  0.00000000000E+00 0.  1.
</event>
<event>
12    1  0.1081556E+000  0.1394238E+04  0.7818608E-02  0.8958000E-01
         -1   -1    0    0    0  501 -0.00000000000E+00  0.00000000000E+00  0.21649024156E+04  0.21649024156E+04  0.00000000000E+00 0.  1.
          1   -1    0    0  502    0  0.00000000000E+00 -0.00000000000E+00 -0.11614411894E+04  0.11614411894E+04  0.00000000000E+00 0. -1.
          6    2    1    2  502    0 -0.73409076414E+03 -0.11727422894E+04  0.12939414201E+04  0.19021084565E+04  0.17180935440E+03 0.  0.
         24    2    3    3    0    0 -0.70731738831E+03 -0.11355387829E+04  0.12816821741E+04  0.18544293871E+04  0.80330199296E+02 0.  0.
         -6    2    1    2    0  501  0.73409076414E+03  0.11727422894E+04 -0.29048019391E+03  0.14242351485E+04  0.17278104013E+03 0.  0.
        -24    2    5    5    0    0  0.32957277756E+03  0.42692694917E+03 -0.12880439856E+03  0.56050111768E+03  0.81768540412E+02 0.  0.
          5    1    3    3  502    0 -0.26773375832E+02 -0.37203506485E+02  0.12259246002E+02  0.47679069420E+02  0.47000000000E+01 0. -1.
        -13    1    4    4    0    0 -0.47266562484E+03 -0.70453501506E+03  0.84764926948E+03  0.11992879823E+04  0.00000000000E+00 0.  1.
         14    1    4    4    0    0 -0.23465176347E+03 -0.43100376782E+03  0.43403290466E+03  0.65514140481E+03  0.00000000000E+00 0. -1.
         -5    1    5    5    0  501  0.40451798658E+03  0.74581534020E+03 -0.16167579535E+03  0.86373403079E+03  0.47000000000E+01 0.  1.
         11    1    6    6    0    0  0.75419169831E+02  0.11273012183E+03 -0.68357780364E+02  0.15188455380E+03  0.00000000000E+00 0. -1.
        -12    1    6    6    0    0  0.25415360773E+03  0.31419682734E+03 -0.60446618198E+02  0.40861656389E+03  0.00000000000E+00 0.  1.
</event>
<event>
12    1  0.1081556E+000  0.1842706E+03  0.7818608E-02  0.1163733E+00
          2   -1    0    0  502    0  0.00000000000E+00  0.00000000000E+00  0.24315868058E+04  0.24315868058E+04  0.00000000000E+00 0. -1.
         -2   -1    0    0    0  501 -0.00000000000E+00 -0.00000000000E+00 -0.67405930290E+02  0.67405930290E+02  0.00000000000E+00 0.  1.
          6    2    1    2  502    0 -0.13895198753E+02 -0.56101361010E+02  0.64978162939E+02  0.19213336786E+03  0.17132609296E+03 0.  0.
         24    2    3    3    0    0  0.51724013967E+02 -0.22068257624E+02  0.68606768837E+01  0.97985264373E+02  0.79947867586E+02 0.  0.
         -6    2    1    2    0  501  0.13895198753E+02  0.56101361010E+02  0.22992027126E+04  0.23068593682E+04  0.17868013897E+03 0.  0.
        -24    2    5    5    0    0 -0.47714413259E+02  0.42034535513E+02  0.18868860769E+04  0.18897014630E+04  0.81172560332E+02 0.  0.
          5    1    3    3  502    0 -0.65619212719E+02 -0.34033103385E+02  0.58117486055E+02  0.94148103482E+02  0.47000000000E+01 0. -1.
        -13    1    4    4    0    0  0.17702222559E+01  0.21564163158E+02 -0.16980508285E+02  0.27504262963E+02  0.00000000000E+00 0.  1.
         14    1    4    4    0    0  0.49953791711E+02 -0.43632420782E+02  0.23841185168E+02  0.70481001410E+02  0.00000000000E+00 0. -1.
         -5    1    5    5    0  501  0.61609612012E+02  0.14066825497E+02  0.41231663568E+03  0.41715790527E+03  0.47000000000E+01 0.  1.
         11    1    6    6    0    0 -0.32029150761E+02 -0.20708801401E+02  0.63187093397E+03  0.63302100925E+03  0.00000000000E+00 0. -1.
        -12    1    6    6    0    0 -0.15685262498E+02  0.62743336914E+02  0.12550151429E+04  0.12566804537E+04  0.00000000000E+00 0.  1.
</event>
<event>
12    1  0.1081556E+000  0.4602784E+03  0.7818608E-02  0.1024701E+00
          2   -1    0    0  502    0  0.00000000000E+00  0.00000000000E+00  0.28331827586E+03  0.28331827586E+03  0.00000000000E+00 0. -1.
         -2   -1    0    0    0  501 -0.00000000000E+00 -0.00000000000E+00 -0.10482457933E+04  0.10482457933E+04  0.00000000000E+00 0.  1.
          6    2    1    2  502    0  0.38956540082E+03 -0.17516781812E+03 -0.73888049529E+03  0.87048161379E+03  0.17131517037E+03 0.  0.
         24    2    3    3    0    0  0.19177438041E+03 -0.48234956908E+02 -0.45108032158E+03  0.49888469642E+03  0.79425812892E+02 0.  0.
         -6    2    1    2    0  501 -0.38956540082E+03  0.17516781812E+03 -0.26047022140E+02  0.46108245536E+03  0.17167882006E+03 0.  0.
        -24    2    5    5    0    0 -0.37260645305E+03  0.16044521146E+03 -0.62526235213E+02  0.41798739714E+03  0.78903100975E+02 0.  0.
          5    1    3    3  502    0  0.19779102041E+03 -0.12693286121E+03 -0.28780017371E+03  0.37159691737E+03  0.47000000000E+01 0. -1.
        -13    1    4    4    0    0  0.11736508976E+03 -0.64074570718E+02 -0.32775219970E+03  0.35397968772E+03  0.00000000000E+00 0.  1.
         14    1    4    4    0    0  0.74409290646E+02  0.15839613810E+02 -0.12332812188E+03  0.14490500870E+03  0.00000000000E+00 0. -1.
         -5    1    5    5    0  501 -0.16958947768E+02  0.14722606656E+02  0.36479213073E+02  0.43095058215E+02  0.47000000000E+01 0.  1.
         11    1    6    6    0    0 -0.30905234389E+03  0.98204695177E+02 -0.51714579858E+02  0.32837769593E+03  0.00000000000E+00 0. -1.
        -12    1    6    6    0    0 -0.63554109165E+02  0.62240516288E+02 -0.10811655355E+02  0.89609701211E+02  0.00000000000E+00 0.  1.
</event>
<event>
12    1  0.1081556E+000  0.7103231E+03  0.7818608E-02  0.9699739E-01
         -2   -1    0    0    0  501 -0.00000000000E+00  0.00000000000E+00  0.42313849035E+03  0.42313849035E+03  0.00000000000E+00 0.  1.
          2   -1    0    0  502    0  0.00000000000E+00 -0.00000000000E+00 -0.38755449365E+04  0.38755449365E+04  0.00000000000E+00 0. -1.
          6    2    1    2  502    0 -0.60453942832E+03 -0.33073542397E+03  0.61253442185E+02  0.71418631308E+03  0.17735913999E+03 0.  0.
         24    2    3    3    0    0 -0.35912279407E+03 -0.23980339131E+03  0.97873196264E+02  0.44987389316E+03  0.79577066404E+02 0.  0.
         -6    2    1    2    0  501  0.60453942832E+03  0.33073542397E+03 -0.35136598883E+04  0.35844971138E+04  0.16721216088E+03 0.  0.
        -24    2    5    5    0    0  0.53962881644E+03  0.23649487582E+03 -0.29402158637E+04  0.29997280928E+04  0.79813658388E+02 0.  0.
          5    1    3    3  502    0 -0.24541663426E+03 -0.90932032666E+02 -0.36619754080E+02  0.26431241992E+03  0.47000000000E+01 0. -1.
        -13    1    4    4    0    0 -0.27824589024E+03 -0.14342636566E+03  0.76600229753E+02  0.32227238945E+03  0.00000000000E+00 0.  1.
         14    1    4    4    0    0 -0.80876903823E+02 -0.96377025642E+02  0.21272966511E+02  0.12760150371E+03  0.00000000000E+00 0. -1.
         -5    1    5    5    0  501  0.64910611885E+02  0.94240548147E+02 -0.57344402462E+03  0.58476902091E+03  0.47000000000E+01 0.  1.
         13    1    6    6    0    0  0.29827826072E+03  0.16433753139E+03 -0.15640357862E+04  0.16006825687E+04  0.00000000000E+00 0. -1.
        -14    1    6    6    0    0  0.24135055572E+03  0.72157344435E+02 -0.13761800775E+04  0.13990455242E+04  0.00000000000E+00 0.  1.
</event>
<event>
12    1  0.1288330E+000  0.4262390E+03  0.7818608E-02  0.1035055E+00
          2   -1    0    0  502    0  0.00000000000E+00  0.00000000000E+00  0.19188460271E+04  0.19188460271E+04  0.00000000000E+00 0. -1.
         -2   -1    0    0    0  501 -0.00000000000E+00 -0.00000000000E+00 -0.19162516274E+04  0.19162516274E+04  0.00000000000E+00 0.  1.
          6    2    1    2  502    0  0.37238060035E+03  0.11630099982E+03 -0.18682786383E+04  0.19162619841E+04  0.17146920299E+03 0.  0.
         24    2    3    3    0    0  0.34579493666E+03  0.11759408403E+03 -0.14539933805E+04  0.15010959519E+04  0.76090730347E+02 0.  0.
         -6    2    1    2    0  501 -0.37238060035E+03 -0.11630099982E+03  0.18708730379E+04  0.19188356703E+04  0.17196270422E+03 0.  0.
        -24    2    5    5    0    0 -0.30040861931E+03 -0.14559897240E+03  0.13925026852E+04  0.14341722596E+04  0.79636316185E+02 0.  0.
          5    1    3    3  502    0  0.26585663691E+02 -0.12930842123E+01 -0.41428525773E+03  0.41516603228E+03  0.47000000000E+01 0. -1.
        -11    1    4    4    0    0  0.16727645513E+03  0.25602420950E+02 -0.76109595206E+03  0.77968195095E+03  0.00000000000E+00 0.  1.
         12    1    4    4    0    0  0.17851848153E+03  0.91991663078E+02 -0.69289742848E+03  0.72141400092E+03  0.00000000000E+00 0. -1.
         -5    1    5    5    0  501 -0.71971981037E+02  0.29297972579E+02  0.47837035279E+03  0.48466341071E+03  0.47000000000E+01 0.  1.
         11    1    6    6    0    0 -0.64769410872E+02 -0.11300178521E+01  0.20829313262E+03  0.21813386399E+03  0.00000000000E+00 0. -1.
        -12    1    6    6    0    0 -0.23563920844E+03 -0.14446895454E+03  0.11842095525E+04  0.12160383957E+04  0.00000000000E+00 0.  1.
</event>
<event>
12    1  0.1081556E+000  0.1823603E+03  0.7818608E-02  0.1165538E+00
         -2   -1    0    0    0  501 -0.00000000000E+00  0.00000000000E+00  0.62111590206E+03  0.62111590206E+03  0.00000000000E+00 0.  1.
          2   -1    0    0  502    0  0.00000000000E+00 -0.00000000000E+00 -0.50333465991E+03  0.50333465991E+03  0.00000000000E+00 0. -1.
          6    2    1    2  502    0 -0.56040660324E+02  0.24588076711E+02  0.59038170315E+03  0.61798407394E+03  0.17207158715E+03 0.  0.
         24    2    3    3    0    0 -0.53627102868E+02  0.51387532779E+01  0.59020154008E+03  0.59782907703E+03  0.78482319569E+02 0.  0.
         -6    2    1    2    0  501  0.56040660324E+02 -0.24588076711E+02 -0.47260046099E+03  0.50646648803E+03  0.17149920887E+03 0.  0.
        -24    2    5    5    0    0  0.78360350096E+02  0.35714601168E+02 -0.32465947236E+03  0.34508740751E+03  0.79155976585E+02 0.  0.
          5    1    3    3  502    0 -0.24135574557E+01  0.19449323433E+02  0.18016306917E+00  0.20154996907E+02  0.47000000000E+01 0. -1.
        -13    1    4    4    0    0 -0.54547183376E+02  0.29701658987E+02  0.28755961473E+03  0.29419061132E+03  0.00000000000E+00 0.  1.
         14    1    4    4    0    0  0.92008050740E+00 -0.24562905709E+02  0.30264192535E+03  0.30363846572E+03  0.00000000000E+00 0. -1.
         -5    1    5    5    0  501 -0.22319689771E+02 -0.60302677879E+02 -0.14794098864E+03  0.16137908052E+03  0.47000000000E+01 0.  1.
         11    1    6    6    0    0  0.84221524793E+02  0.81865837681E+01 -0.27803562904E+03  0.29062707446E+03  0.00000000000E+00 0. -1.
        -12    1    6    6    0    0 -0.58611746977E+01  0.27528017400E+02 -0.46623843317E+02  0.54460333055E+02  0.00000000000E+00 0.  1.
</event>
<event>
12    1  0.1081556E+000  0.7786949E+03  0.7818608E-02  0.9591378E-01
          2   -1    0    0  502    0  0.00000000000E+00  0.00000000000E+00  0.19152380894E+04  0.19152380894E+04  0.00000000000E+00 0. -1.
         -2   -1    0    0    0  501 -0.00000000000E+00 -0.00000000000E+00 -0.31844767687E+03  0.31844767687E+03  0.00000000000E+00 0.  1.
          6    2    1    2  502    0  0.53193932591E+03 -0.54192488694E+03  0.71326027061E+03  0.10559282622E+04  0.17205304928E+03 0.  0.
         24    2    3    3    0    0  0.26275884812E+03 -0.34891106036E+03  0.45720548725E+03  0.63724149509E+03  0.79112105217E+02 0.  0.
         -6    2    1    2    0  501 -0.53193932591E+03  0.54192488694E+03  0.88353014190E+03  0.11777575040E+04  0.17275762544E+03 0.  0.
        -24    2    5    5    0    0 -0.28747985784E+03  0.33039774536E+03  0.41628624518E+03  0.60956465635E+03  0.80420728257E+02 0.  0.
          5    1    3    3  502    0  0.26918047779E+03 -0.19301382658E+03  0.25605478336E+03  0.41868676711E+03  0.47000000000E+01 0. -1.
        -11    1    4    4    0    0  0.20677513450E+03 -0.21510082594E+03  0.32127494892E+03  0.43845400485E+03  0.00000000000E+00 0.  1.
         12    1    4    4    0    0  0.55983713622E+02 -0.13381023442E+03  0.13593053833E+03  0.19878749024E+03  0.00000000000E+00 0. -1.
         -5    1    5    5    0  501 -0.24445946807E+03  0.21152714157E+03  0.46724389672E+03  0.56819284769E+03  0.47000000000E+01 0.  1.
         13    1    6    6    0    0 -0.71199074215E+02  0.79987979929E+02  0.15280903161E+03  0.18659578035E+03  0.00000000000E+00 0. -1.
        -14    1    6    6    0    0 -0.21628078363E+03  0.25040976544E+03  0.26347721357E+03  0.42296887600E+03  0.00000000000E+00 0.  1.
</event>
<event>
12    1  0.1081556E+000  0.3470999E+03  0.7818608E-02  0.1063812E+00
         -1   -1    0    0    0  501 -0.00000000000E+00  0.00000000000E+00  0.13214533636E+03  0.13214533636E+03  0.00000000000E+00 0.  1.
          1   -1    0    0  502    0  0.00000000000E+00 -0.00000000000E+00 -0.16562815931E+04  0.16562815931E+04  0.00000000000E+00 0. -1.
          6    2    1    2  502    0  0.23332117545E+03  0.19181033973E+03 -0.16232147796E+03  0.38303392814E+03  0.17069490488E+03 0.  0.
         24    2    3    3    0    0  0.19763005704E+03  0.88133868650E+02 -0.14576136528E+03  0.27204296489E+03  0.77044019177E+02 0.  0.
         -6    2    1    2    0  501 -0.23332117545E+03 -0.19181033973E+03 -0.13618147788E+04  0.14053930013E+04  0.17134765578E+03 0.  0.
        -24    2    5    5    0    0 -0.13421470998E+03 -0.53625026533E+02 -0.90844134651E+03  0.92115459789E+03  0.48691696520E+02 0.  0.
          5    1    3    3  502    0  0.35691118417E+02  0.10367647108E+03 -0.16560112681E+02  0.11099096325E+03  0.47000000000E+01 0. -1.
        -11    1    4    4    0    0  0.96658215474E+02  0.77216528919E+02 -0.53333566680E+02  0.13472071961E+03  0.00000000000E+00 0.  1.
         12    1    4    4    0    0  0.10097184156E+03  0.10917339730E+02 -0.92427798603E+02  0.13732224528E+03  0.00000000000E+00 0. -1.
         -5    1    5    5    0  501 -0.99106465473E+02 -0.13818531320E+03 -0.45337343225E+03  0.48423840343E+03  0.47000000000E+01 0.  1.
         13    1    6    6    0    0 -0.51448933389E+02  0.35995090119E+01 -0.28039717236E+03  0.28510090053E+03  0.00000000000E+00 0. -1.
        -14    1    6    6    0    0 -0.82765776591E+02 -0.57224535545E+02 -0.62804417415E+03  0.63605369736E+03  0.00000000000E+00 0.  1.
</event>
<event>
12    1  0.1081556E+000  0.5369580E+03  0.7818608E-02  0.1004559E+00
          2   -1    0    0  502    0  0.00000000000E+00  0.00000000000E+00  0.32893387465E+04  0.32893387465E+04  0.00000000000E+00 0. -1.
         -2   -1    0    0    0  501 -0.00000000000E+00 -0.00000000000E+00 -0.24645963395E+03  0.24645963395E+03  0.00000000000E+00 0.  1.
          6    2    1    2  502    0 -0.73461812928E+02  0.50317607408E+03  0.10241526083E+03  0.54672570346E+03  0.17273479581E+03 0.  0.
         24    2    3    3    0    0 -0.43821080030E+02  0.13059986561E+03 -0.93229512422E+00  0.15891852007E+03  0.79231400937E+02 0.  0.
         -6    2    1    2    0  501  0.73461812928E+02 -0.50317607408E+03  0.29404638518E+04  0.29890726770E+04  0.17217725037E+03 0.  0.
        -24    2    5    5    0    0  0.44100391400E+02 -0.49865442244E+03  0.27762398240E+04  0.28221171150E+04  0.78970707819E+02 0.  0.
          5    1    3    3  502    0 -0.29640732898E+02  0.37257620847E+03  0.10334755595E+03  0.38780718339E+03  0.47000000000E+01 0. -1.
        -13    1    4    4    0    0 -0.53186809449E+02  0.13554104965E+03 -0.85813487654E+01  0.14585558744E+03  0.00000000000E+00 0.  1.
         14    1    4    4    0    0  0.93657294191E+01 -0.49411840434E+01  0.76490536412E+01  0.13062932630E+02  0.00000000000E+00 0. -1.
         -5    1    5    5    0  501  0.29361421529E+02 -0.45216516376E+01  0.16422402772E+03  0.16695556201E+03  0.47000000000E+01 0.  1.
         13    1    6    6    0    0 -0.15308986175E+02 -0.19320538627E+03  0.11836378886E+04  0.11994004076E+04  0.00000000000E+00 0. -1.
        -14    1    6    6    0    0  0.59409377575E+02 -0.30544903617E+03  0.15926019354E+04  0.16227167074E+04  0.00000000000E+00 0.  1.
</event>
<event>
12    1  0.1081556E+000  0.6988879E+03  0.7818608E-02  0.9719136E-01
          1   -1    0    0  502    0  0.00000000000E+00  0.00000000000E+00  0.13580445823E+04  0.13580445823E+04  0.00000000000E+00 0. -1.
         -1   -1    0    0    0  501 -0.00000000000E+00 -0.00000000000E+00 -0.40877338646E+03  0.40877338646E+03  0.00000000000E+00 0.  1.
          6    2    1    2  502    0 -0.64041056351E+03 -0.22163098712E+03  0.16722501321E+03  0.71661070583E+03  0.16223659993E+03 0.  0.
         24    2    3    3    0    0 -0.15859510751E+03 -0.54556211189E+02  0.61495120134E+02  0.19578346511E+03  0.80129439669E+02 0.  0.
         -6    2    1    2    0  501  0.64041056351E+03  0.22163098712E+03  0.78204618259E+03  0.10502072629E+04  0.17914541311E+03 0.  0.
        -24    2    5    5    0    0  0.41664701142E+03  0.74987092265E+02  0.43926415219E+03  0.61535536914E+03  0.80569465661E+02 0.  0.
          5    1    3    3  502    0 -0.48181545599E+03 -0.16707477593E+03  0.10572989307E+03  0.52082724072E+03  0.47000000000E+01 0. -1.
        -13    1    4    4    0    0 -0.12222103812E+03 -0.26026471232E+02  0.81961333479E+01  0.12522993239E+03  0.00000000000E+00 0.  1.
         14    1    4    4    0    0 -0.36374069390E+02 -0.28529739957E+02  0.53298986786E+02  0.70553532714E+02  0.00000000000E+00 0. -1.
         -5    1    5    5    0  501  0.22376355209E+03  0.14664389486E+03  0.34278203040E+03  0.43485189376E+03  0.47000000000E+01 0.  1.
         11    1    6    6    0    0  0.28148963064E+03  0.73744385671E+02  0.34080913446E+03  0.44813559634E+03  0.00000000000E+00 0. -1.
        -12    1    6    6    0    0  0.13515738078E+03  0.12427065932E+01  0.98455017738E+02  0.16721977280E+03  0.00000000000E+00 0.  1.
</event>
<event>
12    1  0.1081556E+000  0.3125295E+03  0.7818608E-02  0.1079140E+00
         -1   -1    0    0    0  501 -0.00000000000E+00  0.00000000000E+00  0.13374598064E+04  0.13374598064E+04  0.00000000000E+00 0.  1.
          1   -1    0    0  502    0  0.00000000000E+00 -0.00000000000E+00 -0.38655190555E+03  0.38655190555E+03  0.00000000000E+00 0. -1.
          6    2    1    2  502    0 -0.24078644005E+03  0.92480843716E+02  0.12515479955E+04  0.12897911239E+04  0.17509409518E+03 0.  0.
         24    2    3    3    0    0 -0.10970491232E+03  0.11822405420E+03  0.67485735686E+03  0.69781201746E+03  0.74142193323E+02 0.  0.
         -6    2    1    2    0  501  0.24078644005E+03 -0.92480843716E+02 -0.30064009468E+03  0.43422058798E+03  0.17785453699E+03 0.  0.
        -24    2    5    5    0    0  0.14879980874E+03  0.12716807032E+02 -0.20117053160E+03  0.26262696910E+03  0.78741614471E+02 0.  0.
          5    1    3    3  502    0 -0.13108152773E+03 -0.25743210489E+02  0.57669063865E+03  0.59197910648E+03  0.47000000000E+01 0. -1.
        -13    1    4    4    0    0 -0.17048217100E+02  0.58797182536E+02  0.33577237035E+03  0.34130753738E+03  0.00000000000E+00 0.  1.
         14    1    4    4    0    0 -0.92656695223E+02  0.59426871669E+02  0.33908498651E+03  0.35650448009E+03  0.00000000000E+00 0. -1.
         -5    1    5    5    0  501  0.91986631308E+02 -0.10519765075E+03 -0.99469563085E+02  0.17159361889E+03  0.47000000000E+01 0.  1.
         11    1    6    6    0    0  0.11598322517E+03 -0.13888874169E+02 -0.18193605278E+03  0.21620762394E+03  0.00000000000E+00 0. -1.
        -12    1    6    6    0    0  0.32816583574E+02  0.26605681200E+02 -0.19234478816E+02  0.46419345158E+02  0.00000000000E+00 0.  1.
</event>
<event>
12    1  0.1081556E+000  0.9074749E+03  0.7818608E-02  0.9416285E-01
         -2   -1    0    0    0  501 -0.00000000000E+00  0.00000000000E+00  0.28924393478E+03  0.28924393478E+03  0.00000000000E+00 0.  1.
          2   -1    0    0  502    0  0.00000000000E+00 -0.00000000000E+00 -0.43104292548E+04  0.43104292548E+04  0.00000000000E+00 0. -1.
          6    2    1    2  502    0 -0.32863226406E+03 -0.82869020641E+03 -0.67003717986E+03  0.11277297317E+04  0.16762428888E+03 0.  0.
         24    2    3    3    0    0 -0.28252195643E+03 -0.69641240077E+03 -0.49456151790E+03  0.90314706036E+03  0.79212561069E+02 0.  0.
         -6    2    1    2    0  501  0.32863226406E+03  0.82869020641E+03 -0.33511481401E+04  0.34719434578E+04  0.17167088891E+03 0.  0.
        -24    2    5    5    0    0  0.70314029216E+02  0.20154423453E+03 -0.75625495320E+03  0.78986718709E+03  0.80027981513E+02 0.  0.
          5    1    3    3  502    0 -0.46110307621E+02 -0.13227780564E+03 -0.17547566196E+03  0.22458267135E+03  0.47000000000E+01 0. -1.
        -13    1    4    4    0    0 -0.26578716054E+03 -0.59132649098E+03 -0.40836947925E+03  0.76620849984E+03  0.00000000000E+00 0.  1.
         14    1    4    4    0    0 -0.16734795891E+02 -0.10508590980E+03 -0.86192038651E+02  0.13693856052E+03  0.00000000000E+00 0. -1.
         -5    1    5    5    0  501  0.25831823484E+03  0.62714597188E+03 -0.25948931869E+04  0.26820762708E+04  0.47000000000E+01 0.  1.
         13    1    6    6    0    0  0.59431962992E+02  0.15358963967E+03 -0.67577976061E+03  0.69555748899E+03  0.00000000000E+00 0. -1.
        -14    1    6    6    0    0  0.10882066224E+02  0.47954594858E+02 -0.80475192588E+02  0.94309698098E+02  0.00000000000E+00 0.  1.
</event>
<event>
12    1  0.1081556E+000  0.6560356E+03  0.7818608E-02  0.9795519E-01
          2   -1    0    0  502    0  0.00000000000E+00  0.00000000000E+00  0.32445846517E+03  0.32445846517E+03  0.00000000000E+00 0. -1.
         -2   -1    0    0    0  501 -0.00000000000E+00 -0.00000000000E+00 -0.15019298384E+04  0.15019298384E+04  0.00000000000E+00 0.  1.
          6    2    1    2  502    0  0.29001500604E+03 -0.56261248725E+03 -0.90080120327E+03  0.11143252068E+04  0.17215209589E+03 0.  0.
         24    2    3    3    0    0  0.18847169858E+03 -0.35616536050E+03 -0.45937827398E+03  0.61652228198E+03  0.81828970379E+02 0.  0.
         -6    2    1    2    0  501 -0.29001500604E+03  0.56261248725E+03 -0.27667016992E+03  0.71206309674E+03  0.17275982254E+03 0.  0.
        -24    2    5    5    0    0 -0.13547484410E+03  0.34691291725E+03 -0.22315497956E+03  0.44133272950E+03  0.79211285077E+02 0.  0.
          5    1    3    3  502    0  0.10154330746E+03 -0.20644712675E+03 -0.44142292929E+03  0.49780292479E+03  0.47000000000E+01 0. -1.
        -11    1    4    4    0    0  0.19460159376E+03 -0.33248543369E+03 -0.44301406932E+03  0.58709267542E+03  0.00000000000E+00 0.  1.
         12    1    4    4    0    0 -0.61298951803E+01 -0.23679926812E+02 -0.16364204656E+02  0.29429606568E+02  0.00000000000E+00 0. -1.
         -5    1    5    5    0  501 -0.15454016195E+03  0.21569956999E+03 -0.53515190365E+02  0.27073036725E+03  0.47000000000E+01 0.  1.
         13    1    6    6    0    0 -0.94126062373E+02  0.14971999100E+03 -0.79584015026E+02  0.19393144864E+03  0.00000000000E+00 0. -1.
        -14    1    6    6    0    0 -0.41348781723E+02  0.19719292625E+03 -0.14357096453E+03  0.24740128086E+03  0.00000000000E+00 0.  1.
</event>
<event>
12    1  0.1081556E+000  0.2976370E+03  0.7818608E-02  0.1086428E+00
         -2   -1    0    0    0  501 -0.00000000000E+00  0.00000000000E+00  0.72980844990E+02  0.72980844990E+02  0.00000000000E+00 0.  1.
          2   -1    0    0  502    0  0.00000000000E+00 -0.00000000000E+00 -0.20467050061E+04  0.20467050061E+04  0.00000000000E+00 0. -1.
          6    2    1    2  502    0  0.24316274477E+03  0.86776493535E+01 -0.30854711050E+03  0.42791626467E+03  0.16943313763E+03 0.  0.
         24    2    3    3    0    0  0.48014160924E+02 -0.25746257647E+02 -0.12117144894E+03  0.15515317388E+03  0.80135871463E+02 0.  0.
         -6    2    1    2    0  501 -0.24316274477E+03 -0.86776493535E+01 -0.16651770506E+04  0.16917695864E+04  0.17339637143E+03 0.  0.
        -24    2    5    5    0    0 -0.26025018017E+03  0.64472087779E+01 -0.15867958491E+04  0.16099989038E+04  0.80023001798E+02 0.  0.
          5    1    3    3  502    0  0.19514858384E+03  0.34423907000E+02 -0.18737566156E+03  0.27276309079E+03  0.47000000000E+01 0. -1.
        -13    1    4    4    0    0  0.70180624816E+02 -0.17891098089E+02 -0.81459995976E+02  0.10900065337E+03  0.00000000000E+00 0.  1.
         14    1    4    4    0    0 -0.22166463892E+02 -0.78551595578E+01 -0.39711452959E+02  0.46152520508E+02  0.00000000000E+00 0. -1.
         -5    1    5    5    0  501  0.17087435404E+02 -0.15124858131E+02 -0.78381201492E+02  0.81770682580E+02  0.47000000000E+01 0.  1.
         11    1    6    6    0    0 -0.24845840472E+02  0.26096504106E+02 -0.19592293658E+03  0.19920878594E+03  0.00000000000E+00 0. -1.
        -12    1    6    6    0    0 -0.23540433970E+03 -0.19649295328E+02 -0.13908729125E+04  0.14107901179E+04  0.00000000000E+00 0.  1.
</event>
<event>
12    1  0.1081556E+000  0.5870540E+03  0.7818608E-02  0.9932635E-01
          2   -1    0    0  502    0  0.00000000000E+00  0.00000000000E+00  0.20909185539E+04  0.20909185539E+04  0.00000000000E+00 0. -1.
         -2   -1    0    0    0  501 -0.00000000000E+00 -0.00000000000E+00 -0.42420716657E+03  0.42420716657E+03  0.00000000000E+00 0.  1.
          6    2    1    2  502    0 -0.83408761480E+02  0.55482681353E+03 -0.14990891616E+03  0.60605760292E+03  0.17333009087E+03 0.  0.
         24    2    3    3    0    0 -0.90840854430E+02  0.52179760997E+03 -0.98844053160E+02  0.54460945789E+03  0.79400933070E+02 0.  0.
         -6    2    1    2    0  501  0.83408761480E+02 -0.55482681353E+03  0.18166203035E+04  0.19090681175E+04  0.17216833582E+03 0.  0.
        -24    2    5    5    0    0  0.10806368691E+03 -0.32561318094E+03  0.98900241413E+03  0.10499288881E+04  0.80766273657E+02 0.  0.
          5    1    3    3  502    0  0.74320929505E+01  0.33029203563E+02 -0.51064863004E+02  0.61448145027E+02  0.47000000000E+01 0. -1.
        -13    1    4    4    0    0 -0.79297326645E+02  0.27933382128E+03 -0.27858492223E+02  0.29170455141E+03  0.00000000000E+00 0.  1.
         14    1    4    4    0    0 -0.11543527785E+02  0.24246378869E+03 -0.70985560937E+02  0.25290490648E+03  0.00000000000E+00 0. -1.
         -5    1    5    5    0  501 -0.24654925433E+02 -0.22921363260E+03  0.82761788936E+03  0.85913922940E+03  0.47000000000E+01 0.  1.
         13    1    6    6    0    0  0.63506350158E+02 -0.26396778962E+03  0.83743997344E+03  0.88035092979E+03  0.00000000000E+00 0. -1.
        -14    1    6    6    0    0  0.44557336755E+02 -0.61645391315E+02  0.15156244070E+03  0.16957795835E+03  0.00000000000E+00 0.  1.
</event>
<event>
12    1  0.1081556E+000  0.1814407E+03  0.7818608E-02  0.1166416E+00
          1   -1    0    0  502    0  0.00000000000E+00  0.00000000000E+00  0.38676397273E+03  0.38676397273E+03  0.00000000000E+00 0. -1.
         -1   -1    0    0    0  501 -0.00000000000E+00 -0.00000000000E+00 -0.11753705463E+03  0.11753705463E+03  0.00000000000E+00 0.  1.
          6    2    1    2  502    0 -0.28644943958E+02 -0.45990208855E+02  0.20541891628E+01  0.18120190227E+03  0.17289961702E+03 0.  0.
         24    2    3    3    0    0  0.46693087652E+02 -0.43137114686E+02  0.10565450579E+01  0.10565691933E+03  0.84387281131E+02 0.  0.
         -6    2    1    2    0  501  0.28644943958E+02  0.45990208855E+02  0.26717272893E+03  0.32309912509E+03  0.17342475436E+03 0.  0.
        -24    2    5    5    0    0  0.41771235086E+01  0.90709269339E+02  0.22998991782E+03  0.25982891053E+03  0.79812784348E+02 0.  0.
          5    1    3    3  502    0 -0.75338031610E+02 -0.28530941692E+01  0.99764410493E+00  0.75544982937E+02  0.47000000000E+01 0. -1.
        -13    1    4    4    0    0 -0.18260204100E+02 -0.23073397919E+02 -0.18698412877E+02  0.34863267050E+02  0.00000000000E+00 0.  1.
         14    1    4    4    0    0  0.64953291752E+02 -0.20063716768E+02  0.19754957935E+02  0.70793652279E+02  0.00000000000E+00 0. -1.
         -5    1    5    5    0  501  0.24467820450E+02 -0.44719060484E+02  0.37182811119E+02  0.63270214563E+02  0.47000000000E+01 0.  1.
         13    1    6    6    0    0 -0.31416662192E+02  0.11583735102E+02  0.52525485027E+02  0.62290578417E+02  0.00000000000E+00 0. -1.
        -14    1    6    6    0    0  0.35593785701E+02  0.79125534237E+02  0.17746443279E+03  0.19753833211E+03  0.00000000000E+00 0.  1.
</event>
<event>
12    1  0.1081556E+000  0.1331023E+04  0.7818608E-02  0.9005319E-01
         -1   -1    0    0    0  501 -0.00000000000E+00  0.00000000000E+00  0.10627327182E+04  0.10627327182E+04  0.00000000000E+00 0.  1.
          1   -1    0    0  502    0  0.00000000000E+00 -0.00000000000E+00 -0.17842945115E+04  0.17842945115E+04  0.00000000000E+00 0. -1.
          6    2    1    2  502    0  0.92674619454E+03  0.93980992608E+03  0.41437729135E+01  0.13309691912E+04  0.17134938226E+03 0.  0.
         24    2    3    3    0    0  0.24797188204E+03  0.27909792766E+03 -0.30964527570E+02  0.38306118146E+03  0.79945977152E+02 0.  0.
         -6    2    1    2    0  501 -0.92674619454E+03 -0.93980992608E+03 -0.72570556626E+03  0.15160580385E+04  0.17228523141E+03 0.  0.
        -24    2    5    5    0    0 -0.53069920202E+03 -0.57707200803E+03 -0.49865665710E+03  0.93295829178E+03  0.84255368152E+02 0.  0.
          5    1    3    3  502    0  0.67877431250E+03  0.66071199841E+03  0.35108300484E+02  0.94790800973E+03  0.47000000000E+01 0. -1.
        -13    1    4    4    0    0  0.23061207112E+03  0.27304539278E+03 -0.13427266229E+02  0.35765347103E+03  0.00000000000E+00 0.  1.
         14    1    4    4    0    0  0.17359810918E+02  0.60525348890E+01 -0.17537261341E+02  0.25407710425E+02  0.00000000000E+00 0. -1.
         -5    1    5    5    0  501 -0.39604699252E+03 -0.36273791805E+03 -0.22704890916E+03  0.58309974672E+03  0.47000000000E+01 0.  1.
         13    1    6    6    0    0 -0.24921814993E+03 -0.31967104067E+03 -0.22585043548E+03  0.46401258572E+03  0.00000000000E+00 0. -1.
        -14    1    6    6    0    0 -0.28148105209E+03 -0.25740096736E+03 -0.27280622162E+03  0.46894570607E+03  0.00000000000E+00 0.  1.
</event>
<event>
12    1  0.1081556E+000  0.3961504E+03  0.7818608E-02  0.1045121E+00
         -2   -1    0    0    0  501 -0.00000000000E+00  0.00000000000E+00  0.93765093983E+02  0.93765093983E+02  0.00000000000E+00 0.  1.
          2   -1    0    0  502    0  0.00000000000E+00 -0.00000000000E+00 -0.39389012356E+04  0.39389012356E+04  0.00000000000E+00 0. -1.
          6    2    1    2  502    0 -0.20634232655E+03  0.28668961328E+03 -0.39969821863E+03  0.56486697965E+03  0.18587078478E+03 0.  0.
         24    2    3    3    0    0 -0.19486011347E+03  0.14169173863E+03 -0.25916918020E+03  0.36256343171E+03  0.78971928084E+02 0.  0.
         -6    2    1    2    0  501  0.20634232655E+03 -0.28668961328E+03 -0.34454379230E+04  0.34677993500E+04  0.17268978004E+03 0.  0.
        -24    2    5    5    0    0  0.20723504594E+03 -0.27758643195E+03 -0.28248745186E+04  0.28471507426E+04  0.79691367461E+02 0.  0.
          5    1    3    3  502    0 -0.11482213079E+02  0.14499787465E+03 -0.14052903842E+03  0.20230354794E+03  0.47000000000E+01 0. -1.
        -11    1    4    4    0    0 -0.63154539753E+02  0.94157591623E+02 -0.10987764372E+03  0.15788364241E+03  0.00000000000E+00 0.  1.
         12    1    4    4    0    0 -0.13170557372E+03  0.47534147006E+02 -0.14929153648E+03  0.20467978929E+03  0.00000000000E+00 0. -1.
         -5    1    5    5    0  501 -0.89271939332E+00 -0.91031813285E+01 -0.62056340444E+03  0.62064860734E+03  0.47000000000E+01 0.  1.
         11    1    6    6    0    0  0.14609415311E+03 -0.13178461917E+03 -0.16483797447E+04  0.16600802601E+04  0.00000000000E+00 0. -1.
        -12    1    6    6    0    0  0.61140892832E+02 -0.14580181278E+03 -0.11764947739E+04  0.11870704825E+04  0.00000000000E+00 0.  1.
</event>
<event>
12    1  0.1081556E+000  0.2284769E+03  0.7818608E-02  0.1127716E+00
          2   -1    0    0  502    0  0.00000000000E+00  0.00000000000E+00  0.42045115253E+04  0.42045115253E+04  0.00000000000E+00 0. -1.
         -2   -1    0    0    0  501 -0.00000000000E+00 -0.00000000000E+00 -0.85496641526E+02  0.85496641526E+02  0.00000000000E+00 0.  1.
          6    2    1    2  502    0 -0.14844792343E+03 -0.26211477580E+02  0.75941625467E+02  0.24046644203E+03  0.17126923756E+03 0.  0.
         24    2    3    3    0    0 -0.13031408299E+03  0.40871586605E+02  0.52112005996E+02  0.16685316582E+03  0.80449182457E+02 0.  0.
         -6    2    1    2    0  501  0.14844792343E+03  0.26211477580E+02  0.40430732583E+04  0.40495417248E+04  0.17211328055E+03 0.  0.
        -24    2    5    5    0    0  0.60070177904E+02 -0.18426562324E+02  0.29847742173E+04  0.29866108095E+04  0.83779679390E+02 0.  0.
          5    1    3    3  502    0 -0.18133840444E+02 -0.67083064185E+02  0.23829619471E+02  0.73613276207E+02  0.47000000000E+01 0. -1.
        -13    1    4    4    0    0 -0.56012634143E+02  0.37500570581E+02 -0.12229404334E+02  0.68507417904E+02  0.00000000000E+00 0.  1.
         14    1    4    4    0    0 -0.74301448846E+02  0.33710160237E+01  0.64341410330E+02  0.98345747914E+02  0.00000000000E+00 0. -1.
         -5    1    5    5    0  501  0.88377745528E+02  0.44638039904E+02  0.10582990410E+04  0.10629309153E+04  0.47000000000E+01 0.  1.
         13    1    6    6    0    0  0.66250103256E+02 -0.35302432512E+02  0.16407150753E+04  0.16424315195E+04  0.00000000000E+00 0. -1.
        -14    1    6    6    0    0 -0.61799253517E+01  0.16875870188E+02  0.13440591420E+04  0.13441792900E+04  0.00000000000E+00 0.  1.
</event>
<event>
12    1  0.1282614E+000  0.1626669E+04  0.7818608E-02  0.8804329E-01
          1   -1    0    0  502    0  0.00000000000E+00  0.00000000000E+00  0.21664632097E+04  0.21664632097E+04  0.00000000000E+00 0. -1.
         -1   -1    0    0    0  501 -0.00000000000E+00 -0.00000000000E+00 -0.16014451022E+04  0.16014451022E+04  0.00000000000E+00 0.  1.
          6    2    1    2  502    0 -0.11273868914E+04 -0.11599680895E+04 -0.63529871425E+03  0.17462853500E+04  0.17140856405E+03 0.  0.
         24    2    3    3    0    0 -0.31124060830E+03 -0.30666370856E+03 -0.21249844930E+03  0.49209027908E+03  0.77999393620E+02 0.  0.
         -6    2    1    2    0  501  0.11273868914E+04  0.11599680895E+04  0.12003168217E+04  0.20216229618E+04  0.17225491443E+03 0.  0.
        -24    2    5    5    0    0  0.69466951019E+03  0.81012002965E+03  0.77498133569E+03  0.13212156784E+04  0.78451305038E+02 0.  0.
          5    1    3    3  502    0 -0.81614628314E+03 -0.85330438092E+03 -0.42280026495E+03  0.12541950710E+04  0.47000000000E+01 0. -1.
        -11    1    4    4    0    0 -0.25640049203E+03 -0.28796533291E+03 -0.17819950636E+03  0.42475911919E+03  0.00000000000E+00 0.  1.
         12    1    4    4    0    0 -0.54840116274E+02 -0.18698375650E+02 -0.34298942937E+02  0.67331159885E+02  0.00000000000E+00 0. -1.
         -5    1    5    5    0  501  0.43271738126E+03  0.34984805983E+03  0.42533548603E+03  0.70040728343E+03  0.47000000000E+01 0.  1.
         11    1    6    6    0    0  0.27165889730E+03  0.26531965157E+03  0.25441973689E+03  0.45708038298E+03  0.00000000000E+00 0. -1.
        -12    1    6    6    0    0  0.42301061289E+03  0.54480037809E+03  0.52056159880E+03  0.86413529538E+03  0.00000000000E+00 0.  1.
</event>
<event>
12    1  0.1081556E+000  0.3479120E+03  0.7818608E-02  0.1063475E+00
          2   -1    0    0  502    0  0.00000000000E+00  0.00000000000E+00  0.16155884837E+04  0.16155884837E+04  0.00000000000E+00 0. -1.
         -2   -1    0    0    0  501 -0.00000000000E+00 -0.00000000000E+00 -0.82298008884E+02  0.82298008884E+02  0.00000000000E+00 0.  1.
          6    2    1    2  502    0 -0.28398938505E+03 -0.10475921459E+03  0.10206196490E+04  0.10782596961E+04  0.17133312734E+03 0.  0.
         24    2    3    3    0    0 -0.98577905832E+02 -0.99417158805E+02  0.43311513814E+03  0.46215126861E+03  0.79960597857E+02 0.  0.
         -6    2    1    2    0  501  0.28398938505E+03  0.10475921459E+03  0.51267082585E+03  0.61962679648E+03  0.17170185607E+03 0.  0.
        -24    2    5    5    0    0  0.27024451746E+03  0.13688290630E+03  0.46222442840E+03  0.55808183755E+03  0.77684528323E+02 0.  0.
          5    1    3    3  502    0 -0.18541147922E+03 -0.53420557839E+01  0.58750451083E+03  0.61610842750E+03  0.47000000000E+01 0. -1.
        -11    1    4    4    0    0 -0.99852379852E+02 -0.65627180682E+02  0.38660059319E+03  0.40464483595E+03  0.00000000000E+00 0.  1.
         12    1    4    4    0    0  0.12744740191E+01 -0.33789978123E+02  0.46514544955E+02  0.57506432666E+02  0.00000000000E+00 0. -1.
         -5    1    5    5    0  501  0.13744867590E+02 -0.32123691709E+02  0.50446397448E+02  0.61544958929E+02  0.47000000000E+01 0.  1.
         11    1    6    6    0    0  0.66817974656E+02  0.12577545344E+02  0.15463019706E+03  0.16891812877E+03  0.00000000000E+00 0. -1.
        -12    1    6    6    0    0  0.20342654280E+03  0.12430536095E+03  0.30759423134E+03  0.38916370878E+03  0.00000000000E+00 0.  1.
</event>
<event>
12    1  0.1081556E+000  0.4483944E+03  0.7818608E-02  0.1028202E+00
         -1   -1    0    0    0  501 -0.00000000000E+00  0.00000000000E+00  0.28552763729E+03  0.28552763729E+03  0.00000000000E+00 0.  1.
          1   -1    0    0  502    0  0.00000000000E+00 -0.00000000000E+00 -0.84618053225E+03  0.84618053225E+03  0.00000000000E+00 0. -1.
          6    2    1    2  502    0  0.25816533453E+02  0.41311634476E+03 -0.48445172767E+02  0.45088200735E+03  0.17209312038E+03 0.  0.
         24    2    3    3    0    0 -0.19434516994E+02  0.38464812192E+03 -0.53670869557E+02  0.39696081314E+03  0.79783750123E+02 0.  0.
         -6    2    1    2    0  501 -0.25816533453E+02 -0.41311634476E+03 -0.51220772219E+03  0.68082616219E+03  0.17273072900E+03 0.  0.
        -24    2    5    5    0    0  0.34498422028E+02 -0.32883579301E+03 -0.43107478220E+03  0.54912290023E+03  0.79921034930E+02 0.  0.
          5    1    3    3  502    0  0.45251050447E+02  0.28468222842E+02  0.52256967892E+01  0.53921194212E+02  0.47000000000E+01 0. -1.
        -11    1    4    4    0    0  0.30978484236E+02  0.15754594862E+03 -0.26794255167E+02  0.16278305969E+03  0.00000000000E+00 0.  1.
         12    1    4    4    0    0 -0.50413001230E+02  0.22710217330E+03 -0.26876614390E+02  0.23417775345E+03  0.00000000000E+00 0. -1.
         -5    1    5    5    0  501 -0.60314955481E+02 -0.84280551754E+02 -0.81132939991E+02  0.13170326196E+03  0.47000000000E+01 0.  1.
         13    1    6    6    0    0  0.17023841281E+02 -0.21035454527E+03 -0.33339353690E+03  0.39457584358E+03  0.00000000000E+00 0. -1.
        -14    1    6    6    0    0  0.17474580748E+02 -0.11848124773E+03 -0.97681245302E+02  0.15454705665E+03  0.00000000000E+00 0.  1.
</event>
<event>
12    1  0.1081556E+000  0.1929996E+04  0.7818608E-02  0.8640068E-01
          2   -1    0    0  502    0  0.00000000000E+00  0.00000000000E+00  0.32371629685E+04  0.32371629685E+04  0.00000000000E+00 0. -1.
         -2   -1    0    0    0  501 -0.00000000000E+00 -0.00000000000E+00 -0.16733460967E+04  0.16733460967E+04  0.00000000000E+00 0.  1.
          6    2    1    2  502    0 -0.18803544902E+04 -0.39901377067E+03 -0.59029883895E+03  0.20182841007E+04  0.17341566760E+03 0.  0.
         24    2    3    3    0    0 -0.13734452696E+04 -0.35547559674E+03 -0.44924019461E+03  0.14902953113E+04  0.80302889640E+02 0.  0.
         -6    2    1    2    0  501  0.18803544902E+04  0.39901377067E+03  0.21541157107E+04  0.28922249645E+04  0.17264342546E+03 0.  0.
        -24    2    5    5    0    0  0.15463812672E+04  0.36285693542E+03  0.17085111890E+04  0.23341650124E+04  0.79722286982E+02 0.  0.
          5    1    3    3  502    0 -0.50690922064E+03 -0.43538173932E+02 -0.14105864434E+03  0.52798878937E+03  0.47000000000E+01 0. -1.
        -11    1    4    4    0    0 -0.13656885211E+04 -0.35599112929E+03 -0.45216741655E+03  0.14819885942E+04  0.00000000000E+00 0.  1.
         12    1    4    4    0    0 -0.77567484705E+01  0.51553255353E+00  0.29272219377E+01  0.83067170965E+01  0.00000000000E+00 0. -1.
         -5    1    5    5    0  501  0.33397322306E+03  0.36156835246E+02  0.44560452165E+03  0.55805995213E+03  0.47000000000E+01 0.  1.
         13    1    6    6    0    0  0.96286976046E+03  0.18621254148E+03  0.10497984399E+04  0.14366175728E+04  0.00000000000E+00 0. -1.
        -14    1    6    6    0    0  0.58351150671E+03  0.17664439395E+03  0.65871274912E+03  0.89754743954E+03  0.00000000000E+00 0.  1.
</event>
<event>
12    1  0.1081556E+000  0.8347705E+03  0.7818608E-02  0.9511009E-01
         -2   -1    0    0    0  501 -0.00000000000E+00  0.00000000000E+00  0.20391791706E+04  0.20391791706E+04  0.00000000000E+00 0.  1.
          2   -1    0    0  502    0  0.00000000000E+00 -0.00000000000E+00 -0.82962189034E+03  0.82962189034E+03  0.00000000000E+00 0. -1.
          6    2    1    2  502    0  0.60271687827E+03 -0.55138213685E+03  0.17048025390E+04  0.18982396278E+04  0.17225588974E+03 0.  0.
         24    2    3    3    0    0  0.13692192405E+03 -0.16444719318E+03  0.51333889785E+03  0.56171754116E+03  0.78862407852E+02 0.  0.
         -6    2    1    2    0  501 -0.60271687827E+03  0.55138213685E+03 -0.49524525872E+03  0.97056143312E+03  0.17155679229E+03 0.  0.
        -24    2    5    5    0    0 -0.20962141072E+03  0.26897993784E+03 -0.23737864274E+03  0.42211605730E+03  0.74444630509E+02 0.  0.
          5    1    3    3  502    0  0.46579495422E+03 -0.38693494367E+03  0.11914636411E+04  0.13365220867E+04  0.47000000000E+01 0. -1.
        -11    1    4    4    0    0  0.12829329683E+03 -0.13284250985E+03  0.48285505671E+03  0.51696741505E+03  0.00000000000E+00 0.  1.
         12    1    4    4    0    0  0.86286272264E+01 -0.31604683333E+02  0.30483841139E+02  0.44750126111E+02  0.00000000000E+00 0. -1.
         -5    1    5    5    0  501 -0.39309546755E+03  0.28240219902E+03 -0.25786661598E+03  0.54844537582E+03  0.47000000000E+01 0.  1.
         11    1    6    6    0    0 -0.19672129151E+03  0.22327160767E+03 -0.22492746727E+03  0.37301721523E+03  0.00000000000E+00 0. -1.
        -12    1    6    6    0    0 -0.12900119203E+02  0.45708330164E+02 -0.12451175473E+02  0.49098842068E+02  0.00000000000E+00 0.  1.
</event>
<event>
12    1  0.1081556E+000  0.2335923E+03  0.7818608E-02  0.1124137E+00
          2   -1    0    0  502    0  0.00000000000E+00  0.00000000000E+00  0.75136691281E+03  0.75136691281E+03  0.00000000000E+00 0. -1.
         -2   -1    0    0    0  501 -0.00000000000E+00 -0.00000000000E+00 -0.75809482519E+02  0.75809482519E+02  0.00000000000E+00 0.  1.
          6    2    1    2  502    0 -0.13159582484E+03  0.91848920877E+02  0.25061679468E+03  0.34142270782E+03  0.16735292725E+03 0.  0.
         24    2    3    3    0    0 -0.12521949315E+02  0.41281764073E+01  0.11043501105E+03  0.13759302572E+03  0.81006839262E+02 0.  0.
         -6    2    1    2    0  501  0.13159582484E+03 -0.91848920877E+02  0.42494063561E+03  0.48575368751E+03  0.17212906713E+03 0.  0.
        -24    2    5    5    0    0  0.16337998612E+03 -0.71688546075E+02  0.32924620258E+03  0.38281589982E+03  0.79452399215E+02 0.  0.
          5    1    3    3  502    0 -0.11907387553E+03  0.87720744470E+02  0.14018178364E+03  0.20382968210E+03  0.47000000000E+01 0. -1.
        -13    1    4    4    0    0 -0.25618481435E+02  0.35109951115E+02  0.38012093585E+02  0.57740233088E+02  0.00000000000E+00 0.  1.
         14    1    4    4    0    0  0.13096532120E+02 -0.30981774708E+02  0.72422917461E+02  0.79852792633E+02  0.00000000000E+00 0. -1.
         -5    1    5    5    0  501 -0.31784161277E+02 -0.20160374803E+02  0.95694433031E+02  0.10293778768E+03  0.47000000000E+01 0.  1.
         11    1    6    6    0    0  0.89663259132E+02 -0.72992041178E+02  0.15301355803E+03  0.19178239506E+03  0.00000000000E+00 0. -1.
        -12    1    6    6    0    0  0.73716726986E+02  0.13034951032E+01  0.17623264455E+03  0.19103350476E+03  0.00000000000E+00 0.  1.
</event>
<event>
12    1  0.1081556E+000  0.5668013E+03  0.7818608E-02  0.9976782E-01
         -2   -1    0    0    0  501 -0.00000000000E+00  0.00000000000E+00  0.69118079037E+03  0.69118079037E+03  0.00000000000E+00 0.  1.
          2   -1    0    0  502    0  0.00000000000E+00 -0.00000000000E+00 -0.84268895494E+03  0.84268895494E+03  0.00000000000E+00 0. -1.
          6    2    1    2  502    0  0.29754798375E+03 -0.45045015864E+03  0.43788973841E+03  0.71550503149E+03  0.16958737872E+03 0.  0.
         24    2    3    3    0    0  0.10919017390E+03 -0.23234259820E+03  0.14762145943E+03  0.30644838964E+03  0.78822225392E+02 0.  0.
         -6    2    1    2    0  501 -0.29754798375E+03  0.45045015864E+03 -0.58939790298E+03  0.81836471383E+03  0.17575769898E+03 0.  0.
        -24    2    5    5    0    0 -0.17874412656E+03  0.18946333339E+03 -0.35570821402E+03  0.44841682539E+03  0.81874894135E+02 0.  0.
          5    1    3    3  502    0  0.18835780986E+03 -0.21810756045E+03  0.29026827898E+03  0.40905664185E+03  0.47000000000E+01 0. -1.
        -13    1    4    4    0    0  0.34708792583E+02 -0.46371102026E+02  0.71793500647E+02  0.92245791887E+02  0.00000000000E+00 0.  1.
         14    1    4    4    0    0  0.74481381315E+02 -0.18597149617E+03  0.75827958779E+02  0.21420259775E+03  0.00000000000E+00 0. -1.
         -5    1    5    5    0  501 -0.11880385719E+03  0.26098682525E+03 -0.23368968896E+03  0.36994788844E+03  0.47000000000E+01 0.  1.
         11    1    6    6    0    0 -0.27652043812E+02  0.80568906129E+02 -0.89817840656E+02  0.12378702946E+03  0.00000000000E+00 0. -1.
        -12    1    6    6    0    0 -0.15109208275E+03  0.10889442726E+03 -0.26589037336E+03  0.32462979593E+03  0.00000000000E+00 0.  1.
</event>
<event>
12    1  0.1081556E+000  0.3271930E+03  0.7818608E-02  0.1072386E+00
         -2   -1    0    0    0  501 -0.00000000000E+00  0.00000000000E+00  0.24910326173E+03  0.24910326173E+03  0.00000000000E+00 0.  1.
          2   -1    0    0  502    0  0.00000000000E+00 -0.00000000000E+00 -0.64540603462E+03  0.64540603462E+03  0.00000000000E+00 0. -1.
          6    2    1    2  502    0 -0.24433378559E+03 -0.13357263820E+03  0.60098513112E+02  0.33334030483E+03  0.17309904415E+03 0.  0.
         24    2    3    3    0    0 -0.68805980640E+02  0.21676734760E+01  0.24527069173E+02  0.10856739688E+03  0.80289107368E+02 0.  0.
         -6    2    1    2    0  501  0.24433378559E+03  0.13357263820E+03 -0.45640128600E+03  0.56116899152E+03  0.17049297557E+03 0.  0.
        -24    2    5    5    0    0  0.45668672484E+02  0.68277204200E+02 -0.20074385188E+03  0.23084470466E+03  0.79017588807E+02 0.  0.
          5    1    3    3  502    0 -0.17552780495E+03 -0.13574031168E+03  0.35571443939E+02  0.22477290796E+03  0.47000000000E+01 0. -1.
        -11    1    4    4    0    0 -0.67704206272E+02 -0.12218863751E+02  0.45954835996E+02  0.82734558256E+02  0.00000000000E+00 0.  1.
         12    1    4    4    0    0 -0.11017743680E+01  0.14386537227E+02 -0.21427766823E+02  0.25832838620E+02  0.00000000000E+00 0. -1.
         -5    1    5    5    0  501  0.19866511311E+03  0.65295434005E+02 -0.25565743412E+03  0.33032428686E+03  0.47000000000E+01 0.  1.
         11    1    6    6    0    0  0.24725582161E+02  0.71471737460E+02 -0.87577812064E+02  0.11571273411E+03  0.00000000000E+00 0. -1.
        -12    1    6    6    0    0  0.20943090323E+02 -0.31945332594E+01 -0.11316603982E+03  0.11513197055E+03  0.00000000000E+00 0.  1.
</event>
<event>
12    1  0.1081556E+000  0.3899417E+03  0.7818608E-02  0.1047319E+00
          2   -1    0    0  502    0  0.00000000000E+00  0.00000000000E+00  0.10409130808E+04  0.10409130808E+04  0.00000000000E+00 0. -1.
         -2   -1    0    0    0  501 -0.00000000000E+00 -0.00000000000E+00 -0.14914240316E+03  0.14914240316E+03  0.00000000000E+00 0.  1.
          6    2    1    2  502    0  0.19658262871E+03  0.28994794985E+03  0.53206074311E+03  0.66012560942E+03  0.17309720485E+03 0.  0.
         24    2    3    3    0    0  0.51124575297E+02  0.11507861493E+03  0.30105116007E+03  0.33589598855E+03  0.79608443821E+02 0.  0.
         -6    2    1    2    0  501 -0.19658262871E+03 -0.28994794985E+03  0.35970993452E+03  0.52992987452E+03  0.16946944085E+03 0.  0.
        -24    2    5    5    0    0 -0.12992456229E+03 -0.11699965559E+03  0.11866210040E+03  0.22582371108E+03  0.79663938654E+02 0.  0.
          5    1    3    3  502    0  0.14545805342E+03  0.17486933492E+03  0.23100958303E+03  0.32422962088E+03  0.47000000000E+01 0. -1.
        -13    1    4    4    0    0  0.71488760865E+02  0.75754496592E+02  0.22380486524E+03  0.24685624235E+03  0.00000000000E+00 0.  1.
         14    1    4    4    0    0 -0.20364185568E+02  0.39324118338E+02  0.77246294836E+02  0.89039746197E+02  0.00000000000E+00 0. -1.
         -5    1    5    5    0  501 -0.66658066424E+02 -0.17294829427E+03  0.24104783412E+03  0.30410616344E+03  0.47000000000E+01 0.  1.
         11    1    6    6    0    0 -0.11056013774E+03 -0.10375867951E+03  0.13004194836E+03  0.19975063445E+03  0.00000000000E+00 0. -1.
        -12    1    6    6    0    0 -0.19364424551E+02 -0.13240976081E+02 -0.11379847955E+02  0.26073076635E+02  0.00000000000E+00 0.  1.
</event>
<event>
12    1  0.1081556E+000  0.2412297E+03  0.7818608E-02  0.1118976E+00
         -2   -1    0    0    0  501 -0.00000000000E+00  0.00000000000E+00  0.97757422740E+02  0.97757422740E+02  0.00000000000E+00 0.  1.
          2   -1    0    0  502    0  0.00000000000E+00 -0.00000000000E+00 -0.66615593272E+03  0.66615593272E+03  0.00000000000E+00 0. -1.
          6    2    1    2  502    0 -0.12978079479E+03  0.10513418215E+03 -0.40418475574E+03  0.46857134598E+03  0.16821872234E+03 0.  0.
         24    2    3    3    0    0 -0.11702306050E+03  0.87591461020E+01 -0.22588740802E+03  0.26543852844E+03  0.75242088938E+02 0.  0.
         -6    2    1    2    0  501  0.12978079479E+03 -0.10513418215E+03 -0.16421375424E+03  0.29534200948E+03  0.17990134666E+03 0.  0.
        -24    2    5    5    0    0  0.16306023151E+03 -0.79818208642E+02 -0.11164105507E+03  0.22800406979E+03  0.81009537314E+02 0.  0.
          5    1    3    3  502    0 -0.12757734286E+02  0.96375036052E+02 -0.17829734772E+03  0.20313281754E+03  0.47000000000E+01 0. -1.
        -11    1    4    4    0    0 -0.10602317903E+03  0.34410876554E+02 -0.18252562494E+03  0.21387058394E+03  0.00000000000E+00 0.  1.
         12    1    4    4    0    0 -0.10999881477E+02 -0.25651730452E+02 -0.43361783086E+02  0.51567944502E+02  0.00000000000E+00 0. -1.
         -5    1    5    5    0  501 -0.33279436717E+02 -0.25315973512E+02 -0.52572699171E+02  0.67337939687E+02  0.47000000000E+01 0.  1.
         11    1    6    6    0    0  0.15788262055E+03 -0.93951050307E+02 -0.10419502674E+03  0.21121156532E+03  0.00000000000E+00 0. -1.
        -12    1    6    6    0    0  0.51776109535E+01  0.14132841665E+02 -0.74460283334E+01  0.16792504478E+02  0.00000000000E+00 0.  1.
</event>
<event>
12    1  0.1081556E+000  0.2774648E+03  0.7818608E-02  0.1097082E+00
         -2   -1    0    0    0  501 -0.00000000000E+00  0.00000000000E+00  0.59450462131E+02  0.59450462131E+02  0.00000000000E+00 0.  1.
          2   -1    0    0  502    0  0.00000000000E+00 -0.00000000000E+00 -0.13379044932E+04  0.13379044932E+04  0.00000000000E+00 0. -1.
          6    2    1    2  502    0  0.19439275552E+03  0.99315709156E+02 -0.76384738217E+03  0.81259851115E+03  0.17088406476E+03 0.  0.
         24    2    3    3    0    0  0.19014900330E+03  0.12799937641E+03 -0.71613477344E+03  0.75656865097E+03  0.83705591684E+02 0.  0.
         -6    2    1    2    0  501 -0.19439275552E+03 -0.99315709156E+02 -0.51460664893E+03  0.58475644421E+03  0.17166229184E+03 0.  0.
        -24    2    5    5    0    0 -0.46011268994E+02  0.95330214901E+01 -0.20063016151E+03  0.22079430833E+03  0.79307941015E+02 0.  0.
          5    1    3    3  502    0  0.42437522185E+01 -0.28683667253E+02 -0.47712608724E+02  0.56029860175E+02  0.47000000000E+01 0. -1.
        -13    1    4    4    0    0  0.28606464745E+02  0.24515871786E+02 -0.45708899990E+02  0.59233954223E+02  0.00000000000E+00 0.  1.
         14    1    4    4    0    0  0.16154253856E+03  0.10348350462E+03 -0.67042587345E+03  0.69733469675E+03  0.00000000000E+00 0. -1.
         -5    1    5    5    0  501 -0.14838148653E+03 -0.10884873065E+03 -0.31397648742E+03  0.36396213589E+03  0.47000000000E+01 0.  1.
         11    1    6    6    0    0 -0.45383287744E+02  0.24419337380E+02 -0.58818440840E+02  0.78202019330E+02  0.00000000000E+00 0. -1.
        -12    1    6    6    0    0 -0.62798124982E+00 -0.14886315890E+02 -0.14181172067E+03  0.14259228900E+03  0.00000000000E+00 0.  1.
</event>
<event>
12    1  0.1081556E+000  0.5887555E+03  0.7818608E-02  0.9929013E-01
         -1   -1    0    0    0  501 -0.00000000000E+00  0.00000000000E+00  0.11885441389E+04  0.11885441389E+04  0.00000000000E+00 0.  1.
          1   -1    0    0  502    0  0.00000000000E+00 -0.00000000000E+00 -0.30581424520E+03  0.30581424520E+03  0.00000000000E+00 0. -1.
          6    2    1    2  502    0 -0.29247059136E+03 -0.48068141379E+03  0.60168546927E+03  0.84132279103E+03  0.17089460612E+03 0.  0.
         24    2    3    3    0    0 -0.11292992060E+03 -0.29212155591E+03  0.38418843767E+03  0.50203423948E+03  0.79683446038E+02 0.  0.
         -6    2    1    2    0  501  0.29247059136E+03  0.48068141379E+03  0.28104442443E+03  0.65303559307E+03  0.17571524960E+03 0.  0.
        -24    2    5    5    0    0  0.29659831926E+03  0.47789032922E+03  0.29325014139E+03  0.63903924293E+03  0.77625890215E+02 0.  0.
          5    1    3    3  502    0 -0.17954067076E+03 -0.18855985789E+03  0.21749703160E+03  0.33928855155E+03  0.47000000000E+01 0. -1.
        -11    1    4    4    0    0 -0.83737914704E+02 -0.11018742877E+03  0.17884743634E+03  0.22614091470E+03  0.00000000000E+00 0.  1.
         12    1    4    4    0    0 -0.29192005896E+02 -0.18193412714E+03  0.20534100133E+03  0.27589332477E+03  0.00000000000E+00 0. -1.
         -5    1    5    5    0  501 -0.41277278989E+01  0.27910845691E+01 -0.12205716961E+02  0.13996350139E+02  0.47000000000E+01 0.  1.
         11    1    6    6    0    0  0.14845504770E+03  0.30103118206E+03  0.15140104107E+03  0.36821318417E+03  0.00000000000E+00 0. -1.
        -12    1    6    6    0    0  0.14814327155E+03  0.17685914716E+03  0.14184910033E+03  0.27082605876E+03  0.00000000000E+00 0.  1.
</event>
<event>
12    1  0.1902221E+000  0.8016569E+03  0.7818608E-02  0.9557622E-01
         -2   -1    0    0    0  501 -0.00000000000E+00  0.00000000000E+00  0.36528856344E+03  0.36528856344E+03  0.00000000000E+00 0.  1.
          2   -1    0    0  502    0  0.00000000000E+00 -0.00000000000E+00 -0.24553691221E+04  0.24553691221E+04  0.00000000000E+00 0. -1.
          6    2    1    2  502    0  0.66777886230E+03  0.41018203754E+03 -0.29328880700E+03  0.85277394280E+03  0.16439939278E+03 0.  0.
         24    2    3    3    0    0  0.33131657943E+03  0.17992142057E+03 -0.19861156536E+03  0.43418979402E+03  0.83257611988E+02 0.  0.
         -6    2    1    2    0  501 -0.66777886230E+03 -0.41018203754E+03 -0.17967917517E+04  0.19678837428E+04  0.17299685914E+03 0.  0.
        -24    2    5    5    0    0 -0.28670806008E+03 -0.15526648922E+03 -0.88551782853E+03  0.94776652103E+03  0.88376237397E+02 0.  0.
          5    1    3    3  502    0  0.33646228287E+03  0.23026061697E+03 -0.94677241646E+02  0.41858414878E+03  0.47000000000E+01 0. -1.
        -11    1    4    4    0    0  0.30724395716E+03  0.17139413675E+03 -0.15675710183E+03  0.38515917268E+03  0.00000000000E+00 0.  1.
         12    1    4    4    0    0  0.24072622267E+02  0.85272838202E+01 -0.41854463524E+02  0.49030621340E+02  0.00000000000E+00 0. -1.
         -5    1    5    5    0  501 -0.38107080222E+03 -0.25491554832E+03 -0.91127392315E+03  0.10201172217E+04  0.47000000000E+01 0.  1.
         13    1    6    6    0    0 -0.23684510885E+03 -0.94055942831E+02 -0.60823970808E+03  0.65946771601E+03  0.00000000000E+00 0. -1.
        -14    1    6    6    0    0 -0.49862951237E+02 -0.61210546387E+02 -0.27727812045E+03  0.28829880502E+03  0.00000000000E+00 0.  1.
</event>
<event>
12    1  0.1081556E+000  0.1870525E+03  0.7818608E-02  0.1161147E+00
          1   -1    0    0  502    0  0.00000000000E+00  0.00000000000E+00  0.80703634577E+03  0.80703634577E+03  0.00000000000E+00 0.  1.
         -1   -1    0    0    0  501 -0.00000000000E+00 -0.00000000000E+00 -0.44351848545E+02  0.44351848545E+02  0.00000000000E+00 0. -1.
          6    2    1    2  502    0 -0.16756420824E+02 -0.71933473160E+02  0.44360858185E+03  0.48113216656E+03  0.17100989915E+03 0.  0.
         24    2    3    3    0    0 -0.50752301829E+02 -0.39718734221E+02  0.13703612110E+03  0.17096725394E+03  0.79356974771E+02 0.  0.
         -6    2    1    2    0  501  0.16756420824E+02  0.71933473160E+02  0.31907591538E+03  0.37025602775E+03  0.17269882488E+03 0.  0.
        -24    2    5    5    0    0  0.42931568990E+02  0.52056164697E+02  0.87602254297E+02  0.13641336367E+03  0.79884209520E+02 0.  0.
          5    1    3    3  502    0  0.33995881005E+02 -0.32214738938E+02  0.30657246075E+03  0.31016491262E+03  0.47000000000E+01 0. -1.
        -11    1    4    4    0    0  0.39009724277E+01  0.66518369544E+01  0.77242729507E+02  0.77626695038E+02  0.00000000000E+00 0.  1.
         12    1    4    4    0    0 -0.54653274257E+02 -0.46370571176E+02  0.59793391592E+02  0.93340558902E+02  0.00000000000E+00 0. -1.
         -5    1    5    5    0  501 -0.26175148165E+02  0.19877308463E+02  0.23147366108E+03  0.23384266409E+03  0.47000000000E+01 0.  1.
         13    1    6    6    0    0  0.62465131530E+02  0.23340842136E+02  0.40949318514E+02  0.78253014354E+02  0.00000000000E+00 0. -1.
        -14    1    6    6    0    0 -0.19533562540E+02  0.28715322561E+02  0.46652935782E+02  0.58160349315E+02  0.00000000000E+00 0.  1.
</event>
<event>
12    1  0.1081556E+000  0.2167653E+03  0.7818608E-02  0.1136318E+00
         -1   -1    0    0    0  501 -0.00000000000E+00  0.00000000000E+00  0.91938432335E+03  0.91938432335E+03  0.00000000000E+00 0.  1.
          1   -1    0    0  502    0  0.00000000000E+00 -0.00000000000E+00 -0.91600916058E+03  0.91600916058E+03  0.00000000000E+00 0. -1.
          6    2    1    2  502    0 -0.11188202716E+03 -0.71711187755E+02  0.89341595132E+03  0.91950933147E+03  0.17217800712E+03 0.  0.
         24    2    3    3    0    0 -0.54860697313E+02  0.13811920859E+02  0.61305809037E+03  0.62086530531E+03  0.80206233563E+02 0.  0.
         -6    2    1    2    0  501  0.11188202716E+03  0.71711187755E+02 -0.89004078855E+03  0.91588415246E+03  0.17032643072E+03 0.  0.
        -24    2    5    5    0    0  0.14484633519E+03  0.73007644820E+02 -0.70348373848E+03  0.72637439193E+03  0.80123716446E+02 0.  0.
          5    1    3    3  502    0 -0.57021329846E+02 -0.85523108614E+02  0.28035786094E+03  0.29864402615E+03  0.47000000000E+01 0. -1.
        -13    1    4    4    0    0 -0.35240577046E+02 -0.10956206616E+02  0.54009250255E+03  0.54135187082E+03  0.00000000000E+00 0.  1.
         14    1    4    4    0    0 -0.19620120268E+02  0.24768127476E+02  0.72965587826E+02  0.79513434492E+02  0.00000000000E+00 0. -1.
         -5    1    5    5    0  501 -0.32964308026E+02 -0.12964570650E+01 -0.18655705007E+03  0.18950976053E+03  0.47000000000E+01 0.  1.
         11    1    6    6    0    0  0.10770981352E+03  0.41209430723E+02 -0.61074581915E+03  0.62153847565E+03  0.00000000000E+00 0. -1.
        -12    1    6    6    0    0  0.37136521668E+02  0.31798214097E+02 -0.92737919330E+02  0.10483591628E+03  0.00000000000E+00 0.  1.
</event>
<event>
12    1  0.1081556E+000  0.8092607E+03  0.7818608E-02  0.9546709E-01
         -2   -1    0    0    0  501 -0.00000000000E+00  0.00000000000E+00  0.59607525754E+03  0.59607525754E+03  0.00000000000E+00 0.  1.
          2   -1    0    0  502    0  0.00000000000E+00 -0.00000000000E+00 -0.14611399821E+04  0.14611399821E+04  0.00000000000E+00 0. -1.
          6    2    1    2  502    0 -0.51029863183E+03  0.60426736653E+03  0.79709339078E+02  0.81332864415E+03  0.17206440874E+03 0.  0.
         24    2    3    3    0    0 -0.23103389805E+03  0.28560146749E+03 -0.25549830001E+02  0.37670714970E+03  0.79439426839E+02 0.  0.
         -6    2    1    2    0  501  0.51029863183E+03 -0.60426736653E+03 -0.94477406368E+03  0.12438865955E+04  0.17062264576E+03 0.  0.
        -24    2    5    5    0    0  0.37318687233E+03 -0.50659795863E+03 -0.67580974492E+03  0.92654948361E+03  0.76584599600E+02 0.  0.
          5    1    3    3  502    0 -0.27926473378E+03  0.31866589904E+03  0.10525916908E+03  0.43662149445E+03  0.47000000000E+01 0. -1.
        -11    1    4    4    0    0 -0.22097224736E+03  0.28191260109E+03 -0.10649115410E+02  0.35835297183E+03  0.00000000000E+00 0.  1.
         12    1    4    4    0    0 -0.10061650691E+02  0.36888664013E+01 -0.14900714592E+02  0.18354177870E+02  0.00000000000E+00 0. -1.
         -5    1    5    5    0  501  0.13711175950E+03 -0.97669407901E+02 -0.26896431876E+03  0.31733711192E+03  0.47000000000E+01 0.  1.
         13    1    6    6    0    0  0.20738239142E+03 -0.29017116922E+03 -0.43734524964E+03  0.56433822403E+03  0.00000000000E+00 0. -1.
        -14    1    6    6    0    0  0.16580448091E+03 -0.21642678941E+03 -0.23846449528E+03  0.36221125959E+03  0.00000000000E+00 0.  1.
</event>
<event>
12    1  0.1081556E+000  0.9794874E+03  0.7818608E-02  0.9331333E-01
         -2   -1    0    0    0  501 -0.00000000000E+00  0.00000000000E+00  0.22154911671E+03  0.22154911671E+03  0.00000000000E+00 0.  1.
          2   -1    0    0  502    0  0.00000000000E+00 -0.00000000000E+00 -0.43798658507E+04  0.43798658507E+04  0.00000000000E+00 0. -1.
          6    2    1    2  502    0 -0.96491350447E+03  0.15099003019E+02 -0.23220296857E+04  0.25198602364E+04  0.16305734778E+03 0.  0.
         24    2    3    3    0    0 -0.84580551774E+03  0.55670240149E+02 -0.20674763125E+04  0.22358668428E+04  0.78460732765E+02 0.  0.
         -6    2    1    2    0  501  0.96491350447E+03 -0.15099003019E+02 -0.18362870483E+04  0.20815547310E+04  0.17214506533E+03 0.  0.
        -24    2    5    5    0    0  0.76330275788E+03 -0.39547998724E+02 -0.13291621413E+04  0.15352559045E+04  0.78380802139E+02 0.  0.
          5    1    3    3  502    0 -0.11910798673E+03 -0.40571237130E+02 -0.25455337323E+03  0.28399339360E+03  0.47000000000E+01 0. -1.
        -11    1    4    4    0    0 -0.78805200383E+03  0.50097450069E+02 -0.18659755512E+04  0.20261787860E+04  0.00000000000E+00 0.  1.
         12    1    4    4    0    0 -0.57753513905E+02  0.55727900805E+01 -0.20150076133E+03  0.20968805682E+03  0.00000000000E+00 0. -1.
         -5    1    5    5    0  501  0.20161074658E+03  0.24448995705E+02 -0.50712490700E+03  0.54629882650E+03  0.47000000000E+01 0.  1.
         13    1    6    6    0    0  0.32751863422E+03  0.74435629035E+01 -0.50886571553E+03  0.60520094087E+03  0.00000000000E+00 0. -1.
        -14    1    6    6    0    0  0.43578412366E+03 -0.46991561628E+02 -0.82029642574E+03  0.93005496363E+03  0.00000000000E+00 0.  1.
</event>
<event>
12    1  0.1081556E+000  0.4994248E+03  0.7818608E-02  0.1013929E+00
         -1   -1    0    0    0  501 -0.00000000000E+00  0.00000000000E+00  0.23285381087E+03  0.23285381087E+03  0.00000000000E+00 0.  1.
          1   -1    0    0  502    0  0.00000000000E+00 -0.00000000000E+00 -0.20065168817E+04  0.20065168817E+04  0.00000000000E+00 0. -1.
          6    2    1    2  502    0 -0.44076554449E+03  0.16037432826E+03 -0.12249872916E+03  0.51437162310E+03  0.17198266667E+03 0.  0.
         24    2    3    3    0    0 -0.11344343181E+03  0.28758207166E+02 -0.65683799422E+02  0.15700263309E+03  0.81480172993E+02 0.  0.
         -6    2    1    2    0  501  0.44076554449E+03 -0.16037432826E+03 -0.16511643417E+04  0.17249990695E+04  0.17112543973E+03 0.  0.
        -24    2    5    5    0    0  0.85885615193E+02 -0.50611229427E+02 -0.40715195355E+03  0.42670148653E+03  0.79772237582E+02 0.  0.
          5    1    3    3  502    0 -0.32732211268E+03  0.13161612110E+03 -0.56814929743E+02  0.35736899002E+03  0.47000000000E+01 0. -1.
        -13    1    4    4    0    0 -0.79353025736E+02 -0.15630363855E+02 -0.16608376044E+02  0.82565423287E+02  0.00000000000E+00 0.  1.
         14    1    4    4    0    0 -0.34090406069E+02  0.44388571021E+02 -0.49075423378E+02  0.74437209801E+02  0.00000000000E+00 0. -1.
         -5    1    5    5    0  501  0.35487992929E+03 -0.10976309884E+03 -0.12440123881E+04  0.12982975829E+04  0.47000000000E+01 0.  1.
         11    1    6    6    0    0  0.10130182240E+03 -0.46969682254E+02 -0.34875761767E+03  0.36619678610E+03  0.00000000000E+00 0. -1.
        -12    1    6    6    0    0 -0.15416207211E+02 -0.36415471728E+01 -0.58394335886E+02  0.60504700430E+02  0.00000000000E+00 0.  1.
</event>
<event>
12    1  0.1081556E+000  0.7674296E+03  0.7818608E-02  0.9608396E-01
          2   -1    0    0  502    0  0.00000000000E+00  0.00000000000E+00  0.20281249912E+04  0.20281249912E+04  0.00000000000E+00 0. -1.
         -2   -1    0    0    0  501 -0.00000000000E+00 -0.00000000000E+00 -0.51186718698E+03  0.51186718698E+03  0.00000000000E+00 0.  1.
          6    2    1    2  502    0  0.10627274269E+03 -0.74009819457E+03 -0.77517323832E+02  0.77087423491E+03  0.17087690631E+03 0.  0.
         24    2    3    3    0    0  0.11754057294E+02 -0.45369792551E+03 -0.86339209396E+02  0.46911470867E+03  0.81450508559E+02 0.  0.
         -6    2    1    2    0  501 -0.10627274269E+03  0.74009819457E+03  0.15937751280E+04  0.17691179432E+04  0.17498544197E+03 0.  0.
        -24    2    5    5    0    0 -0.10031462896E+03  0.65440691401E+03  0.12774261852E+04  0.14412807301E+04  0.84622990075E+02 0.  0.
          5    1    3    3  502    0  0.94518685396E+02 -0.28640026907E+03  0.88218855637E+01  0.30175952624E+03  0.47000000000E+01 0. -1.
        -13    1    4    4    0    0  0.35883320327E+02 -0.96423526429E+02 -0.23900057089E+02  0.10562349102E+03  0.00000000000E+00 0.  1.
         14    1    4    4    0    0 -0.24129263033E+02 -0.35727439908E+03 -0.62439152306E+02  0.36349121765E+03  0.00000000000E+00 0. -1.
         -5    1    5    5    0  501 -0.59581137312E+01  0.85691280566E+02  0.31634894283E+03  0.32783721313E+03  0.47000000000E+01 0.  1.
         13    1    6    6    0    0 -0.69735823268E+02  0.23337143647E+03  0.51815227499E+03  0.57254440219E+03  0.00000000000E+00 0. -1.
        -14    1    6    6    0    0 -0.30578805692E+02  0.42103547754E+03  0.75927391020E+03  0.86873632790E+03  0.00000000000E+00 0.  1.
</event>
<event>
12    1  0.1081556E+000  0.3701970E+03  0.7818608E-02  0.1054618E+00
         -2   -1    0    0    0  501 -0.00000000000E+00  0.00000000000E+00  0.50600120000E+02  0.50600120000E+02  0.00000000000E+00 0.  1.
          2   -1    0    0  502    0  0.00000000000E+00 -0.00000000000E+00 -0.28293951635E+04  0.28293951635E+04  0.00000000000E+00 0. -1.
          6    2    1    2  502    0  0.27637517183E+03  0.17566872551E+03 -0.16877750072E+04  0.17279338725E+04  0.17299785016E+03 0.  0.
         24    2    3    3    0    0  0.15464836733E+03  0.16790689932E+03 -0.96768977881E+03  0.99757609238E+03  0.81398450274E+02 0.  0.
         -6    2    1    2    0  501 -0.27637517183E+03 -0.17566872551E+03 -0.10910200363E+04  0.11520614110E+04  0.17227315033E+03 0.  0.
        -24    2    5    5    0    0 -0.74058561129E+02 -0.15820961842E+02 -0.29430369864E+03  0.31464733705E+03  0.81567802282E+02 0.  0.
          5    1    3    3  502    0  0.12172680451E+03  0.77618261901E+01 -0.72008522839E+03  0.73035778015E+03  0.47000000000E+01 0. -1.
        -11    1    4    4    0    0  0.11267163893E+03  0.68584449539E+02 -0.45861768218E+03  0.47720949628E+03  0.00000000000E+00 0.  1.
         12    1    4    4    0    0  0.41976728401E+02  0.99322449777E+02 -0.50907209664E+03  0.52036659609E+03  0.00000000000E+00 0. -1.
         -5    1    5    5    0  501 -0.20231661070E+03 -0.15984776366E+03 -0.79671633766E+03  0.83741407393E+03  0.47000000000E+01 0.  1.
         13    1    6    6    0    0 -0.10599326558E+01 -0.34018805855E+02 -0.12149784494E+03  0.12617499330E+03  0.00000000000E+00 0. -1.
        -14    1    6    6    0    0 -0.72998628474E+02  0.18197844013E+02 -0.17280585370E+03  0.18847234375E+03  0.00000000000E+00 0.  1.
</event>
<event>
12    1  0.1081556E+000  0.7540221E+03  0.7818608E-02  0.9629061E-01
          2   -1    0    0  502    0  0.00000000000E+00  0.00000000000E+00  0.16454893946E+04  0.16454893946E+04  0.00000000000E+00 0. -1.
         -2   -1    0    0    0  501 -0.00000000000E+00 -0.00000000000E+00 -0.34742975524E+03  0.34742975524E+03  0.00000000000E+00 0.  1.
          6    2    1    2  502    0  0.61981966136E+01  0.73515696408E+03  0.57595876505E+03  0.94957118071E+03  0.17164716342E+03 0.  0.
         24    2    3    3    0    0 -0.61072135353E+02  0.45274317425E+03  0.31957225423E+03  0.56222252745E+03  0.72536591808E+02 0.  0.
         -6    2    1    2    0  501 -0.61981966136E+01 -0.73515696408E+03  0.72210087434E+03  0.10433479692E+04  0.16325174592E+03 0.  0.
        -24    2    5    5    0    0 -0.37529921353E+02 -0.59925706781E+03  0.64085902590E+03  0.88187726990E+03  0.80558672809E+02 0.  0.
          5    1    3    3  502    0  0.67270331966E+02  0.28241378983E+03  0.25638651082E+03  0.38734865326E+03  0.47000000000E+01 0. -1.
        -11    1    4    4    0    0 -0.30060847508E+01  0.17442807690E+03  0.87199819235E+02  0.19503332800E+03  0.00000000000E+00 0.  1.
         12    1    4    4    0    0 -0.58066050602E+02  0.27831509735E+03  0.23237243500E+03  0.36718919945E+03  0.00000000000E+00 0. -1.
         -5    1    5    5    0  501  0.31331724740E+02 -0.13589989627E+03  0.81241848435E+02  0.16147069926E+03  0.47000000000E+01 0.  1.
         11    1    6    6    0    0  0.31254145549E+01 -0.46701948933E+03  0.48011689122E+03  0.66979788061E+03  0.00000000000E+00 0. -1.
        -12    1    6    6    0    0 -0.40655335908E+02 -0.13223757848E+03  0.16074213468E+03  0.21207938929E+03  0.00000000000E+00 0.  1.
</event>
<event>
12    1  0.1081556E+000  0.9986439E+03  0.7818608E-02  0.9310033E-01
          2   -1    0    0  502    0  0.00000000000E+00  0.00000000000E+00  0.12474252585E+04  0.12474252585E+04  0.00000000000E+00 0. -1.
         -2   -1    0    0    0  501 -0.00000000000E+00 -0.00000000000E+00 -0.80072047814E+03  0.80072047814E+03  0.00000000000E+00 0.  1.
          6    2    1    2  502    0 -0.87575125665E+03 -0.44868444034E+03  0.18300277996E+03  0.10151924643E+04  0.16990506621E+03 0.  0.
         24    2    3    3    0    0 -0.18490962858E+03 -0.10354145090E+03  0.44036051024E+02  0.23051439017E+03  0.79279931190E+02 0.  0.
         -6    2    1    2    0  501  0.87575125665E+03  0.44868444034E+03  0.26370200036E+03  0.10329532723E+04  0.17086757233E+03 0.  0.
        -24    2    5    5    0    0  0.27929142637E+03  0.19204150979E+03  0.11428820013E+03  0.36663765894E+03  0.80484395601E+02 0.  0.
          5    1    3    3  502    0 -0.69084162807E+03 -0.34514298944E+03  0.13896672893E+03  0.78467807411E+03  0.47000000000E+01 0. -1.
        -11    1    4    4    0    0 -0.17353598928E+03 -0.10783208084E+03  0.22186461058E+02  0.20551091525E+03  0.00000000000E+00 0.  1.
         12    1    4    4    0    0 -0.11373639305E+02  0.42906299442E+01  0.21849589966E+02  0.25003474919E+02  0.00000000000E+00 0. -1.
         -5    1    5    5    0  501  0.59645983028E+03  0.25664293055E+03  0.14941380024E+03  0.66631561338E+03  0.47000000000E+01 0.  1.
         11    1    6    6    0    0  0.23649814593E+03  0.15188646632E+03  0.61533123182E+02  0.28772764367E+03  0.00000000000E+00 0. -1.
        -12    1    6    6    0    0  0.42793280441E+02  0.40155043467E+02  0.52755076943E+02  0.78910015271E+02  0.00000000000E+00 0.  1.
</event>
<event>
12    1  0.1081556E+000  0.2424643E+03  0.7818608E-02  0.1118162E+00
         -1   -1    0    0    0  501 -0.00000000000E+00  0.00000000000E+00  0.66568239698E+03  0.66568239698E+03  0.00000000000E+00 0.  1.
          1   -1    0    0  502    0  0.00000000000E+00 -0.00000000000E+00 -0.21608002831E+03  0.21608002831E+03  0.00000000000E+00 0. -1.
          6    2    1    2  502    0  0.94109744331E+01 -0.17102980652E+03  0.56379616484E+03  0.61369861658E+03  0.17152292948E+03 0.  0.
         24    2    3    3    0    0  0.37834051690E+02 -0.10784548504E+03  0.20803805792E+03  0.25122647910E+03  0.82297303412E+02 0.  0.
         -6    2    1    2    0  501 -0.94109744331E+01  0.17102980652E+03 -0.11419379618E+03  0.26806380871E+03  0.17169222841E+03 0.  0.
        -24    2    5    5    0    0  0.29148039819E+02  0.18215435368E+03 -0.84156775283E+02  0.21771635839E+03  0.79298380158E+02 0.  0.
          5    1    3    3  502    0 -0.28423077257E+02 -0.63184321475E+02  0.35575810693E+03  0.36247213748E+03  0.47000000000E+01 0. -1.
        -13    1    4    4    0    0  0.59902039415E+02 -0.65621151730E+02  0.16311351089E+03  0.18574285267E+03  0.00000000000E+00 0.  1.
         14    1    4    4    0    0 -0.22067987724E+02 -0.42224333314E+02  0.44924547021E+02  0.65483626435E+02  0.00000000000E+00 0. -1.
         -5    1    5    5    0  501 -0.38559014253E+02 -0.11124547158E+02 -0.30037020892E+02  0.50347450320E+02  0.47000000000E+01 0.  1.
         11    1    6    6    0    0  0.30933111933E+02  0.18678331358E+03 -0.90350167671E+02  0.20978087721E+03  0.00000000000E+00 0. -1.
        -12    1    6    6    0    0 -0.17850721139E+01 -0.46289599032E+01  0.61933923885E+01  0.79354811773E+01  0.00000000000E+00 0.  1.
</event>
<event>
12    1  0.1081556E+000  0.4270666E+03  0.7818608E-02  0.1034791E+00
          2   -1    0    0  502    0  0.00000000000E+00  0.00000000000E+00  0.13533522906E+04  0.13533522906E+04  0.00000000000E+00 0. -1.
         -2   -1    0    0    0  501 -0.00000000000E+00 -0.00000000000E+00 -0.52784126043E+03  0.52784126043E+03  0.00000000000E+00 0.  1.
          6    2    1    2  502    0 -0.11893808503E+03 -0.37245885505E+03 -0.39906555647E+03  0.58410735559E+03  0.17045884466E+03 0.  0.
         24    2    3    3    0    0 -0.34553878390E+02 -0.26157841197E+03 -0.32525264988E+03  0.42635564509E+03  0.79828652272E+02 0.  0.
         -6    2    1    2    0  501  0.11893808503E+03  0.37245885505E+03  0.12245765866E+04  0.12970861954E+04  0.17312687567E+03 0.  0.
        -24    2    5    5    0    0  0.10670358832E+03  0.32488098526E+03  0.85527994184E+03  0.92450675631E+03  0.79219020457E+02 0.  0.
          5    1    3    3  502    0 -0.84384206641E+02 -0.11088044308E+03 -0.73812906581E+02  0.15775171050E+03  0.47000000000E+01 0. -1.
        -11    1    4    4    0    0 -0.25037204063E+02 -0.17491845972E+03 -0.15486967519E+03  0.23496371088E+03  0.00000000000E+00 0.  1.
         12    1    4    4    0    0 -0.95166743272E+01 -0.86659952248E+02 -0.17038297470E+03  0.19139193421E+03  0.00000000000E+00 0. -1.
         -5    1    5    5    0  501  0.12234496708E+02  0.47577869788E+02  0.36929664478E+03  0.37257943911E+03  0.47000000000E+01 0.  1.
         11    1    6    6    0    0  0.10758681240E+02  0.11061165937E+03  0.35274361046E+03  0.36983610307E+03  0.00000000000E+00 0. -1.
        -12    1    6    6    0    0  0.95944907083E+02  0.21426932588E+03  0.50253633138E+03  0.55467065324E+03  0.00000000000E+00 0.  1.
</event>
<event>
12    1  0.1081556E+000  0.4946142E+03  0.7818608E-02  0.1015194E+00
         -2   -1    0    0    0  501 -0.00000000000E+00  0.00000000000E+00  0.31134379586E+03  0.31134379586E+03  0.00000000000E+00 0.  1.
          2   -1    0    0  502    0  0.00000000000E+00 -0.00000000000E+00 -0.17200475301E+04  0.17200475301E+04  0.00000000000E+00 0. -1.
          6    2    1    2  502    0 -0.46257873661E+03  0.29066137983E+02  0.44180766463E+02  0.49664060165E+03  0.17284680832E+03 0.  0.
         24    2    3    3    0    0 -0.37227711621E+03 -0.11829354475E+02 -0.15572895521E+02  0.38079840696E+03  0.77683503972E+02 0.  0.
         -6    2    1    2    0  501  0.46257873661E+03 -0.29066137983E+02 -0.14528845007E+04  0.15347507243E+04  0.17251807287E+03 0.  0.
        -24    2    5    5    0    0  0.24318097182E+03  0.33226163177E+02 -0.63261990424E+03  0.68335668617E+03  0.80792662538E+02 0.  0.
          5    1    3    3  502    0 -0.90301620395E+02  0.40895492458E+02  0.59753661984E+02  0.11584219469E+03  0.47000000000E+01 0. -1.
        -11    1    4    4    0    0 -0.34936786386E+03 -0.29416622114E+02 -0.70100055103E+01  0.35067418230E+03  0.00000000000E+00 0.  1.
         12    1    4    4    0    0 -0.22909252356E+02  0.17587267639E+02 -0.85628900109E+01  0.30124224668E+02  0.00000000000E+00 0. -1.
         -5    1    5    5    0  501  0.21939776479E+03 -0.62292301160E+02 -0.82026459648E+03  0.85139403816E+03  0.47000000000E+01 0.  1.
         11    1    6    6    0    0  0.20673754078E+03  0.31964101574E+02 -0.59612902879E+03  0.63176889250E+03  0.00000000000E+00 0. -1.
        -12    1    6    6    0    0  0.36443431038E+02  0.12620616023E+01 -0.36490875449E+02  0.51587793676E+02  0.00000000000E+00 0.  1.
</event>
<event>
12    1  0.1081556E+000  0.3857230E+03  0.7818608E-02  0.1048839E+00
         -1   -1    0    0    0  501 -0.00000000000E+00  0.00000000000E+00  0.48161353555E+03  0.48161353555E+03  0.00000000000E+00 0.  1.
          1   -1    0    0  502    0  0.00000000000E+00 -0.00000000000E+00 -0.36635434901E+03  0.36635434901E+03  0.00000000000E+00 0. -1.
          6    2    1    2  502    0 -0.30548449722E+03  0.16065444939E+03  0.22543098805E+03  0.44632000011E+03  0.17103152332E+03 0.  0.
         24    2    3    3    0    0 -0.30226540207E+03  0.11392378208E+03  0.17085192647E+03  0.37424308422E+03  0.80774401249E+02 0.  0.
         -6    2    1    2    0  501  0.30548449722E+03 -0.16065444939E+03 -0.11017180151E+03  0.40164788446E+03  0.17335676245E+03 0.  0.
        -24    2    5    5    0    0  0.17858797463E+03 -0.80262761089E+02 -0.13269787467E+03  0.24967727885E+03  0.79964005240E+02 0.  0.
          5    1    3    3  502    0 -0.32190951565E+01  0.46730667313E+02  0.54579061579E+02  0.72076915889E+02  0.47000000000E+01 0. -1.
        -13    1    4    4    0    0 -0.15101743770E+03  0.42118306980E+02  0.12538281373E+03  0.20075125965E+03  0.00000000000E+00 0.  1.
         14    1    4    4    0    0 -0.15124796437E+03  0.71805475098E+02  0.45469112748E+02  0.17349182457E+03  0.00000000000E+00 0. -1.
         -5    1    5    5    0  501  0.12689652260E+03 -0.80391688302E+02  0.22526073162E+02  0.15197060560E+03  0.47000000000E+01 0.  1.
         11    1    6    6    0    0  0.17792698057E+03 -0.91330708782E+02 -0.12201015595E+03  0.23427715837E+03  0.00000000000E+00 0. -1.
        -12    1    6    6    0    0  0.66099405697E+00  0.11067947692E+02 -0.10687718722E+02  0.15400120478E+02  0.00000000000E+00 0.  1.
</event>
<event>
12    1  0.1081556E+000  0.5492116E+03  0.7818608E-02  0.1001677E+00
          2   -1    0    0  502    0  0.00000000000E+00  0.00000000000E+00  0.23270430509E+04  0.23270430509E+04  0.00000000000E+00 0. -1.
         -2   -1    0    0    0  501 -0.00000000000E+00 -0.00000000000E+00 -0.18906839380E+03  0.18906839380E+03  0.00000000000E+00 0.  1.
          6    2    1    2  502    0 -0.25104201364E+03  0.45712020241E+03  0.36387192599E+03  0.65901404520E+03  0.17296173333E+03 0.  0.
         24    2    3    3    0    0 -0.68347904189E+02  0.25007235423E+03  0.20874822417E+03  0.34226272015E+03  0.79751678037E+02 0.  0.
         -6    2    1    2    0  501  0.25104201364E+03 -0.45712020241E+03  0.17741027311E+04  0.18570973995E+04  0.17143301487E+03 0.  0.
        -24    2    5    5    0    0  0.20303577468E+03 -0.44628856432E+03  0.16604312590E+04  0.17331408872E+04  0.79676600346E+02 0.  0.
          5    1    3    3  502    0 -0.18269410945E+03  0.20704784817E+03  0.15512370181E+03  0.31675132506E+03  0.47000000000E+01 0. -1.
        -13    1    4    4    0    0 -0.75274195577E+02  0.18580772560E+03  0.12417632249E+03  0.23581873224E+03  0.00000000000E+00 0.  1.
         14    1    4    4    0    0  0.69262913877E+01  0.64264628637E+02  0.84571901686E+02  0.10644398790E+03  0.00000000000E+00 0. -1.
         -5    1    5    5    0  501  0.48006238954E+02 -0.10831638086E+02  0.11367147216E+03  0.12395651231E+03  0.47000000000E+01 0.  1.
         13    1    6    6    0    0  0.11372137147E+03 -0.15742377004E+03  0.62710274849E+03  0.65648507284E+03  0.00000000000E+00 0. -1.
        -14    1    6    6    0    0  0.89314403210E+02 -0.28886479428E+03  0.10333285105E+04  0.10766558144E+04  0.00000000000E+00 0.  1.
</event>
<event>
12    1  0.1081556E+000  0.9857835E+03  0.7818608E-02  0.9324276E-01
          2   -1    0    0  502    0  0.00000000000E+00  0.00000000000E+00  0.12448314578E+04  0.12448314578E+04  0.00000000000E+00 0. -1.
         -2   -1    0    0    0  501 -0.00000000000E+00 -0.00000000000E+00 -0.78203496048E+03  0.78203496048E+03  0.00000000000E+00 0.  1.
          6    2    1    2  502    0  0.38051245158E+03 -0.89211312770E+03  0.18875898815E+03  0.10041605661E+04  0.17903331663E+03 0.  0.
         24    2    3    3    0    0  0.20448032585E+03 -0.58651857864E+03  0.61818715837E+02  0.62931224952E+03  0.79975665138E+02 0.  0.
         -6    2    1    2    0  501 -0.38051245158E+03  0.89211312770E+03  0.27403750915E+03  0.10227058522E+04  0.17370994569E+03 0.  0.
        -24    2    5    5    0    0 -0.26836884414E+03  0.65521654755E+03  0.26793210869E+03  0.76049306779E+03  0.72329320578E+02 0.  0.
          5    1    3    3  502    0  0.17603212573E+03 -0.30559454905E+03  0.12694027231E+03  0.37484831657E+03  0.47000000000E+01 0. -1.
        -13    1    4    4    0    0  0.18956683204E+03 -0.50713851120E+03  0.29173846920E+02  0.54219569041E+03  0.00000000000E+00 0.  1.
         14    1    4    4    0    0  0.14913493807E+02 -0.79380067441E+02  0.32644868917E+02  0.87116559109E+02  0.00000000000E+00 0. -1.
         -5    1    5    5    0  501 -0.11214360744E+03  0.23689658015E+03  0.61054004649E+01  0.26221278438E+03  0.47000000000E+01 0.  1.
         13    1    6    6    0    0 -0.20714347452E+03  0.48155552220E+03  0.16517630435E+03  0.54962473699E+03  0.00000000000E+00 0. -1.
        -14    1    6    6    0    0 -0.61225369618E+02  0.17366102535E+03  0.10275580434E+03  0.21086833081E+03  0.00000000000E+00 0.  1.
</event>
<event>
12    1  0.1081556E+000  0.3731459E+03  0.7818608E-02  0.1053497E+00
          3   -1    0    0  502    0  0.00000000000E+00  0.00000000000E+00  0.16853111133E+03  0.16853111133E+03  0.00000000000E+00 0. -1.
         -3   -1    0    0    0  501 -0.00000000000E+00 -0.00000000000E+00 -0.83906785845E+03  0.83906785845E+03  0.00000000000E+00 0.  1.
          6    2    1    2  502    0  0.16099989706E+03  0.28998201124E+03 -0.39789051044E+03  0.54563761992E+03  0.17144392750E+03 0.  0.
         24    2    3    3    0    0  0.19332634885E+02  0.16759028140E+03 -0.19383234201E+03  0.26866979722E+03  0.78436152003E+02 0.  0.
         -6    2    1    2    0  501 -0.16099989706E+03 -0.28998201124E+03 -0.27264623668E+03  0.46196134986E+03  0.17047517321E+03 0.  0.
        -24    2    5    5    0    0 -0.90813626883E+02 -0.67268995190E+02 -0.12117320741E+03  0.18358504224E+03  0.79046119450E+02 0.  0.
          5    1    3    3  502    0  0.14166726218E+03  0.12239172985E+03 -0.20405816843E+03  0.27696782270E+03  0.47000000000E+01 0. -1.
        -13    1    4    4    0    0  0.45441346325E+02  0.98493401416E+02 -0.14080703687E+03  0.17774275712E+03  0.00000000000E+00 0.  1.
         14    1    4    4    0    0 -0.26108711440E+02  0.69096879979E+02 -0.53025305143E+02  0.90927040100E+02  0.00000000000E+00 0. -1.
         -5    1    5    5    0  501 -0.70186270181E+02 -0.22271301605E+03 -0.15147302928E+03  0.27837630761E+03  0.47000000000E+01 0.  1.
         11    1    6    6    0    0 -0.54596629141E+02 -0.52093135522E+02 -0.24659587976E+02  0.79388802493E+02  0.00000000000E+00 0. -1.
        -12    1    6    6    0    0 -0.36216997742E+02 -0.15175859667E+02 -0.96513619431E+02  0.10419623975E+03  0.00000000000E+00 0.  1.
</event>
<event>
12    1  0.1081556E+000  0.3444426E+03  0.7818608E-02  0.1064919E+00
          2   -1    0    0  502    0  0.00000000000E+00  0.00000000000E+00  0.23988607886E+04  0.23988607886E+04  0.00000000000E+00 0. -1.
         -2   -1    0    0    0  501 -0.00000000000E+00 -0.00000000000E+00 -0.54453741933E+02  0.54453741933E+02  0.00000000000E+00 0.  1.
          6    2    1    2  502    0 -0.25044677640E+03 -0.16221341963E+03  0.80073559869E+03  0.87168941375E+03  0.17212830600E+03 0.  0.
         24    2    3    3    0    0 -0.15823322105E+03 -0.13471612783E+03  0.38905942519E+03  0.44889064049E+03  0.83362962103E+02 0.  0.
         -6    2    1    2    0  501  0.25044677640E+03  0.16221341963E+03  0.15436714480E+04  0.15816251168E+04  0.17198746877E+03 0.  0.
        -24    2    5    5    0    0  0.15259649830E+03  0.63493545494E+02  0.11398728091E+04  0.11545469960E+04  0.79697073254E+02 0.  0.
          5    1    3    3  502    0 -0.92213555348E+02 -0.27497291798E+02  0.41167617349E+03  0.42279877326E+03  0.47000000000E+01 0. -1.
        -13    1    4    4    0    0 -0.15262583213E+03 -0.10587491623E+03  0.36959195590E+03  0.41364520593E+03  0.00000000000E+00 0.  1.
         14    1    4    4    0    0 -0.56073889241E+01 -0.28841211602E+02  0.19467469289E+02  0.35245434566E+02  0.00000000000E+00 0. -1.
         -5    1    5    5    0  501  0.97850278100E+02  0.98719874133E+02  0.40379863894E+03  0.42707812082E+03  0.47000000000E+01 0.  1.
         11    1    6    6    0    0  0.39695378116E+02  0.91187105613E+00  0.11683976227E+03  0.12340212559E+03  0.00000000000E+00 0. -1.
        -12    1    6    6    0    0  0.11290112018E+03  0.62581674438E+02  0.10230330468E+04  0.10311448704E+04  0.00000000000E+00 0.  1.
</event>
<event>
12    1  0.1081556E+000  0.3990687E+03  0.7818608E-02  0.1044103E+00
          4   -1    0    0  502    0  0.00000000000E+00  0.00000000000E+00  0.29889429407E+03  0.29889429407E+03  0.00000000000E+00 0. -1.
         -4   -1    0    0    0  501 -0.00000000000E+00 -0.00000000000E+00 -0.57750153637E+03  0.57750153637E+03  0.00000000000E+00 0.  1.
          6    2    1    2  502    0  0.20351721589E+03 -0.29761527697E+03 -0.17400698216E+02  0.39941369305E+03  0.17098071133E+03 0.  0.
         24    2    3    3    0    0  0.13581202257E+03 -0.28990598921E+03 -0.59201217900E+01  0.33015100501E+03  0.80462725594E+02 0.  0.
         -6    2    1    2    0  501 -0.20351721589E+03  0.29761527697E+03 -0.26120654409E+03  0.47698213739E+03  0.17114026546E+03 0.  0.
        -24    2    5    5    0    0 -0.19856995428E+03  0.20945097215E+03 -0.24541525089E+03  0.38715522058E+03  0.79754516964E+02 0.  0.
          5    1    3    3  502    0  0.67705193323E+02 -0.77092877647E+01 -0.11480576426E+02  0.69262688049E+02  0.47000000000E+01 0. -1.
        -11    1    4    4    0    0  0.12612407704E+03 -0.29178913558E+03 -0.12770614161E+02  0.31813718902E+03  0.00000000000E+00 0.  1.
         12    1    4    4    0    0  0.96879455263E+01  0.18831463699E+01  0.68504923715E+01  0.12013815984E+02  0.00000000000E+00 0. -1.
         -5    1    5    5    0  501 -0.49472616107E+01  0.88164304823E+02 -0.15791293201E+02  0.89826916809E+02  0.47000000000E+01 0.  1.
         11    1    6    6    0    0 -0.16406561713E+03  0.12452176502E+03 -0.18882259668E+03  0.27942292266E+03  0.00000000000E+00 0. -1.
        -12    1    6    6    0    0 -0.34504337147E+02  0.84929207128E+02 -0.56592654211E+02  0.10773229792E+03  0.00000000000E+00 0.  1.
</event>
<event>
12    1  0.1081556E+000  0.3443059E+03  0.7818608E-02  0.1064977E+00
         -1   -1    0    0    0  501 -0.00000000000E+00  0.00000000000E+00  0.84574824764E+03  0.84574824764E+03  0.00000000000E+00 0.  1.
          1   -1    0    0  502    0  0.00000000000E+00 -0.00000000000E+00 -0.75256011971E+03  0.75256011971E+03  0.00000000000E+00 0. -1.
          6    2    1    2  502    0 -0.29144129456E+03 -0.54340899970E+02  0.76746152824E+03  0.84066314136E+03  0.17270309300E+03 0.  0.
         24    2    3    3    0    0 -0.27953274258E+03 -0.10058667041E+02  0.59802063216E+03  0.66506406100E+03  0.80260810963E+02 0.  0.
         -6    2    1    2    0  501  0.29144129456E+03  0.54340899970E+02 -0.67427340032E+03  0.75764522599E+03  0.17745621573E+03 0.  0.
        -24    2    5    5    0    0  0.17655379255E+03 -0.38355975799E+02 -0.41378606250E+03  0.45819975172E+03  0.78010796776E+02 0.  0.
          5    1    3    3  502    0 -0.11908551983E+02 -0.44282232928E+02  0.16944089607E+03  0.17559908037E+03  0.47000000000E+01 0. -1.
        -11    1    4    4    0    0 -0.23359615207E+03 -0.21747382591E+02  0.54822970752E+03  0.59631864227E+03  0.00000000000E+00 0.  1.
         12    1    4    4    0    0 -0.45936590508E+02  0.11688715550E+02  0.49790924645E+02  0.68745418725E+02  0.00000000000E+00 0. -1.
         -5    1    5    5    0  501  0.11488750201E+03  0.92696875769E+02 -0.26048733782E+03  0.29944547427E+03  0.47000000000E+01 0.  1.
         11    1    6    6    0    0  0.78131077169E+02  0.57243281827E+01 -0.25092325972E+03  0.26286824727E+03  0.00000000000E+00 0. -1.
        -12    1    6    6    0    0  0.98422715386E+02 -0.44080303982E+02 -0.16286280278E+03  0.19533150445E+03  0.00000000000E+00 0.  1.
</event>
<event>
12    1  0.1081556E+000  0.6648101E+03  0.7818608E-02  0.9779379E-01
         -2   -1    0    0    0  501 -0.00000000000E+00  0.00000000000E+00  0.10321152323E+04  0.10321152323E+04  0.00000000000E+00 0.  1.
          2   -1    0    0  502    0  0.00000000000E+00 -0.00000000000E+00 -0.47470722292E+03  0.47470722292E+03  0.00000000000E+00 0. -1.
          6    2    1    2  502    0 -0.45525709987E+03 -0.45185619949E+03  0.42986297122E+02  0.66633204795E+03  0.17526415603E+03 0.  0.
         24    2    3    3    0    0 -0.41737513111E+03 -0.45409450773E+03  0.21563373633E+02  0.62250186165E+03  0.81484763305E+02 0.  0.
         -6    2    1    2    0  501  0.45525709987E+03  0.45185619949E+03  0.51442171226E+03  0.84049040728E+03  0.17424515686E+03 0.  0.
        -24    2    5    5    0    0  0.18036936272E+03  0.11525826587E+03  0.14972175290E+03  0.27313726566E+03  0.79810950001E+02 0.  0.
          5    1    3    3  502    0 -0.37881968752E+02  0.22383082413E+01  0.21422923489E+02  0.43830186301E+02  0.47000000000E+01 0. -1.
        -11    1    4    4    0    0 -0.13040238131E+03 -0.97264865014E+02 -0.13573357421E+02  0.16324665708E+03  0.00000000000E+00 0.  1.
         12    1    4    4    0    0 -0.28697274981E+03 -0.35682964272E+03  0.35136731054E+02  0.45925520457E+03  0.00000000000E+00 0. -1.
         -5    1    5    5    0  501  0.27488773715E+03  0.33659793362E+03  0.36469995936E+03  0.56735314163E+03  0.47000000000E+01 0.  1.
         11    1    6    6    0    0  0.13400062343E+03  0.76443150161E+02  0.14623527554E+03  0.21256640868E+03  0.00000000000E+00 0. -1.
        -12    1    6    6    0    0  0.46368739292E+02  0.38815115705E+02  0.34864773600E+01  0.60570856979E+02  0.00000000000E+00 0.  1.
</event>
<event>
12    1  0.1081556E+000  0.4145247E+03  0.7818608E-02  0.1038863E+00
          1   -1    0    0  502    0  0.00000000000E+00  0.00000000000E+00  0.10464892518E+04  0.10464892518E+04  0.00000000000E+00 0. -1.
         -1   -1    0    0    0  501 -0.00000000000E+00 -0.00000000000E+00 -0.15249251985E+04  0.15249251985E+04  0.00000000000E+00 0.  1.
          6    2    1    2  502    0 -0.21091345187E+03 -0.31258405413E+03 -0.14537432290E+04  0.15117260102E+04  0.17249022833E+03 0.  0.
         24    2    3    3    0    0 -0.77342632159E+02 -0.22943727678E+03 -0.97770434998E+03  0.10103382812E+04  0.79084130351E+02 0.  0.
         -6    2    1    2    0  501  0.21091345187E+03  0.31258405413E+03  0.97530728228E+03  0.10596884401E+04  0.17181973160E+03 0.  0.
        -24    2    5    5    0    0  0.19380960041E+03  0.32397351075E+03  0.86110616925E+03  0.94355814401E+03  0.79228400989E+02 0.  0.
          5    1    3    3  502    0 -0.13357081971E+03 -0.83146777348E+02 -0.47603887903E+03  0.50138772902E+03  0.47000000000E+01 0. -1.
        -13    1    4    4    0    0 -0.37431510043E+02 -0.52498583380E+02 -0.38955637223E+03  0.39485615905E+03  0.00000000000E+00 0.  1.
         14    1    4    4    0    0 -0.39911122117E+02 -0.17693869340E+03 -0.58814797776E+03  0.61548212210E+03  0.00000000000E+00 0. -1.
         -5    1    5    5    0  501  0.17103851464E+02 -0.11389456618E+02  0.11420111303E+03  0.11613029611E+03  0.47000000000E+01 0.  1.
         11    1    6    6    0    0  0.12245412658E+03  0.26928641393E+03  0.65622851255E+03  0.71982362182E+03  0.00000000000E+00 0. -1.
        -12    1    6    6    0    0  0.71355473830E+02  0.54687096817E+02  0.20487765670E+03  0.22373452219E+03  0.00000000000E+00 0.  1.
</event>
<event>
12    1  0.1081556E+000  0.3611468E+03  0.7818608E-02  0.1058131E+00
         -1   -1    0    0    0  501 -0.00000000000E+00  0.00000000000E+00  0.15763482745E+03  0.15763482745E+03  0.00000000000E+00 0.  1.
          1   -1    0    0  502    0  0.00000000000E+00 -0.00000000000E+00 -0.92404171967E+03  0.92404171967E+03  0.00000000000E+00 0. -1.
          6    2    1    2  502    0  0.11051085781E+03  0.29739155626E+03 -0.56023057369E+03  0.66778224507E+03  0.17725812733E+03 0.  0.
         24    2    3    3    0    0 -0.14838729656E+02  0.99960661096E+02 -0.21446762661E+03  0.25033095089E+03  0.80354840818E+02 0.  0.
         -6    2    1    2    0  501 -0.11051085781E+03 -0.29739155626E+03 -0.20617631853E+03  0.41389430205E+03  0.16776600227E+03 0.  0.
        -24    2    5    5    0    0 -0.44624199267E+02 -0.26762137705E+03 -0.14038189877E+03  0.31602545605E+03  0.80947456771E+02 0.  0.
          5    1    3    3  502    0  0.12534958747E+03  0.19743089516E+03 -0.34576294707E+03  0.41745129418E+03  0.47000000000E+01 0. -1.
        -11    1    4    4    0    0 -0.21533522054E+02  0.10862092627E+03 -0.15879545293E+03  0.19359285645E+03  0.00000000000E+00 0.  1.
         12    1    4    4    0    0  0.66947923980E+01 -0.86602651750E+01 -0.55672173685E+02  0.56738094443E+02  0.00000000000E+00 0. -1.
         -5    1    5    5    0  501 -0.65886658544E+02 -0.29770179206E+02 -0.65794419766E+02  0.97868845995E+02  0.47000000000E+01 0.  1.
         11    1    6    6    0    0  0.23046975406E+02 -0.46915306539E+02 -0.27236744735E+02  0.58941066556E+02  0.00000000000E+00 0. -1.
        -12    1    6    6    0    0 -0.67671174673E+02 -0.22070607051E+03 -0.11314515403E+03  0.25708438950E+03  0.00000000000E+00 0.  1.
</event>
<event>
12    1  0.1081556E+000  0.2054345E+03  0.7818608E-02  0.1145233E+00
          1   -1    0    0  502    0  0.00000000000E+00  0.00000000000E+00  0.11591068609E+04  0.11591068609E+04  0.00000000000E+00 0. -1.
         -1   -1    0    0    0  501 -0.00000000000E+00 -0.00000000000E+00 -0.40067603611E+02  0.40067603611E+02  0.00000000000E+00 0.  1.
          6    2    1    2  502    0  0.25754773129E+02 -0.10928407655E+03  0.37978549066E+03  0.43205903841E+03  0.17271848781E+03 0.  0.
         24    2    3    3    0    0  0.44045807935E+02 -0.12370582958E+03  0.20790054216E+03  0.25853937257E+03  0.79854907607E+02 0.  0.
         -6    2    1    2    0  501 -0.25754773129E+02  0.10928407655E+03  0.73925376661E+03  0.76711542608E+03  0.17135818555E+03 0.  0.
        -24    2    5    5    0    0  0.65476584861E+01  0.77503801810E+02  0.20594700116E+03  0.23186629808E+03  0.72788060637E+02 0.  0.
          5    1    3    3  502    0 -0.18291034806E+02  0.14421753029E+02  0.17188494850E+03  0.17351966585E+03  0.47000000000E+01 0. -1.
        -13    1    4    4    0    0  0.20766089990E+02 -0.69729172539E+01  0.37533358690E+01  0.22224751937E+02  0.00000000000E+00 0.  1.
         14    1    4    4    0    0  0.23279717944E+02 -0.11673291232E+03  0.20414720629E+03  0.23631462063E+03  0.00000000000E+00 0. -1.
         -5    1    5    5    0  501 -0.32302431615E+02  0.31780274738E+02  0.53330676545E+03  0.53524912800E+03  0.47000000000E+01 0.  1.
         11    1    6    6    0    0 -0.29343918052E+02  0.59565084593E+02  0.12803449812E+03  0.14422862940E+03  0.00000000000E+00 0. -1.
        -12    1    6    6    0    0  0.35891576539E+02  0.17938717217E+02  0.77912503035E+02  0.87637668676E+02  0.00000000000E+00 0.  1.
</event>
<event>
12    1  0.1081556E+000  0.1428751E+04  0.7818608E-02  0.8933266E-01
         -1   -1    0    0    0  501 -0.00000000000E+00  0.00000000000E+00  0.19370851151E+04  0.19370851151E+04  0.00000000000E+00 0.  1.
          1   -1    0    0  502    0  0.00000000000E+00 -0.00000000000E+00 -0.10761645349E+04  0.10761645349E+04  0.00000000000E+00 0. -1.
          6    2    1    2  502    0  0.13579725695E+04  0.40947846506E+03  0.64758409432E+03  0.15686630555E+04  0.17197822496E+03 0.  0.
         24    2    3    3    0    0  0.91229995096E+03  0.20589325686E+03  0.43511790206E+03  0.10345890974E+04  0.79773291871E+02 0.  0.
         -6    2    1    2    0  501 -0.13579725695E+04 -0.40947846506E+03  0.21333648583E+03  0.14445865944E+04  0.17191817770E+03 0.  0.
        -24    2    5    5    0    0 -0.86354178857E+03 -0.31437316367E+03  0.12444762725E+03  0.93328420382E+03  0.10486794809E+03 0.  0.
          5    1    3    3  502    0  0.44567261850E+03  0.20358520819E+03  0.21246619227E+03  0.53407395811E+03  0.47000000000E+01 0. -1.
        -13    1    4    4    0    0  0.81177797150E+03  0.19970740488E+03  0.40832469386E+03  0.93037389161E+03  0.00000000000E+00 0.  1.
         14    1    4    4    0    0  0.10052197946E+03  0.61858519810E+01  0.26793208201E+02  0.10421520582E+03  0.00000000000E+00 0. -1.
         -5    1    5    5    0  501 -0.49443078089E+03 -0.95105301390E+02  0.88888858584E+02  0.51130239059E+03  0.47000000000E+01 0.  1.
         13    1    6    6    0    0 -0.23670206112E+03 -0.64645080660E+02 -0.86753162265E+01  0.24552416032E+03  0.00000000000E+00 0. -1.
        -14    1    6    6    0    0 -0.62683972745E+03 -0.24972808301E+03  0.13312294347E+03  0.68776004350E+03  0.00000000000E+00 0.  1.
</event>
<event>
12    1  0.1081556E+000  0.3326957E+03  0.7818608E-02  0.1069950E+00
         -1   -1    0    0    0  501 -0.00000000000E+00  0.00000000000E+00  0.46707310387E+03  0.46707310387E+03  0.00000000000E+00 0.  1.
          1   -1    0    0  502    0  0.00000000000E+00 -0.00000000000E+00 -0.10424898831E+04  0.10424898831E+04  0.00000000000E+00 0. -1.
          6    2    1    2  502    0 -0.19108586507E+03  0.21129579818E+03  0.37577195143E+03  0.50185144104E+03  0.17172823656E+03 0.  0.
         24    2    3    3    0    0 -0.18794965710E+03  0.12191207550E+03  0.23103552420E+03  0.33164565663E+03  0.80148614203E+02 0.  0.
         -6    2    1    2    0  501  0.19108586507E+03 -0.21129579818E+03 -0.95118873063E+03  0.10077115459E+04  0.17193846662E+03 0.  0.
        -24    2    5    5    0    0  0.13523307356E+03 -0.22416669091E+03 -0.74719556133E+03  0.79576698400E+03  0.80032471207E+02 0.  0.
          5    1    3    3  502    0 -0.31362079684E+01  0.89383722678E+02  0.14473642723E+03  0.17020578441E+03  0.47000000000E+01 0. -1.
        -11    1    4    4    0    0 -0.65104059670E+01  0.34355741957E+02  0.21896564139E+02  0.41257264965E+02  0.00000000000E+00 0.  1.
         12    1    4    4    0    0 -0.18143925113E+03  0.87556333545E+02  0.20913896006E+03  0.29038839166E+03  0.00000000000E+00 0. -1.
         -5    1    5    5    0  501  0.55852791511E+02  0.12870892734E+02 -0.20399316930E+03  0.21194456190E+03  0.47000000000E+01 0.  1.
         11    1    6    6    0    0  0.34818753733E+02 -0.13516347953E+03 -0.37969910358E+03  0.40454038250E+03  0.00000000000E+00 0. -1.
        -12    1    6    6    0    0  0.10041431983E+03 -0.89003211383E+02 -0.36749645775E+03  0.39122660150E+03  0.00000000000E+00 0.  1.
</event>
<event>
12    1  0.1081556E+000  0.1563412E+04  0.7818608E-02  0.8843346E-01
          2   -1    0    0  502    0  0.00000000000E+00  0.00000000000E+00  0.23050009326E+04  0.23050009326E+04  0.00000000000E+00 0. -1.
         -2   -1    0    0    0  501 -0.00000000000E+00 -0.00000000000E+00 -0.13586803568E+04  0.13586803568E+04  0.00000000000E+00 0.  1.
          6    2    1    2  502    0 -0.57299910750E+03  0.14444496713E+04 -0.38512979514E+03  0.16101213499E+04  0.17147294848E+03 0.  0.
         24    2    3    3    0    0 -0.40060687299E+03  0.11523186475E+04 -0.28177379799E+03  0.12554889068E+04  0.92367686855E+02 0.  0.
         -6    2    1    2    0  501  0.57299910750E+03 -0.14444496713E+04  0.13314503709E+04  0.20535599395E+04  0.17200437499E+03 0.  0.
        -24    2    5    5    0    0  0.16903497807E+03 -0.41028287068E+03  0.43394794328E+03  0.62589727387E+03  0.80819070636E+02 0.  0.
          5    1    3    3  502    0 -0.17239223451E+03  0.29213102375E+03 -0.10335599715E+03  0.35463244310E+03  0.47000000000E+01 0. -1.
        -13    1    4    4    0    0 -0.14107838841E+03  0.40987901599E+03 -0.54995272509E+02  0.43695354378E+03  0.00000000000E+00 0.  1.
         14    1    4    4    0    0 -0.25952848459E+03  0.74243963156E+03 -0.22677852548E+03  0.81853536298E+03  0.00000000000E+00 0. -1.
         -5    1    5    5    0  501  0.40396412943E+03 -0.10341668006E+04  0.89750242759E+03  0.14276626656E+04  0.47000000000E+01 0.  1.
         11    1    6    6    0    0  0.11197191353E+03 -0.29448224430E+03  0.25541308589E+03  0.40557779287E+03  0.00000000000E+00 0. -1.
        -12    1    6    6    0    0  0.57063064538E+02 -0.11580062638E+03  0.17853485739E+03  0.22031948100E+03  0.00000000000E+00 0.  1.
</event>
<event>
12    1  0.1081556E+000  0.4422494E+03  0.7818608E-02  0.1030059E+00
          2   -1    0    0  502    0  0.00000000000E+00  0.00000000000E+00  0.25039678938E+04  0.25039678938E+04  0.00000000000E+00 0. -1.
         -2   -1    0    0    0  501 -0.00000000000E+00 -0.00000000000E+00 -0.11163679505E+03  0.11163679505E+03  0.00000000000E+00 0.  1.
          6    2    1    2  502    0  0.40246411672E+03 -0.64230341471E+02  0.47963898509E+03  0.65247045441E+03  0.17193381239E+03 0.  0.
         24    2    3    3    0    0  0.38543558022E+03 -0.77629874190E+02  0.48594842716E+03  0.62941795798E+03  0.73716403220E+02 0.  0.
         -6    2    1    2    0  501 -0.40246411672E+03  0.64230341471E+02  0.19126921137E+04  0.19631342344E+04  0.17147011041E+03 0.  0.
        -24    2    5    5    0    0 -0.19562201860E+03  0.90976323342E+02  0.11160378335E+04  0.11396179121E+04  0.81509963525E+02 0.  0.
          5    1    3    3  502    0  0.17028536494E+02  0.13399532719E+02 -0.63094420659E+01  0.23052496425E+02  0.47000000000E+01 0. -1.
        -13    1    4    4    0    0  0.39892964752E+02  0.93962719294E+00  0.21832771758E+02  0.45486277696E+02  0.00000000000E+00 0.  1.
         14    1    4    4    0    0  0.34554261547E+03 -0.78569501383E+02  0.46411565540E+03  0.58393168028E+03  0.00000000000E+00 0. -1.
         -5    1    5    5    0  501 -0.20684209812E+03 -0.26745981872E+02  0.79665428013E+03  0.82351632233E+03  0.47000000000E+01 0.  1.
         11    1    6    6    0    0 -0.10617230143E+02  0.82533329926E+01  0.24281987135E+03  0.24319196739E+03  0.00000000000E+00 0. -1.
        -12    1    6    6    0    0 -0.18500478846E+03  0.82722990350E+02  0.87321796218E+03  0.89642594472E+03  0.00000000000E+00 0.  1.
</event>
<event>
12    1  0.1081556E+000  0.1262124E+04  0.7818608E-02  0.9060152E-01
         -2   -1    0    0    0  501 -0.00000000000E+00  0.00000000000E+00  0.12085742493E+04  0.12085742493E+04  0.00000000000E+00 0.  1.
          2   -1    0    0  502    0  0.00000000000E+00 -0.00000000000E+00 -0.14808393127E+04  0.14808393127E+04  0.00000000000E+00 0. -1.
          6    2    1    2  502    0 -0.12179673958E+04  0.28198396397E+03  0.30970387421E+03  0.12997173002E+04  0.17432451831E+03 0.  0.
         24    2    3    3    0    0 -0.68683694186E+03  0.95494436228E+02  0.14280517328E+03  0.71255874463E+03  0.80513818546E+02 0.  0.
         -6    2    1    2    0  501  0.12179673958E+04 -0.28198396397E+03 -0.58196893756E+03  0.13896962618E+04  0.17207069106E+03 0.  0.
        -24    2    5    5    0    0  0.61938455145E+03 -0.16584939105E+03 -0.23060938947E+03  0.68594610546E+03  0.78728177883E+02 0.  0.
          5    1    3    3  502    0 -0.53113045390E+03  0.18648952774E+03  0.16689870092E+03  0.58715855557E+03  0.47000000000E+01 0. -1.
        -11    1    4    4    0    0 -0.14570571473E+03  0.83125129661E+01  0.61832177403E+02  0.15850069823E+03  0.00000000000E+00 0.  1.
         12    1    4    4    0    0 -0.54113122712E+03  0.87181923262E+02  0.80972995880E+02  0.55405804639E+03  0.00000000000E+00 0. -1.
         -5    1    5    5    0  501  0.59858284430E+03 -0.11613457292E+03 -0.35135954808E+03  0.70375015634E+03  0.47000000000E+01 0.  1.
         13    1    6    6    0    0  0.61656420220E+03 -0.16006199284E+03 -0.23405923311E+03  0.67864201284E+03  0.00000000000E+00 0. -1.
        -14    1    6    6    0    0  0.28203492495E+01 -0.57873982086E+01  0.34498436313E+01  0.73040926195E+01  0.00000000000E+00 0.  1.
</event>
<event>
12    1  0.1081556E+000  0.1278238E+04  0.7818608E-02  0.9047003E-01
         -2   -1    0    0    0  501 -0.00000000000E+00  0.00000000000E+00  0.81976802060E+03  0.81976802060E+03  0.00000000000E+00 0.  1.
          2   -1    0    0  502    0  0.00000000000E+00 -0.00000000000E+00 -0.21117078429E+04  0.21117078429E+04  0.00000000000E+00 0. -1.
          6    2    1    2  502    0  0.11342062127E+04  0.56236084646E+03 -0.99358282452E+03  0.16194166006E+04  0.18063732304E+03 0.  0.
         24    2    3    3    0    0  0.89733387288E+03  0.39025664287E+03 -0.81821438026E+03  0.12780889816E+04  0.80798180509E+02 0.  0.
         -6    2    1    2    0  501 -0.11342062127E+04 -0.56236084646E+03 -0.29835699777E+03  0.13120592629E+04  0.17265328447E+03 0.  0.
        -24    2    5    5    0    0 -0.10945928121E+04 -0.54831821956E+03 -0.31479504916E+03  0.12666861827E+04  0.81312164559E+02 0.  0.
          5    1    3    3  502    0  0.23687233983E+03  0.17210420359E+03 -0.17536844425E+03  0.34132761903E+03  0.47000000000E+01 0. -1.
        -13    1    4    4    0    0  0.85413468026E+03  0.38706442007E+03 -0.77089950222E+03  0.12139402620E+04  0.00000000000E+00 0.  1.
         14    1    4    4    0    0  0.43199192624E+02  0.31922228041E+01 -0.47314878046E+02  0.64148719507E+02  0.00000000000E+00 0. -1.
         -5    1    5    5    0  501 -0.39613400597E+02 -0.14042626901E+02  0.16438051392E+02  0.45373080243E+02  0.47000000000E+01 0.  1.
         11    1    6    6    0    0 -0.18828050743E+03 -0.12377636979E+03 -0.40195180161E+02  0.22887942612E+03  0.00000000000E+00 0. -1.
        -12    1    6    6    0    0 -0.90631230469E+03 -0.42454184978E+03 -0.27459986900E+03  0.10378067565E+04  0.00000000000E+00 0.  1.
</event>
<event>
12    1  0.1081556E+000  0.8185084E+03  0.7818608E-02  0.9533607E-01
         -2   -1    0    0    0  501 -0.00000000000E+00  0.00000000000E+00  0.70319418967E+03  0.70319418967E+03  0.00000000000E+00 0.  1.
          2   -1    0    0  502    0  0.00000000000E+00 -0.00000000000E+00 -0.95287861039E+03  0.95287861039E+03  0.00000000000E+00 0. -1.
          6    2    1    2  502    0  0.79475487329E+03  0.98231502524E+02 -0.13498853401E+03  0.82898031178E+03  0.16643832582E+03 0.  0.
         24    2    3    3    0    0  0.29419659975E+03 -0.74740712412E+01 -0.51056778924E+02  0.31052213309E+03  0.84909948904E+02 0.  0.
         -6    2    1    2    0  501 -0.79475487329E+03 -0.98231502524E+02 -0.11469588671E+03  0.82709248828E+03  0.17216881553E+03 0.  0.
        -24    2    5    5    0    0 -0.53165029857E+03 -0.11440450973E+03 -0.12324037187E+03  0.56331098472E+03  0.79941506242E+02 0.  0.
          5    1    3    3  502    0  0.50055827354E+03  0.10570557377E+03 -0.83931755090E+02  0.51845817868E+03  0.47000000000E+01 0. -1.
        -11    1    4    4    0    0  0.18075665829E+03  0.27780470675E+02 -0.45045224449E+01  0.18293445490E+03  0.00000000000E+00 0.  1.
         12    1    4    4    0    0  0.11343994146E+03 -0.35254541916E+02 -0.46552256479E+02  0.12758767820E+03  0.00000000000E+00 0. -1.
         -5    1    5    5    0  501 -0.26310457471E+03  0.16173007205E+02  0.85444851686E+01  0.26378150356E+03  0.47000000000E+01 0.  1.
         11    1    6    6    0    0 -0.24635244480E+03 -0.82307245251E+02 -0.87069853319E+02  0.27394373334E+03  0.00000000000E+00 0. -1.
        -12    1    6    6    0    0 -0.28529785377E+03 -0.32097264478E+02 -0.36170518556E+02  0.28936725137E+03  0.00000000000E+00 0.  1.
</event>
<event>
12    1  0.1081556E+000  0.7682563E+03  0.7818608E-02  0.9607137E-01
         -1   -1    0    0    0  501 -0.00000000000E+00  0.00000000000E+00  0.23368599383E+04  0.23368599383E+04  0.00000000000E+00 0.  1.
          1   -1    0    0  502    0  0.00000000000E+00 -0.00000000000E+00 -0.23121596010E+04  0.23121596010E+04  0.00000000000E+00 0. -1.
          6    2    1    2  502    0 -0.51504946677E+03 -0.54349898742E+03  0.22062306914E+04  0.23361871161E+04  0.17218964882E+03 0.  0.
         24    2    3    3    0    0 -0.50138059703E+03 -0.49558614237E+03  0.19481580703E+04  0.20733068268E+04  0.79329715133E+02 0.  0.
         -6    2    1    2    0  501  0.51504946677E+03  0.54349898742E+03 -0.21815303541E+04  0.23128324231E+04  0.17161593489E+03 0.  0.
        -24    2    5    5    0    0  0.27125393106E+03  0.27482813839E+03 -0.13312388984E+04  0.13883661241E+04  0.79084064577E+02 0.  0.
          5    1    3    3  502    0 -0.13668869734E+02 -0.47912845044E+02  0.25807262111E+03  0.26288028927E+03  0.47000000000E+01 0. -1.
        -13    1    4    4    0    0 -0.20424715217E+03 -0.15867102099E+03  0.64670368696E+03  0.69650488210E+03  0.00000000000E+00 0.  1.
         14    1    4    4    0    0 -0.29713344487E+03 -0.33691512139E+03  0.13014543833E+04  0.13768019447E+04  0.00000000000E+00 0. -1.
         -5    1    5    5    0  501  0.24379553571E+03  0.26867084903E+03 -0.85029145569E+03  0.92446629899E+03  0.47000000000E+01 0.  1.
         11    1    6    6    0    0  0.16299702994E+03  0.14841114253E+03 -0.62352921244E+03  0.66134905895E+03  0.00000000000E+00 0. -1.
        -12    1    6    6    0    0  0.10825690111E+03  0.12641699586E+03 -0.70770968597E+03  0.72701706520E+03  0.00000000000E+00 0.  1.
</event>
<event>
12    1  0.1081556E+000  0.3075765E+03  0.7818608E-02  0.1081513E+00
         -2   -1    0    0    0  501 -0.00000000000E+00  0.00000000000E+00  0.16581008599E+03  0.16581008599E+03  0.00000000000E+00 0.  1.
          2   -1    0    0  502    0  0.00000000000E+00 -0.00000000000E+00 -0.60231531184E+03  0.60231531184E+03  0.00000000000E+00 0. -1.
          6    2    1    2  502    0 -0.97679013508E+02 -0.23627372875E+03 -0.13080737176E+03  0.33525228835E+03  0.17296549876E+03 0.  0.
         24    2    3    3    0    0 -0.88972543372E+01 -0.11862793086E+03 -0.78335355177E+01  0.14324346324E+03  0.79407671959E+02 0.  0.
         -6    2    1    2    0  501  0.97679013508E+02  0.23627372875E+03 -0.30569785410E+03  0.43287310948E+03  0.16900143885E+03 0.  0.
        -24    2    5    5    0    0 -0.11938834173E+01  0.93504248969E+02 -0.18143439462E+03  0.21927893478E+03  0.80127035107E+02 0.  0.
          5    1    3    3  502    0 -0.88781759170E+02 -0.11764579789E+03 -0.12297383624E+03  0.19200882511E+03  0.47000000000E+01 0. -1.
        -11    1    4    4    0    0 -0.78197528752E+01 -0.16074613535E+02  0.29171350413E+02  0.34212708461E+02  0.00000000000E+00 0.  1.
         12    1    4    4    0    0 -0.10775014620E+01 -0.10255331733E+03 -0.37004885931E+02  0.10903075477E+03  0.00000000000E+00 0. -1.
         -5    1    5    5    0  501  0.98872896925E+02  0.14276947978E+03 -0.12426345948E+03  0.21359417470E+03  0.47000000000E+01 0.  1.
         11    1    6    6    0    0 -0.15896074984E+01  0.10510220356E+03 -0.13326212310E+03  0.16972858774E+03  0.00000000000E+00 0. -1.
        -12    1    6    6    0    0  0.39572408105E+00 -0.11597954588E+02 -0.48172271518E+02  0.49550347036E+02  0.00000000000E+00 0.  1.
</event>
<event>
12    1  0.1081556E+000  0.2079163E+03  0.7818608E-02  0.1143227E+00
         -2   -1    0    0    0  501 -0.00000000000E+00  0.00000000000E+00  0.12418501308E+03  0.12418501308E+03  0.00000000000E+00 0.  1.
          2   -1    0    0  502    0  0.00000000000E+00 -0.00000000000E+00 -0.17362639086E+04  0.17362639086E+04  0.00000000000E+00 0. -1.
          6    2    1    2  502    0  0.11499019132E+03  0.17113131430E+02  0.26432856325E+02  0.20868232312E+03  0.17127175109E+03 0.  0.
         24    2    3    3    0    0  0.13884337752E+03  0.36060371367E+02 -0.64320467655E+01  0.16362497912E+03  0.78446980205E+02 0.  0.
         -6    2    1    2    0  501 -0.11499019132E+03 -0.17113131430E+02 -0.16385117519E+04  0.16517665986E+04  0.17348352027E+03 0.  0.
        -24    2    5    5    0    0 -0.70049258677E+02  0.28947248626E+01 -0.15152395088E+04  0.15189579480E+04  0.79794742303E+02 0.  0.
          5    1    3    3  502    0 -0.23853186200E+02 -0.18947239937E+02  0.32864903090E+02  0.45057343999E+02  0.47000000000E+01 0. -1.
        -11    1    4    4    0    0  0.91636894621E+02 -0.77955595347E+01 -0.27234729928E+02  0.95915701105E+02  0.00000000000E+00 0.  1.
         12    1    4    4    0    0  0.47206482897E+02  0.43855930902E+02  0.20802683162E+02  0.67709278016E+02  0.00000000000E+00 0. -1.
         -5    1    5    5    0  501 -0.44940932641E+02 -0.20007856292E+02 -0.12327224310E+03  0.13280865054E+03  0.47000000000E+01 0.  1.
         13    1    6    6    0    0 -0.58116643513E+02 -0.62837150676E+01 -0.47148358548E+03  0.47509346523E+03  0.00000000000E+00 0. -1.
        -14    1    6    6    0    0 -0.11932615164E+02  0.91784399303E+01 -0.10437559233E+04  0.10438644828E+04  0.00000000000E+00 0.  1.
</event>
<event>
12    1  0.1081556E+000  0.2605407E+03  0.7818608E-02  0.1106819E+00
          1   -1    0    0  502    0  0.00000000000E+00  0.00000000000E+00  0.19695728882E+03  0.19695728882E+03  0.00000000000E+00 0. -1.
         -1   -1    0    0    0  501 -0.00000000000E+00 -0.00000000000E+00 -0.36289657805E+03  0.36289657805E+03  0.00000000000E+00 0.  1.
          6    2    1    2  502    0 -0.15054079776E+03  0.12634370518E+03 -0.14547870920E+03  0.29767812673E+03  0.16977322720E+03 0.  0.
         24    2    3    3    0    0 -0.13300611138E+03  0.10375664952E+03 -0.17559092893E+03  0.25588726544E+03  0.78676872796E+02 0.  0.
         -6    2    1    2    0  501  0.15054079776E+03 -0.12634370518E+03 -0.20460580020E+02  0.26217574014E+03  0.17231430514E+03 0.  0.
        -24    2    5    5    0    0  0.14897093707E+03 -0.15249924768E+03  0.88012689711E+00  0.22805693832E+03  0.80998962091E+02 0.  0.
          5    1    3    3  502    0 -0.17534686383E+02  0.22587055667E+02  0.30112219724E+02  0.41790861285E+02  0.47000000000E+01 0. -1.
        -11    1    4    4    0    0 -0.10062340383E+03  0.29132104202E+02 -0.10115950029E+03  0.14562621121E+03  0.00000000000E+00 0.  1.
         12    1    4    4    0    0 -0.32382707549E+02  0.74624545313E+02 -0.74431428638E+02  0.11026105423E+03  0.00000000000E+00 0. -1.
         -5    1    5    5    0  501  0.15698606940E+01  0.26155542498E+02 -0.21340706917E+02  0.34118801821E+02  0.47000000000E+01 0.  1.
         13    1    6    6    0    0  0.11921993100E+02 -0.42075231703E+02  0.25061681474E+02  0.50403838352E+02  0.00000000000E+00 0. -1.
        -14    1    6    6    0    0  0.13704894397E+03 -0.11042401598E+03 -0.24181554577E+02  0.17765309997E+03  0.00000000000E+00 0.  1.
</event>
<event>
12    1  0.1081556E+000  0.3007387E+03  0.7818608E-02  0.1084872E+00
         -2   -1    0    0    0  501 -0.00000000000E+00  0.00000000000E+00  0.55689707049E+03  0.55689707049E+03  0.00000000000E+00 0.  1.
          2   -1    0    0  502    0  0.00000000000E+00 -0.00000000000E+00 -0.29279333796E+04  0.29279333796E+04  0.00000000000E+00 0. -1.
          6    2    1    2  502    0  0.11981143460E+03  0.21581873224E+03  0.50778335806E+03  0.59039236362E+03  0.17258823615E+03 0.  0.
         24    2    3    3    0    0  0.13521003733E+03  0.11633013912E+03  0.28703145738E+03  0.34772265233E+03  0.81911720494E+02 0.  0.
         -6    2    1    2    0  501 -0.11981143460E+03 -0.21581873224E+03 -0.28788196672E+04  0.28944380865E+04  0.17098729577E+03 0.  0.
        -24    2    5    5    0    0 -0.21666440919E+02 -0.12677583233E+03 -0.17015415549E+04  0.17097157893E+04  0.10650291446E+03 0.  0.
          5    1    3    3  502    0 -0.15398602727E+02  0.99488593115E+02  0.22075190068E+03  0.24266971130E+03  0.47000000000E+01 0. -1.
        -13    1    4    4    0    0  0.63608687963E+02  0.23044959051E+02  0.16460736137E+03  0.17796830824E+03  0.00000000000E+00 0.  1.
         14    1    4    4    0    0  0.71601349362E+02  0.93285180073E+02  0.12242409601E+03  0.16975434409E+03  0.00000000000E+00 0. -1.
         -5    1    5    5    0  501 -0.98144993680E+02 -0.89042899914E+02 -0.11772781122E+04  0.11847222972E+04  0.47000000000E+01 0.  1.
         11    1    6    6    0    0  0.24882941135E+02 -0.11609445184E+03 -0.11516924145E+04  0.11577963984E+04  0.00000000000E+00 0. -1.
        -12    1    6    6    0    0 -0.46549382054E+02 -0.10681380489E+02 -0.54984914044E+03  0.55191939094E+03  0.00000000000E+00 0.  1.
</event>
<event>
12    1  0.1081556E+000  0.8881348E+03  0.7818608E-02  0.9440536E-01
         -2   -1    0    0    0  501 -0.00000000000E+00  0.00000000000E+00  0.87827870672E+03  0.87827870672E+03  0.00000000000E+00 0.  1.
          2   -1    0    0  502    0  0.00000000000E+00 -0.00000000000E+00 -0.99149023095E+03  0.99149023095E+03  0.00000000000E+00 0. -1.
          6    2    1    2  502    0  0.29959245175E+03 -0.81850947699E+03 -0.34349949533E+03  0.95182984153E+03  0.16815095262E+03 0.  0.
         24    2    3    3    0    0  0.27872969237E+03 -0.58601836551E+03 -0.26408779548E+03  0.70522148863E+03  0.80543269021E+02 0.  0.
         -6    2    1    2    0  501 -0.29959245175E+03  0.81850947699E+03  0.23028797111E+03  0.91793909614E+03  0.17281849878E+03 0.  0.
        -24    2    5    5    0    0 -0.30404653471E+03  0.71621400532E+03  0.23024240642E+03  0.81543887928E+03  0.80760160066E+02 0.  0.
          5    1    3    3  502    0  0.20862759384E+02 -0.23249111148E+03 -0.79411699848E+02  0.24660835290E+03  0.47000000000E+01 0. -1.
        -13    1    4    4    0    0  0.23050081773E+03 -0.53856872219E+03 -0.22882096957E+03  0.62892442440E+03  0.00000000000E+00 0.  1.
         14    1    4    4    0    0  0.48228874638E+02 -0.47449643316E+02 -0.35266825915E+02  0.76297064227E+02  0.00000000000E+00 0. -1.
         -5    1    5    5    0  501  0.44540829562E+01  0.10229547168E+03  0.45564689819E-01  0.10250021686E+03  0.47000000000E+01 0.  1.
         13    1    6    6    0    0 -0.12957872035E+03  0.40693441050E+03  0.11934253298E+03  0.44342857305E+03  0.00000000000E+00 0. -1.
        -14    1    6    6    0    0 -0.17446781436E+03  0.30927959482E+03  0.11089987344E+03  0.37201030623E+03  0.00000000000E+00 0.  1.
</event>
<event>
12    1  0.1081556E+000  0.3908230E+03  0.7818608E-02  0.1047004E+00
         -1   -1    0    0    0  501 -0.00000000000E+00  0.00000000000E+00  0.50948461072E+03  0.50948461072E+03  0.00000000000E+00 0.  1.
          1   -1    0    0  502    0  0.00000000000E+00 -0.00000000000E+00 -0.56896531456E+03  0.56896531456E+03  0.00000000000E+00 0. -1.
          6    2    1    2  502    0  0.24899224407E+03 -0.24553346783E+03  0.34116652995E+03  0.51834111175E+03  0.17320244092E+03 0.  0.
         24    2    3    3    0    0  0.14814009300E+03 -0.19247109978E+03  0.30657212705E+03  0.39915372152E+03  0.79665631937E+02 0.  0.
         -6    2    1    2    0  501 -0.24899224407E+03  0.24553346783E+03 -0.40064723379E+03  0.56010881353E+03  0.17584042657E+03 0.  0.
        -24    2    5    5    0    0 -0.40579257378E+02  0.10678013492E+03 -0.11762333647E+03  0.18220263883E+03  0.79459920548E+02 0.  0.
          5    1    3    3  502    0  0.10085215107E+03 -0.53062368050E+02  0.34594402894E+02  0.11918739023E+03  0.47000000000E+01 0. -1.
        -13    1    4    4    0    0  0.14960368362E+03 -0.19322382824E+03  0.31036276664E+03  0.39502121065E+03  0.00000000000E+00 0.  1.
         14    1    4    4    0    0 -0.14635906203E+01  0.75272845582E+00 -0.37906395820E+01  0.41325108678E+01  0.00000000000E+00 0. -1.
         -5    1    5    5    0  501 -0.20841298669E+03  0.13875333291E+03 -0.28302389733E+03  0.37790617470E+03  0.47000000000E+01 0.  1.
         13    1    6    6    0    0 -0.60243051896E+02  0.61620117203E+02 -0.53829658838E+02  0.10160657615E+03  0.00000000000E+00 0. -1.
        -14    1    6    6    0    0  0.19663794519E+02  0.45160017716E+02 -0.63793677628E+02  0.80596062685E+02  0.00000000000E+00 0.  1.
</event>
<event>
12    1  0.1630369E+000  0.1074629E+04  0.7818608E-02  0.9230280E-01
         -2   -1    0    0    0  501 -0.00000000000E+00  0.00000000000E+00  0.92486243525E+03  0.92486243525E+03  0.00000000000E+00 0.  1.
          2   -1    0    0  502    0  0.00000000000E+00 -0.00000000000E+00 -0.18629089785E+04  0.18629089785E+04  0.00000000000E+00 0. -1.
          6    2    1    2  502    0  0.80459957643E+03 -0.69146434378E+03  0.33136856110E+03  0.11245918932E+04  0.17145957492E+03 0.  0.
         24    2    3    3    0    0  0.27228991198E+03 -0.28005980859E+03  0.83667065980E+02  0.40766414849E+03  0.81330114205E+02 0.  0.
         -6    2    1    2    0  501 -0.80459957643E+03  0.69146434378E+03 -0.12694151043E+04  0.16631795205E+04  0.17102044712E+03 0.  0.
        -24    2    5    5    0    0 -0.60572898988E+03  0.44590202922E+03 -0.94233908101E+03  0.12083705765E+04  0.80126635799E+02 0.  0.
          5    1    3    3  502    0  0.53230966444E+03 -0.41140453519E+03  0.24770149512E+03  0.71692774470E+03  0.47000000000E+01 0. -1.
        -11    1    4    4    0    0  0.23296903106E+03 -0.25091396385E+03  0.98924053805E+02  0.35639634553E+03  0.00000000000E+00 0.  1.
         12    1    4    4    0    0  0.39320880926E+02 -0.29145844740E+02 -0.15256987826E+02  0.51267802956E+02  0.00000000000E+00 0. -1.
         -5    1    5    5    0  501 -0.19887058654E+03  0.24556231456E+03 -0.32707602331E+03  0.45480894400E+03  0.47000000000E+01 0.  1.
         11    1    6    6    0    0 -0.23072457333E+03  0.16756647141E+03 -0.29647119016E+03  0.41134841397E+03  0.00000000000E+00 0. -1.
        -12    1    6    6    0    0 -0.37500441656E+03  0.27833555781E+03 -0.64586789085E+03  0.79702216255E+03  0.00000000000E+00 0.  1.
</event>
<event>
12    1  0.1081556E+000  0.5941789E+03  0.7818608E-02  0.9917557E-01
          2   -1    0    0  502    0  0.00000000000E+00  0.00000000000E+00  0.11433315352E+04  0.11433315352E+04  0.00000000000E+00 0. -1.
         -2   -1    0    0    0  501 -0.00000000000E+00 -0.00000000000E+00 -0.32137111134E+03  0.32137111134E+03  0.00000000000E+00 0.  1.
          6    2    1    2  502    0  0.31419240246E+03 -0.47525826832E+03  0.26676055421E+03  0.65224969884E+03  0.17228229447E+03 0.  0.
         24    2    3    3    0    0  0.31629447916E+03 -0.48346166159E+03  0.25437168638E+03  0.63652429157E+03  0.81736424889E+02 0.  0.
         -6    2    1    2    0  501 -0.31419240246E+03  0.47525826832E+03  0.55519986965E+03  0.81245294769E+03  0.16506244150E+03 0.  0.
        -24    2    5    5    0    0 -0.20483734889E+03  0.23328354536E+03  0.36502731746E+03  0.48580637433E+03  0.79895799657E+02 0.  0.
          5    1    3    3  502    0 -0.21020767008E+01  0.82033932759E+01  0.12388867823E+02  0.15725407264E+02  0.47000000000E+01 0. -1.
        -11    1    4    4    0    0  0.21548628332E+03 -0.38695878136E+03  0.20928112247E+03  0.48986735449E+03  0.00000000000E+00 0.  1.
         12    1    4    4    0    0  0.10080819584E+03 -0.96502880231E+02  0.45090563914E+02  0.14665693708E+03  0.00000000000E+00 0. -1.
         -5    1    5    5    0  501 -0.10935505356E+03  0.24197472295E+03  0.19017255218E+03  0.32664657336E+03  0.47000000000E+01 0.  1.
         13    1    6    6    0    0 -0.26441441404E+02  0.66764970706E+02  0.12092931082E+03  0.14064355425E+03  0.00000000000E+00 0. -1.
        -14    1    6    6    0    0 -0.17839590749E+03  0.16651857466E+03  0.24409800664E+03  0.34516282007E+03  0.00000000000E+00 0.  1.
</event>
<event>
12    1  0.1081556E+000  0.5474078E+03  0.7818608E-02  0.1002096E+00
         -1   -1    0    0    0  501 -0.00000000000E+00  0.00000000000E+00  0.79852628159E+03  0.79852628159E+03  0.00000000000E+00 0.  1.
          1   -1    0    0  502    0  0.00000000000E+00 -0.00000000000E+00 -0.38655741006E+03  0.38655741006E+03  0.00000000000E+00 0. -1.
          6    2    1    2  502    0 -0.22698933842E+02  0.51754836066E+03  0.10429969279E+03  0.55619416676E+03  0.17349921612E+03 0.  0.
         24    2    3    3    0    0 -0.41488367025E+02  0.47806281823E+03  0.54495591348E+02  0.48975103784E+03  0.81369323536E+02 0.  0.
         -6    2    1    2    0  501  0.22698933842E+02 -0.51754836066E+03  0.30766917874E+03  0.62888952490E+03  0.18019479392E+03 0.  0.
        -24    2    5    5    0    0  0.24707486294E+02 -0.16946054116E+03  0.85818196519E+02  0.21608313846E+03  0.99999124917E+02 0.  0.
          5    1    3    3  502    0  0.18789433183E+02  0.39485542433E+02  0.49804101438E+02  0.66443128919E+02  0.47000000000E+01 0. -1.
        -11    1    4    4    0    0 -0.37281439805E+02  0.35463905053E+03  0.75456714888E+02  0.36448933830E+03  0.00000000000E+00 0.  1.
         12    1    4    4    0    0 -0.42069272196E+01  0.12342376770E+03 -0.20961123539E+02  0.12526169953E+03  0.00000000000E+00 0. -1.
         -5    1    5    5    0  501 -0.20085524522E+01 -0.34808781950E+03  0.22185098222E+03  0.41280638643E+03  0.47000000000E+01 0.  1.
         13    1    6    6    0    0 -0.13118661432E+02 -0.14357103572E+03  0.90160777581E+02  0.17004031107E+03  0.00000000000E+00 0. -1.
        -14    1    6    6    0    0  0.37826147726E+02 -0.25889505441E+02 -0.43425810614E+01  0.46042827390E+02  0.00000000000E+00 0.  1.
</event>
<event>
12    1  0.1209209E+000  0.1202214E+04  0.7818608E-02  0.9110921E-01
         -2   -1    0    0    0  501 -0.00000000000E+00  0.00000000000E+00  0.13556692064E+04  0.13556692064E+04  0.00000000000E+00 0.  1.
          2   -1    0    0  502    0  0.00000000000E+00 -0.00000000000E+00 -0.16548555405E+04  0.16548555405E+04  0.00000000000E+00 0. -1.
          6    2    1    2  502    0 -0.65283341706E+03 -0.99477153479E+03  0.74822712923E+03  0.14160228863E+04  0.17179959462E+03 0.  0.
         24    2    3    3    0    0 -0.64266463202E+03 -0.98308583827E+03  0.71063014587E+03  0.13750890024E+04  0.79993534972E+02 0.  0.
         -6    2    1    2    0  501  0.65283341706E+03  0.99477153479E+03 -0.10474134633E+04  0.15945018607E+04  0.17204459821E+03 0.  0.
        -24    2    5    5    0    0  0.54072137197E+03  0.87666714935E+03 -0.84480722322E+03  0.13345227557E+04  0.79541487246E+02 0.  0.
          5    1    3    3  502    0 -0.10168785038E+02 -0.11685696518E+02  0.37596983360E+02  0.40933883887E+02  0.47000000000E+01 0. -1.
        -13    1    4    4    0    0 -0.33499174766E+03 -0.58343843508E+03  0.41500099070E+03  0.79047182164E+03  0.00000000000E+00 0.  1.
         14    1    4    4    0    0 -0.30767288436E+03 -0.39964740320E+03  0.29562915517E+03  0.58461718076E+03  0.00000000000E+00 0. -1.
         -5    1    5    5    0  501  0.11211204509E+03  0.11810438544E+03 -0.20260624011E+03  0.25997910502E+03  0.47000000000E+01 0.  1.
         11    1    6    6    0    0  0.97702364208E+02  0.22257707640E+03 -0.19995504692E+03  0.31475121556E+03  0.00000000000E+00 0. -1.
        -12    1    6    6    0    0  0.44301900776E+03  0.65409007295E+03 -0.64485217631E+03  0.10197715401E+04  0.00000000000E+00 0.  1.
</event>
<event>
12    1  0.1081556E+000  0.2807810E+03  0.7818608E-02  0.1095263E+00
         -1   -1    0    0    0  501 -0.00000000000E+00  0.00000000000E+00  0.98738320782E+02  0.98738320782E+02  0.00000000000E+00 0.  1.
          1   -1    0    0  502    0  0.00000000000E+00 -0.00000000000E+00 -0.16760220146E+04  0.16760220146E+04  0.00000000000E+00 0. -1.
          6    2    1    2  502    0  0.15553812259E+02  0.22129713102E+03 -0.14638695081E+03  0.31655468076E+03  0.17194006301E+03 0.  0.
         24    2    3    3    0    0 -0.39521514344E+02  0.61352490702E+02 -0.26121918618E+02  0.10894604044E+03  0.76555906912E+02 0.  0.
         -6    2    1    2    0  501 -0.15553812259E+02 -0.22129713102E+03 -0.14308967430E+04  0.14582056547E+04  0.17229016441E+03 0.  0.
        -24    2    5    5    0    0  0.12605757930E+02 -0.16008473437E+03 -0.65637482212E+03  0.68074426341E+03  0.82454943681E+02 0.  0.
          5    1    3    3  502    0  0.55075326603E+02  0.15994464032E+03 -0.12026503219E+03  0.20760864032E+03  0.47000000000E+01 0. -1.
        -11    1    4    4    0    0 -0.47509537942E+02  0.33203356854E+02 -0.45639060641E+02  0.73773592552E+02  0.00000000000E+00 0.  1.
         12    1    4    4    0    0  0.79880235984E+01  0.28149133848E+02  0.19517142023E+02  0.35172447884E+02  0.00000000000E+00 0. -1.
         -5    1    5    5    0  501 -0.28159570189E+02 -0.61212396656E+02 -0.77452192092E+03  0.77746139125E+03  0.47000000000E+01 0.  1.
         13    1    6    6    0    0 -0.41179330461E+00 -0.13765201168E+03 -0.62528043937E+03  0.64025297637E+03  0.00000000000E+00 0. -1.
        -14    1    6    6    0    0  0.13017551235E+02 -0.22432722685E+02 -0.31094382753E+02  0.40491287038E+02  0.00000000000E+00 0.  1.
</event>
<event>
12    1  0.1081556E+000  0.2050298E+03  0.7818608E-02  0.1145563E+00
          2   -1    0    0  502    0  0.00000000000E+00  0.00000000000E+00  0.25212353098E+04  0.25212353098E+04  0.00000000000E+00 0. -1.
         -2   -1    0    0    0  501 -0.00000000000E+00 -0.00000000000E+00 -0.16735426084E+03  0.16735426084E+03  0.00000000000E+00 0.  1.
          6    2    1    2  502    0 -0.97057701293E+02 -0.52236673790E+02 -0.98934190232E+02  0.22717590274E+03  0.17225576716E+03 0.  0.
         24    2    3    3    0    0 -0.56672024644E+02 -0.10185207860E+03 -0.54908145590E+02  0.14937439967E+03  0.75579379009E+02 0.  0.
         -6    2    1    2    0  501  0.97057701293E+02  0.52236673790E+02  0.24528152392E+04  0.24614136679E+04  0.17351017090E+03 0.  0.
        -24    2    5    5    0    0  0.81412848854E+02  0.93550819469E+02  0.21772382729E+04  0.21822786210E+04  0.81201447073E+02 0.  0.
          5    1    3    3  502    0 -0.40385676649E+02  0.49615404814E+02 -0.44026044642E+02  0.77801503071E+02  0.47000000000E+01 0. -1.
        -13    1    4    4    0    0 -0.25614730206E+01 -0.56213890661E+02  0.51974206428E+01  0.56511731779E+02  0.00000000000E+00 0.  1.
         14    1    4    4    0    0 -0.54110551623E+02 -0.45638187942E+02 -0.60105566233E+02  0.92862667891E+02  0.00000000000E+00 0. -1.
         -5    1    5    5    0  501  0.15644852439E+02 -0.41314145679E+02  0.27557696634E+03  0.27913504692E+03  0.47000000000E+01 0.  1.
         11    1    6    6    0    0  0.69159358267E+02  0.64663509892E+02  0.96485093412E+03  0.96948528169E+03  0.00000000000E+00 0. -1.
        -12    1    6    6    0    0  0.12253490587E+02  0.28887309577E+02  0.12123873387E+04  0.12127933393E+04  0.00000000000E+00 0.  1.
</event>
<event>
12    1  0.1081556E+000  0.6331702E+03  0.7818608E-02  0.9838882E-01
         -2   -1    0    0    0  501 -0.00000000000E+00  0.00000000000E+00  0.61794526159E+03  0.61794526159E+03  0.00000000000E+00 0.  1.
          2   -1    0    0  502    0  0.00000000000E+00 -0.00000000000E+00 -0.12573082355E+04  0.12573082355E+04  0.00000000000E+00 0. -1.
          6    2    1    2  502    0  0.54427312195E+03  0.27456124701E+03  0.33262641648E+03  0.71522512116E+03  0.17114184574E+03 0.  0.
         24    2    3    3    0    0  0.41605452919E+03  0.16779472946E+03  0.18311228438E+03  0.49113660629E+03  0.80178643393E+02 0.  0.
         -6    2    1    2    0  501 -0.54427312195E+03 -0.27456124701E+03 -0.97198939044E+03  0.11600283760E+04  0.17112962429E+03 0.  0.
        -24    2    5    5    0    0 -0.55043969753E+03 -0.26480309206E+03 -0.96720804506E+03  0.11466792372E+04  0.79229618358E+02 0.  0.
          5    1    3    3  502    0  0.12821859276E+03  0.10676651754E+03  0.14951413210E+03  0.22408851487E+03  0.47000000000E+01 0. -1.
        -13    1    4    4    0    0  0.31550515527E+03  0.14775115621E+03  0.17038890790E+03  0.38782249432E+03  0.00000000000E+00 0.  1.
         14    1    4    4    0    0  0.10054937392E+03  0.20043573248E+02  0.12723376482E+02  0.10331411197E+03  0.00000000000E+00 0. -1.
         -5    1    5    5    0  501  0.61665755813E+01 -0.97581549490E+01 -0.47813453852E+01  0.13349138777E+02  0.47000000000E+01 0.  1.
         13    1    6    6    0    0 -0.43021891827E+03 -0.17000760649E+03 -0.74061371386E+03  0.87321221765E+03  0.00000000000E+00 0. -1.
        -14    1    6    6    0    0 -0.12022077926E+03 -0.94795485565E+02 -0.22659433120E+03  0.27346701955E+03  0.00000000000E+00 0.  1.
</event>
<event>
12    1  0.1081556E+000  0.4445954E+03  0.7818608E-02  0.1029346E+00
          2   -1    0    0  502    0  0.00000000000E+00  0.00000000000E+00  0.20073542660E+04  0.20073542660E+04  0.00000000000E+00 0. -1.
         -2   -1    0    0    0  501 -0.00000000000E+00 -0.00000000000E+00 -0.98900080066E+02  0.98900080066E+02  0.00000000000E+00 0.  1.
          6    2    1    2  502    0  0.38427681506E+03  0.14256019776E+03  0.88492797235E+03  0.99035808688E+03  0.17239357129E+03 0.  0.
         24    2    3    3    0    0  0.36972920341E+03  0.89228476495E+02  0.78945648799E+03  0.87993707519E+03  0.79914360311E+02 0.  0.
         -6    2    1    2    0  501 -0.38427681506E+03 -0.14256019776E+03  0.10235262136E+04  0.11158962592E+04  0.17212341730E+03 0.  0.
        -24    2    5    5    0    0 -0.12577641339E+03 -0.78253074387E+01  0.40434309754E+03  0.43150911032E+03  0.82618582404E+02 0.  0.
          5    1    3    3  502    0  0.14547611651E+02  0.53331721267E+02  0.95471484362E+02  0.11042101170E+03  0.47000000000E+01 0. -1.
        -11    1    4    4    0    0  0.28586347898E+03  0.71879383168E+02  0.67859780617E+03  0.73985103695E+03  0.00000000000E+00 0.  1.
         12    1    4    4    0    0  0.83865724427E+02  0.17349093327E+02  0.11085868182E+03  0.14008603823E+03  0.00000000000E+00 0. -1.
         -5    1    5    5    0  501 -0.25850040167E+03 -0.13473489032E+03  0.61918311601E+03  0.68438714883E+03  0.47000000000E+01 0.  1.
         11    1    6    6    0    0 -0.60870011360E+02  0.11614978880E+02  0.85789656764E+02  0.10582972751E+03  0.00000000000E+00 0. -1.
        -12    1    6    6    0    0 -0.64906402035E+02 -0.19440286318E+02  0.31855344077E+03  0.32567938281E+03  0.00000000000E+00 0.  1.
</event>
<event>
12    1  0.1081556E+000  0.4776664E+03  0.7818608E-02  0.1019778E+00
         -2   -1    0    0    0  501 -0.00000000000E+00  0.00000000000E+00  0.22599559510E+03  0.22599559510E+03  0.00000000000E+00 0.  1.
          2   -1    0    0  502    0  0.00000000000E+00 -0.00000000000E+00 -0.14186375584E+04  0.14186375584E+04  0.00000000000E+00 0. -1.
          6    2    1    2  502    0  0.40724062393E+03 -0.18171980176E+03 -0.15479174929E+03  0.50214885635E+03  0.17124828804E+03 0.  0.
         24    2    3    3    0    0  0.33003379740E+03 -0.12668905463E+03 -0.60149969188E+02  0.36810246985E+03  0.83120307575E+02 0.  0.
         -6    2    1    2    0  501 -0.40724062393E+03  0.18171980176E+03 -0.10378502140E+04  0.11424842972E+04  0.17108562293E+03 0.  0.
        -24    2    5    5    0    0 -0.12012584674E+03  0.23572582482E+02 -0.39034094452E+03  0.41671864467E+03  0.79388224211E+02 0.  0.
          5    1    3    3  502    0  0.77206826531E+02 -0.55030747125E+02 -0.94641780099E+02  0.13404638649E+03  0.47000000000E+01 0. -1.
        -11    1    4    4    0    0  0.10246592653E+03 -0.78234184850E+02 -0.37889856454E+02  0.13437073715E+03  0.00000000000E+00 0.  1.
         12    1    4    4    0    0  0.22756787086E+03 -0.48454869783E+02 -0.22260112734E+02  0.23373173271E+03  0.00000000000E+00 0. -1.
         -5    1    5    5    0  501 -0.28711477719E+03  0.15814721928E+03 -0.64750926951E+03  0.72576565250E+03  0.47000000000E+01 0.  1.
         11    1    6    6    0    0 -0.71055005854E+02  0.52980877095E+02 -0.24321943173E+03  0.25886575511E+03  0.00000000000E+00 0. -1.
        -12    1    6    6    0    0 -0.49070840887E+02 -0.29408294612E+02 -0.14712151279E+03  0.15785288956E+03  0.00000000000E+00 0.  1.
</event>
<event>
12    1  0.1081556E+000  0.5467188E+03  0.7818608E-02  0.1002256E+00
          2   -1    0    0  502    0  0.00000000000E+00  0.00000000000E+00  0.10254422506E+04  0.10254422506E+04  0.00000000000E+00 0. -1.
         -2   -1    0    0    0  501 -0.00000000000E+00 -0.00000000000E+00 -0.29651348585E+03  0.29651348585E+03  0.00000000000E+00 0.  1.
          6    2    1    2  502    0  0.62638238040E+02 -0.51525211804E+03  0.27847410014E+03  0.61366707094E+03  0.17213702534E+03 0.  0.
         24    2    3    3    0    0  0.41442119910E+02 -0.31460106156E+03  0.95024297629E+02  0.34092902458E+03  0.80695138774E+02 0.  0.
         -6    2    1    2    0  501 -0.62638238040E+02  0.51525211804E+03  0.45045466460E+03  0.70828866551E+03  0.17133340254E+03 0.  0.
        -24    2    5    5    0    0 -0.73772929190E+02  0.43260619128E+03  0.30434971516E+03  0.53999405238E+03  0.79838998478E+02 0.  0.
          5    1    3    3  502    0  0.21196118129E+02 -0.20065105648E+03  0.18344980252E+03  0.27273804636E+03  0.47000000000E+01 0. -1.
        -11    1    4    4    0    0  0.26682717294E+02 -0.22892332051E+03  0.10529104830E+03  0.25338519872E+03  0.00000000000E+00 0.  1.
         12    1    4    4    0    0  0.14759402617E+02 -0.85677741049E+02 -0.10266750674E+02  0.87543825860E+02  0.00000000000E+00 0. -1.
         -5    1    5    5    0  501  0.11134691150E+02  0.82645926766E+02  0.14610494945E+03  0.16829461314E+03  0.47000000000E+01 0.  1.
         13    1    6    6    0    0  0.10676161639E+02  0.44574648733E+02  0.52765228573E+02  0.69893126152E+02  0.00000000000E+00 0. -1.
        -14    1    6    6    0    0 -0.84449090829E+02  0.38803154254E+03  0.25158448658E+03  0.47010092623E+03  0.00000000000E+00 0.  1.
</event>
<event>
12    1  0.1081556E+000  0.2950802E+03  0.7818608E-02  0.1087726E+00
          2   -1    0    0  502    0  0.00000000000E+00  0.00000000000E+00  0.16976905741E+04  0.16976905741E+04  0.00000000000E+00 0. -1.
         -2   -1    0    0    0  501 -0.00000000000E+00 -0.00000000000E+00 -0.11962699209E+03  0.11962699209E+03  0.00000000000E+00 0.  1.
          6    2    1    2  502    0  0.12695622558E+03  0.20359060430E+03  0.10210412802E+03  0.31212516412E+03  0.17155129771E+03 0.  0.
         24    2    3    3    0    0  0.57607290389E+02  0.34491972270E+02  0.78958488094E+02  0.12783888461E+03  0.74833425154E+02 0.  0.
         -6    2    1    2    0  501 -0.12695622558E+03 -0.20359060430E+03  0.14759594540E+04  0.15051924021E+04  0.17199081395E+03 0.  0.
        -24    2    5    5    0    0 -0.20791926390E+02 -0.45779927472E+02  0.73153680174E+03  0.73684206315E+03  0.72539835756E+02 0.  0.
          5    1    3    3  502    0  0.69348935192E+02  0.16909863203E+03  0.23145639926E+02  0.18428627951E+03  0.47000000000E+01 0. -1.
        -13    1    4    4    0    0  0.32878671617E+02  0.25162227176E+01 -0.62193834334E+01  0.33556208879E+02  0.00000000000E+00 0.  1.
         14    1    4    4    0    0  0.24728618772E+02  0.31975749552E+02  0.85177871527E+02  0.94282675735E+02  0.00000000000E+00 0. -1.
         -5    1    5    5    0  501 -0.10616429919E+03 -0.15781067683E+03  0.74442265223E+03  0.76835033891E+03  0.47000000000E+01 0.  1.
         11    1    6    6    0    0 -0.42315876704E+02 -0.46893313979E+02  0.44011634726E+03  0.44462570263E+03  0.00000000000E+00 0. -1.
        -12    1    6    6    0    0  0.21523950314E+02  0.11133865068E+01  0.29142045448E+03  0.29221636052E+03  0.00000000000E+00 0.  1.
</event>
<event>
12    1  0.1081556E+000  0.3560882E+03  0.7818608E-02  0.1060144E+00
         -2   -1    0    0    0  501 -0.00000000000E+00  0.00000000000E+00  0.18174135386E+03  0.18174135386E+03  0.00000000000E+00 0.  1.
          2   -1    0    0  502    0  0.00000000000E+00 -0.00000000000E+00 -0.15003241695E+04  0.15003241695E+04  0.00000000000E+00 0. -1.
          6    2    1    2  502    0 -0.12756989117E+03  0.28478185081E+03 -0.45020806669E+02  0.35993161122E+03  0.17363499659E+03 0.  0.
         24    2    3    3    0    0 -0.59553372963E+02  0.60845069554E+02  0.17952802764E+02  0.11752349619E+03  0.78998369031E+02 0.  0.
         -6    2    1    2    0  501  0.12756989117E+03 -0.28478185081E+03 -0.12735620090E+04  0.13221339122E+04  0.16941992585E+03 0.  0.
        -24    2    5    5    0    0  0.48498329498E+02 -0.16837456938E+03 -0.94636553573E+03  0.96592808803E+03  0.81897865968E+02 0.  0.
          5    1    3    3  502    0 -0.68016518205E+02  0.22393678125E+03 -0.62973609432E+02  0.24240811503E+03  0.47000000000E+01 0. -1.
        -11    1    4    4    0    0 -0.16169851314E+01  0.42382994221E+02  0.34311437503E+02  0.54554629351E+02  0.00000000000E+00 0.  1.
         12    1    4    4    0    0 -0.57936387831E+02  0.18462075333E+02 -0.16358634740E+02  0.62968866840E+02  0.00000000000E+00 0. -1.
         -5    1    5    5    0  501  0.79071561670E+02 -0.11640728143E+03 -0.32719647327E+03  0.35620582415E+03  0.47000000000E+01 0.  1.
         13    1    6    6    0    0  0.56551887147E+02 -0.94990738664E+02 -0.70210544833E+03  0.71075552544E+03  0.00000000000E+00 0. -1.
        -14    1    6    6    0    0 -0.80535576488E+01 -0.73383830712E+02 -0.24426008740E+03  0.25517256259E+03  0.00000000000E+00 0.  1.
</event>
<event>
12    1  0.1081556E+000  0.2517978E+03  0.7818608E-02  0.1112174E+00
          1   -1    0    0  502    0  0.00000000000E+00  0.00000000000E+00  0.79952123290E+03  0.79952123290E+03  0.00000000000E+00 0. -1.
         -1   -1    0    0    0  501 -0.00000000000E+00 -0.00000000000E+00 -0.82627184260E+02  0.82627184260E+02  0.00000000000E+00 0.  1.
          6    2    1    2  502    0  0.17002996223E+03 -0.66948950849E+02  0.27166580777E+03  0.37125989026E+03  0.17504069506E+03 0.  0.
         24    2    3    3    0    0  0.34008613697E+02 -0.77497666747E+02  0.13268797986E+03  0.17645226896E+03  0.79792412331E+02 0.  0.
         -6    2    1    2    0  501 -0.17002996223E+03  0.66948950849E+02  0.44522824086E+03  0.51088852690E+03  0.17142505760E+03 0.  0.
        -24    2    5    5    0    0 -0.15623952436E+03 -0.74919179171E+01  0.32585033654E+03  0.36945022529E+03  0.76472932077E+02 0.  0.
          5    1    3    3  502    0  0.13602134854E+03  0.10548715898E+02  0.13897782792E+03  0.19480762130E+03  0.47000000000E+01 0. -1.
        -11    1    4    4    0    0  0.53281344801E+02 -0.64032384780E+02  0.12762169794E+03  0.15240192187E+03  0.00000000000E+00 0.  1.
         12    1    4    4    0    0 -0.19272731104E+02 -0.13465281968E+02  0.50662819169E+01  0.24050347090E+02  0.00000000000E+00 0. -1.
         -5    1    5    5    0  501 -0.13790437875E+02  0.74440868766E+02  0.11937790433E+03  0.14143830161E+03  0.47000000000E+01 0.  1.
         11    1    6    6    0    0 -0.37818754553E+02 -0.98298750003E+01  0.16578342308E+03  0.17032623993E+03  0.00000000000E+00 0. -1.
        -12    1    6    6    0    0 -0.11842076981E+03  0.23379570832E+01  0.16006691345E+03  0.19912398536E+03  0.00000000000E+00 0.  1.
</event>
<event>
12    1  0.1081556E+000  0.5818571E+03  0.7818608E-02  0.9943779E-01
         -2   -1    0    0    0  501 -0.00000000000E+00  0.00000000000E+00  0.27311568208E+03  0.27311568208E+03  0.00000000000E+00 0.  1.
          2   -1    0    0  502    0  0.00000000000E+00 -0.00000000000E+00 -0.21027612256E+04  0.21027612256E+04  0.00000000000E+00 0. -1.
          6    2    1    2  502    0  0.55492169187E+03 -0.36338884515E+02 -0.15384264047E+03  0.60197654454E+03  0.17160886782E+03 0.  0.
         24    2    3    3    0    0  0.22167945216E+03 -0.63897791385E+02 -0.95842806418E+02  0.26257124932E+03  0.80827657222E+02 0.  0.
         -6    2    1    2    0  501 -0.55492169187E+03  0.36338884515E+02 -0.16758029030E+04  0.17739003631E+04  0.17072940542E+03 0.  0.
        -24    2    5    5    0    0 -0.35933793717E+03  0.88216566531E+02 -0.11448575317E+04  0.12056844039E+04  0.77911476705E+02 0.  0.
          5    1    3    3  502    0  0.33324223971E+03  0.27558906870E+02 -0.57999834054E+02  0.33940529522E+03  0.47000000000E+01 0. -1.
        -13    1    4    4    0    0  0.12335120831E+03 -0.10377035255E+02 -0.84864104235E+02  0.15008370877E+03  0.00000000000E+00 0.  1.
         14    1    4    4    0    0  0.98328243851E+02 -0.53520756130E+02 -0.10978702183E+02  0.11248754054E+03  0.00000000000E+00 0. -1.
         -5    1    5    5    0  501 -0.19558375470E+03 -0.51877682016E+02 -0.53094537131E+03  0.56821595922E+03  0.47000000000E+01 0.  1.
         11    1    6    6    0    0 -0.13917456259E+03  0.34099747185E+01 -0.35422457726E+03  0.38059983964E+03  0.00000000000E+00 0. -1.
        -12    1    6    6    0    0 -0.22016337457E+03  0.84806591812E+02 -0.79063295442E+03  0.82508456424E+03  0.00000000000E+00 0.  1.
</event>
<event>
12    1  0.1081556E+000  0.2973417E+03  0.7818608E-02  0.1086577E+00
          2   -1    0    0  502    0  0.00000000000E+00  0.00000000000E+00  0.17011159445E+04  0.17011159445E+04  0.00000000000E+00 0. -1.
         -2   -1    0    0    0  501 -0.00000000000E+00 -0.00000000000E+00 -0.52287552012E+02  0.52287552012E+02  0.00000000000E+00 0.  1.
          6    2    1    2  502    0 -0.21309933062E+03  0.11343691456E+03  0.89093546443E+03  0.93907607772E+03  0.17268068706E+03 0.  0.
         24    2    3    3    0    0 -0.16183058944E+03  0.14436495661E+03  0.62505749878E+03  0.66649909736E+03  0.80584053163E+02 0.  0.
         -6    2    1    2    0  501  0.21309933062E+03 -0.11343691456E+03  0.75789292811E+03  0.81432741884E+03  0.17449411537E+03 0.  0.
        -24    2    5    5    0    0  0.15570504390E+03 -0.14843082880E+03  0.63060562792E+03  0.67030372297E+03  0.73265622429E+02 0.  0.
          5    1    3    3  502    0 -0.51268741183E+02 -0.30928042055E+02  0.26587796565E+03  0.27257698037E+03  0.47000000000E+01 0. -1.
        -11    1    4    4    0    0 -0.60165784339E+02  0.13215833352E+02  0.12012141074E+03  0.13499530797E+03  0.00000000000E+00 0.  1.
         12    1    4    4    0    0 -0.10166480510E+03  0.13114912326E+03  0.50493608804E+03  0.53150378938E+03  0.00000000000E+00 0. -1.
         -5    1    5    5    0  501  0.57394286720E+02  0.34993914239E+02  0.12728730019E+03  0.14402369587E+03  0.47000000000E+01 0.  1.
         13    1    6    6    0    0  0.10941483591E+03 -0.12481567980E+03  0.38492055536E+03  0.41918300798E+03  0.00000000000E+00 0. -1.
        -14    1    6    6    0    0  0.46290207993E+02 -0.23615148995E+02  0.24568507256E+03  0.25112071499E+03  0.00000000000E+00 0.  1.
</event>
<event>
12    1  0.1081556E+000  0.4274566E+03  0.7818608E-02  0.1034666E+00
         -2   -1    0    0    0  501 -0.00000000000E+00  0.00000000000E+00  0.45456235258E+03  0.45456235258E+03  0.00000000000E+00 0.  1.
          2   -1    0    0  502    0  0.00000000000E+00 -0.00000000000E+00 -0.66998654284E+03  0.66998654284E+03  0.00000000000E+00 0. -1.
          6    2    1    2  502    0 -0.88383705926E+02  0.38252542305E+03  0.24781752634E+03  0.49466775502E+03  0.17071989557E+03 0.  0.
         24    2    3    3    0    0 -0.10355244112E+03  0.17078017802E+03  0.12931837168E+03  0.25150057184E+03  0.81488153223E+02 0.  0.
         -6    2    1    2    0  501  0.88383705926E+02 -0.38252542305E+03 -0.46324171660E+03  0.62988114040E+03  0.16739170909E+03 0.  0.
        -24    2    5    5    0    0 -0.88908807127E+01 -0.10014935317E+03 -0.14330252554E+03  0.19218059662E+03  0.79302126006E+02 0.  0.
          5    1    3    3  502    0  0.15168735195E+02  0.21174524503E+03  0.11849915466E+03  0.24316718318E+03  0.47000000000E+01 0. -1.
        -13    1    4    4    0    0 -0.10643243092E+03  0.16585923233E+03  0.13837378660E+03  0.24079960987E+03  0.00000000000E+00 0.  1.
         14    1    4    4    0    0  0.28799897943E+01  0.49209456927E+01 -0.90554149153E+01  0.10700961967E+02  0.00000000000E+00 0. -1.
         -5    1    5    5    0  501  0.97274586638E+02 -0.28237606988E+03 -0.31993919106E+03  0.43770054378E+03  0.47000000000E+01 0.  1.
         11    1    6    6    0    0  0.13051356380E+02 -0.89154978289E+02 -0.67728428196E+02  0.11272128478E+03  0.00000000000E+00 0. -1.
        -12    1    6    6    0    0 -0.21942237092E+02 -0.10994374884E+02 -0.75574097349E+02  0.79459311839E+02  0.00000000000E+00 0.  1.
</event>
<event>
12    1  0.1081556E+000  0.3168380E+03  0.7818608E-02  0.1077114E+00
         -1   -1    0    0    0  501 -0.00000000000E+00  0.00000000000E+00  0.25764846728E+03  0.25764846728E+03  0.00000000000E+00 0.  1.
          1   -1    0    0  502    0  0.00000000000E+00 -0.00000000000E+00 -0.39138409454E+03  0.39138409454E+03  0.00000000000E+00 0. -1.
          6    2    1    2  502    0 -0.99896972722E+02 -0.24663458281E+03 -0.88642789452E+02  0.32909915959E+03  0.17216471800E+03 0.  0.
         24    2    3    3    0    0 -0.48627078067E+02 -0.15508520598E+03  0.15697903188E+02  0.18104862552E+03  0.78205925637E+02 0.  0.
         -6    2    1    2    0  501  0.99896972722E+02  0.24663458281E+03 -0.45092837802E+02  0.31993340223E+03  0.17180219801E+03 0.  0.
        -24    2    5    5    0    0 -0.51481121420E+01  0.10497618001E+03 -0.10360316182E+02  0.14012792123E+03  0.92097756371E+02 0.  0.
          5    1    3    3  502    0 -0.51269894655E+02 -0.91549376837E+02 -0.10434069264E+03  0.14805053407E+03  0.47000000000E+01 0. -1.
        -11    1    4    4    0    0 -0.15034611129E+02 -0.14419637419E+03  0.10538940734E+02  0.14536059691E+03  0.00000000000E+00 0.  1.
         12    1    4    4    0    0 -0.33592466938E+02 -0.10888831783E+02  0.51589624545E+01  0.35688028611E+02  0.00000000000E+00 0. -1.
         -5    1    5    5    0  501  0.10504508486E+03  0.14165840280E+03 -0.34732521620E+02  0.17980548100E+03  0.47000000000E+01 0.  1.
         13    1    6    6    0    0 -0.10997395974E+02  0.10957308080E+03 -0.34074027147E+02  0.11527463763E+03  0.00000000000E+00 0. -1.
        -14    1    6    6    0    0  0.58492838324E+01 -0.45969007858E+01  0.23713710966E+02  0.24853283605E+02  0.00000000000E+00 0.  1.
</event>
<event>
12    1  0.1081556E+000  0.8665174E+03  0.7818608E-02  0.9468432E-01
          2   -1    0    0  502    0  0.00000000000E+00  0.00000000000E+00  0.21050462801E+04  0.21050462801E+04  0.00000000000E+00 0. -1.
         -2   -1    0    0    0  501 -0.00000000000E+00 -0.00000000000E+00 -0.78653434595E+03  0.78653434595E+03  0.00000000000E+00 0.  1.
          6    2    1    2  502    0  0.71326845237E+03  0.46095857677E+03 -0.40954743760E+03  0.95844861956E+03  0.17222066672E+03 0.  0.
         24    2    3    3    0    0  0.55951083130E+03  0.36489657668E+03 -0.38546594163E+03  0.77549692553E+03  0.81299491602E+02 0.  0.
         -6    2    1    2    0  501 -0.71326845237E+03 -0.46095857677E+03  0.17280593717E+04  0.19331320065E+04  0.17197519462E+03 0.  0.
        -24    2    5    5    0    0 -0.57909972279E+03 -0.31633535298E+03  0.14111478748E+04  0.15598062616E+04  0.78947481662E+02 0.  0.
          5    1    3    3  502    0  0.15375762108E+03  0.96062000088E+02 -0.24081495961E+02  0.18295169403E+03  0.47000000000E+01 0. -1.
        -11    1    4    4    0    0  0.25124029350E+03  0.12211333494E+03 -0.18296369919E+03  0.33392973343E+03  0.00000000000E+00 0.  1.
         12    1    4    4    0    0  0.30827053780E+03  0.24278324174E+03 -0.20250224244E+03  0.44156719210E+03  0.00000000000E+00 0. -1.
         -5    1    5    5    0  501 -0.13416872959E+03 -0.14462322379E+03  0.31691149697E+03  0.37332574485E+03  0.47000000000E+01 0.  1.
         11    1    6    6    0    0 -0.50064854792E+03 -0.30219145175E+03  0.12494110915E+04  0.13794914707E+04  0.00000000000E+00 0. -1.
        -12    1    6    6    0    0 -0.78451174870E+02 -0.14143901228E+02  0.16173678323E+03  0.18031479093E+03  0.00000000000E+00 0.  1.
</event>
<event>
12    1  0.1081556E+000  0.2601574E+03  0.7818608E-02  0.1107049E+00
         -2   -1    0    0    0  501 -0.00000000000E+00  0.00000000000E+00  0.11112881271E+03  0.11112881271E+03  0.00000000000E+00 0.  1.
          2   -1    0    0  502    0  0.00000000000E+00 -0.00000000000E+00 -0.12149468366E+04  0.12149468366E+04  0.00000000000E+00 0. -1.
          6    2    1    2  502    0  0.16138192551E+03 -0.10922921278E+03 -0.83465236454E+02  0.27303021990E+03  0.17205786375E+03 0.  0.
         24    2    3    3    0    0  0.13387976594E+03 -0.52911663066E+02  0.47113783570E+01  0.16474706984E+03  0.79974771774E+02 0.  0.
         -6    2    1    2    0  501 -0.16138192551E+03  0.10922921278E+03 -0.10203527874E+04  0.10530454294E+04  0.17265491231E+03 0.  0.
        -24    2    5    5    0    0 -0.27131091086E+02  0.90103089188E+02 -0.52543617244E+03  0.53986549902E+03  0.80727460857E+02 0.  0.
          5    1    3    3  502    0  0.27502159573E+02 -0.56317549715E+02 -0.88176614811E+02  0.10828315006E+03  0.47000000000E+01 0. -1.
        -13    1    4    4    0    0  0.55910382239E+02 -0.34108262424E+02 -0.36070929298E+02  0.74769354338E+02  0.00000000000E+00 0.  1.
         14    1    4    4    0    0  0.77969383698E+02 -0.18803400642E+02  0.40782307655E+02  0.89977715505E+02  0.00000000000E+00 0. -1.
         -5    1    5    5    0  501 -0.13425083442E+03  0.19126123594E+02 -0.49491661495E+03  0.51317993034E+03  0.47000000000E+01 0.  1.
         11    1    6    6    0    0 -0.36333669684E+01 -0.12305360640E+02 -0.13265180117E+03  0.13327086557E+03  0.00000000000E+00 0. -1.
        -12    1    6    6    0    0 -0.23497724117E+02  0.10240844983E+03 -0.39278437127E+03  0.40659463345E+03  0.00000000000E+00 0.  1.
</event>
<event>
12    1  0.1449053E+000  0.1024652E+04  0.7818608E-02  0.9281913E-01
         -2   -1    0    0    0  501 -0.00000000000E+00  0.00000000000E+00  0.23454132999E+04  0.23454132999E+04  0.00000000000E+00 0.  1.
          2   -1    0    0  502    0  0.00000000000E+00 -0.00000000000E+00 -0.13637261168E+04  0.13637261168E+04  0.00000000000E+00 0. -1.
          6    2    1    2  502    0 -0.13323310109E+03 -0.10013229160E+04  0.20108889681E+04  0.22569977539E+04  0.17310626119E+03 0.  0.
         24    2    3    3    0    0 -0.10666452825E+03 -0.83436229027E+03  0.17842580147E+04  0.19742161798E+04  0.80094372761E+02 0.  0.
         -6    2    1    2    0  501  0.13323310109E+03  0.10013229160E+04 -0.10292017850E+04  0.14521416628E+04  0.17047126858E+03 0.  0.
        -24    2    5    5    0    0  0.71885705615E+02  0.28219902157E+03 -0.29629621138E+03  0.42351376691E+03  0.82271644178E+02 0.  0.
          5    1    3    3  502    0 -0.26568572838E+02 -0.16696062570E+03  0.22663095346E+03  0.28278157412E+03  0.47000000000E+01 0. -1.
        -11    1    4    4    0    0 -0.82170511042E+02 -0.50832345986E+03  0.10077997401E+04  0.11317265787E+04  0.00000000000E+00 0.  1.
         12    1    4    4    0    0 -0.24494017207E+02 -0.32603883042E+03  0.77645827454E+03  0.84248960107E+03  0.00000000000E+00 0. -1.
         -5    1    5    5    0  501  0.61347395472E+02  0.71912389441E+03 -0.73290557360E+03  0.10286278959E+04  0.47000000000E+01 0.  1.
         11    1    6    6    0    0  0.32647511159E+02  0.24869712740E+03 -0.24007335008E+03  0.34720503248E+03  0.00000000000E+00 0. -1.
        -12    1    6    6    0    0  0.39238194456E+02  0.33501894173E+02 -0.56222861298E+02  0.76308734427E+02  0.00000000000E+00 0.  1.
</event>
<event>
12    1  0.1081556E+000  0.4560887E+03  0.7818608E-02  0.1025922E+00
          2   -1    0    0  502    0  0.00000000000E+00  0.00000000000E+00  0.47406281319E+03  0.47406281319E+03  0.00000000000E+00 0. -1.
         -2   -1    0    0    0  501 -0.00000000000E+00 -0.00000000000E+00 -0.97244181502E+03  0.97244181502E+03  0.00000000000E+00 0.  1.
          6    2    1    2  502    0 -0.33329557604E+03  0.25985120577E+03 -0.78489846051E+03  0.90765027798E+03  0.17074789503E+03 0.  0.
         24    2    3    3    0    0 -0.34857836158E+03  0.24947062593E+03 -0.76193732187E+03  0.87780695612E+03  0.79082883102E+02 0.  0.
         -6    2    1    2    0  501  0.33329557604E+03 -0.25985120577E+03  0.28651945869E+03  0.53885435022E+03  0.17222665414E+03 0.  0.
        -24    2    5    5    0    0  0.89133992591E+02 -0.12863367979E+03  0.14630605525E+03  0.22818602795E+03  0.78561500358E+02 0.  0.
          5    1    3    3  502    0  0.15282785540E+02  0.10380579839E+02 -0.22961138646E+02  0.29843321859E+02  0.47000000000E+01 0. -1.
        -13    1    4    4    0    0 -0.19248738665E+03  0.98372681740E+02 -0.33333791230E+03  0.39729427672E+03  0.00000000000E+00 0.  1.
         14    1    4    4    0    0 -0.15609097493E+03  0.15109794419E+03 -0.42859940956E+03  0.48051267941E+03  0.00000000000E+00 0. -1.
         -5    1    5    5    0  501  0.24416158345E+03 -0.13121752598E+03  0.14021340344E+03  0.31066832227E+03  0.47000000000E+01 0.  1.
         11    1    6    6    0    0  0.50604394503E+02 -0.98323145575E+02  0.52650173455E+02  0.12247565662E+03  0.00000000000E+00 0. -1.
        -12    1    6    6    0    0  0.38529598088E+02 -0.30310534213E+02  0.93655881794E+02  0.10571037134E+03  0.00000000000E+00 0.  1.
</event>
<event>
12    1  0.1081556E+000  0.4174151E+03  0.7818608E-02  0.1037911E+00
          1   -1    0    0  502    0  0.00000000000E+00  0.00000000000E+00  0.85013885831E+03  0.85013885831E+03  0.00000000000E+00 0. -1.
         -1   -1    0    0    0  501 -0.00000000000E+00 -0.00000000000E+00 -0.21495508699E+03  0.21495508699E+03  0.00000000000E+00 0.  1.
          6    2    1    2  502    0 -0.22597226502E+03 -0.30604218189E+03  0.20262118653E+03  0.46390294193E+03  0.17153807928E+03 0.  0.
         24    2    3    3    0    0 -0.10263217847E+03 -0.23751244239E+03  0.93102173971E+02  0.28522556155E+03  0.75763327651E+02 0.  0.
         -6    2    1    2    0  501  0.22597226502E+03  0.30604218189E+03  0.43256258479E+03  0.60119100337E+03  0.17203183173E+03 0.  0.
        -24    2    5    5    0    0  0.17659658801E+03  0.12579857719E+03  0.24072780884E+03  0.33333211183E+03  0.78414169085E+02 0.  0.
          5    1    3    3  502    0 -0.12334008655E+03 -0.68529739500E+02  0.10951901256E+03  0.17867738038E+03  0.47000000000E+01 0. -1.
        -11    1    4    4    0    0 -0.66894803788E+02 -0.18283567460E+03  0.10117473139E+03  0.21940857994E+03  0.00000000000E+00 0.  1.
         12    1    4    4    0    0 -0.35737374685E+02 -0.54676767782E+02 -0.80725574156E+01  0.65816981606E+02  0.00000000000E+00 0. -1.
         -5    1    5    5    0  501  0.49375677015E+02  0.18024360469E+03  0.19183477595E+03  0.26785889154E+03  0.47000000000E+01 0.  1.
         13    1    6    6    0    0  0.10716438105E+03  0.11563731436E+03  0.18917483737E+03  0.24625862855E+03  0.00000000000E+00 0. -1.
        -14    1    6    6    0    0  0.69432206957E+02  0.10161262833E+02  0.51552971464E+02  0.87073483289E+02  0.00000000000E+00 0.  1.
</event>
<event>
12    1  0.1081556E+000  0.9330970E+03  0.7818608E-02  0.9385129E-01
         -2   -1    0    0    0  501 -0.00000000000E+00  0.00000000000E+00  0.85952239049E+03  0.85952239049E+03  0.00000000000E+00 0.  1.
          2   -1    0    0  502    0  0.00000000000E+00 -0.00000000000E+00 -0.28694877191E+04  0.28694877191E+04  0.00000000000E+00 0. -1.
          6    2    1    2  502    0  0.46528247705E+03  0.78909033695E+03  0.49468227670E+03  0.10562501671E+04  0.17833260299E+03 0.  0.
         24    2    3    3    0    0  0.27007963761E+03  0.59149660125E+03  0.35392796412E+03  0.74483196046E+03  0.81843787759E+02 0.  0.
         -6    2    1    2    0  501 -0.46528247705E+03 -0.78909033695E+03 -0.25046476053E+04  0.26727599425E+04  0.17673352842E+03 0.  0.
        -24    2    5    5    0    0 -0.26356974031E+03 -0.33183655910E+03 -0.12427485317E+04  0.13154904749E+04  0.80664531802E+02 0.  0.
          5    1    3    3  502    0  0.19520283944E+03  0.19759373570E+03  0.14075431258E+03  0.31141820663E+03  0.47000000000E+01 0. -1.
        -11    1    4    4    0    0  0.14528586086E+03  0.29176107579E+03  0.22210445638E+03  0.39441462480E+03  0.00000000000E+00 0.  1.
         12    1    4    4    0    0  0.12479377675E+03  0.29973552546E+03  0.13182350774E+03  0.35041733566E+03  0.00000000000E+00 0. -1.
         -5    1    5    5    0  501 -0.20171273674E+03 -0.45725377785E+03 -0.12618990736E+04  0.13572694675E+04  0.47000000000E+01 0.  1.
         11    1    6    6    0    0 -0.25088378932E+03 -0.28106523377E+03 -0.11308988017E+04  0.11920035407E+04  0.00000000000E+00 0. -1.
        -12    1    6    6    0    0 -0.12685950995E+02 -0.50771325333E+02 -0.11184973002E+03  0.12348693426E+03  0.00000000000E+00 0.  1.
</event>
<event>
12    1  0.1081556E+000  0.8401615E+03  0.7818608E-02  0.9503638E-01
         -2   -1    0    0    0  501 -0.00000000000E+00  0.00000000000E+00  0.91742160829E+03  0.91742160829E+03  0.00000000000E+00 0.  1.
          2   -1    0    0  502    0  0.00000000000E+00 -0.00000000000E+00 -0.99334531569E+03  0.99334531569E+03  0.00000000000E+00 0. -1.
          6    2    1    2  502    0  0.79971657515E+03 -0.19253037196E+03  0.41565215342E+03  0.93747914367E+03  0.17171455231E+03 0.  0.
         24    2    3    3    0    0  0.77065730995E+03 -0.16116958798E+03  0.36590883126E+03  0.87171876225E+03  0.78204873186E+02 0.  0.
         -6    2    1    2    0  501 -0.79971657515E+03  0.19253037196E+03 -0.49157586081E+03  0.97328778031E+03  0.17037526718E+03 0.  0.
        -24    2    5    5    0    0 -0.79501149587E+03  0.20219314789E+03 -0.47027910646E+03  0.94897422945E+03  0.80400886543E+02 0.  0.
          5    1    3    3  502    0  0.29059265203E+02 -0.31360783976E+02  0.49743322156E+02  0.65760381423E+02  0.47000000000E+01 0. -1.
        -11    1    4    4    0    0  0.32056918968E+03 -0.10339300863E+03  0.17261340863E+03  0.37848396062E+03  0.00000000000E+00 0.  1.
         12    1    4    4    0    0  0.45008812027E+03 -0.57776579357E+02  0.19329542263E+03  0.49323480163E+03  0.00000000000E+00 0. -1.
         -5    1    5    5    0  501 -0.47050792793E+01 -0.96627759282E+01 -0.21296754352E+02  0.24313550863E+02  0.47000000000E+01 0.  1.
         11    1    6    6    0    0 -0.70815433752E+03  0.19727135765E+03 -0.44064715876E+03  0.85706970126E+03  0.00000000000E+00 0. -1.
        -12    1    6    6    0    0 -0.86857158355E+02  0.49217902383E+01 -0.29631947701E+02  0.91904528187E+02  0.00000000000E+00 0.  1.
</event>
<event>
12    1  0.1081556E+000  0.4163470E+03  0.7818608E-02  0.1038262E+00
          1   -1    0    0  502    0  0.00000000000E+00  0.00000000000E+00  0.98452713767E+03  0.98452713767E+03  0.00000000000E+00 0. -1.
         -1   -1    0    0    0  501 -0.00000000000E+00 -0.00000000000E+00 -0.18755003151E+03  0.18755003151E+03  0.00000000000E+00 0.  1.
          6    2    1    2  502    0  0.32574776044E+02  0.37788916275E+03  0.25356766437E+03  0.48755618386E+03  0.17191025755E+03 0.  0.
         24    2    3    3    0    0 -0.34016350966E+02  0.13512732751E+03  0.66385859248E+02  0.17382571831E+03  0.79948678950E+02 0.  0.
         -6    2    1    2    0  501 -0.32574776044E+02 -0.37788916275E+03  0.54340944179E+03  0.68452098532E+03  0.17150458466E+03 0.  0.
        -24    2    5    5    0    0 -0.21087246903E+02 -0.18633158811E+03  0.17126586542E+03  0.26578574777E+03  0.78396009793E+02 0.  0.
          5    1    3    3  502    0  0.66591127009E+02  0.24276183524E+03  0.18718180512E+03  0.31373046555E+03  0.47000000000E+01 0. -1.
        -11    1    4    4    0    0 -0.36576860275E+02  0.81064889580E+02  0.78203054342E+02  0.11842761814E+03  0.00000000000E+00 0.  1.
         12    1    4    4    0    0  0.25605093091E+01  0.54062437925E+02 -0.11817195094E+02  0.55398100168E+02  0.00000000000E+00 0. -1.
         -5    1    5    5    0  501 -0.11487529140E+02 -0.19155757463E+03  0.37214357638E+03  0.41873523755E+03  0.47000000000E+01 0.  1.
         13    1    6    6    0    0  0.97618165817E+01 -0.93883343771E+02  0.12828794837E+03  0.15927075374E+03  0.00000000000E+00 0. -1.
        -14    1    6    6    0    0 -0.30849063485E+02 -0.92448244344E+02  0.42977917049E+02  0.10651499403E+03  0.00000000000E+00 0.  1.
</event>
<event>
12    1  0.1081556E+000  0.4550041E+03  0.7818608E-02  0.1026240E+00
         -2   -1    0    0    0  501 -0.00000000000E+00  0.00000000000E+00  0.88648320711E+03  0.88648320711E+03  0.00000000000E+00 0.  1.
          2   -1    0    0  502    0  0.00000000000E+00 -0.00000000000E+00 -0.56313768846E+03  0.56313768846E+03  0.00000000000E+00 0. -1.
          6    2    1    2  502    0 -0.22724633376E+03  0.35295360992E+03  0.71637821711E+03  0.84938314254E+03  0.17898834016E+03 0.  0.
         24    2    3    3    0    0 -0.20075251370E+03  0.18660101143E+03  0.41565739719E+03  0.50466556095E+03  0.82430257437E+02 0.  0.
         -6    2    1    2    0  501  0.22724633376E+03 -0.35295360992E+03 -0.39303269846E+03  0.60023775303E+03  0.17202764642E+03 0.  0.
        -24    2    5    5    0    0  0.10480011170E+03 -0.91280166552E+02 -0.10125179849E+03  0.18959891920E+03  0.79879229120E+02 0.  0.
          5    1    3    3  502    0 -0.26493820059E+02  0.16635259849E+03  0.30072081992E+03  0.34471758159E+03  0.47000000000E+01 0. -1.
        -11    1    4    4    0    0 -0.97325006564E+02  0.82323667656E+02  0.26606677653E+03  0.29502690170E+03  0.00000000000E+00 0.  1.
         12    1    4    4    0    0 -0.10342750714E+03  0.10427734378E+03  0.14959062067E+03  0.20963865925E+03  0.00000000000E+00 0. -1.
         -5    1    5    5    0  501  0.12244622206E+03 -0.26167344337E+03 -0.29178089997E+03  0.41063883383E+03  0.47000000000E+01 0.  1.
         11    1    6    6    0    0  0.11488644941E+03 -0.70741885058E+02 -0.97381656601E+02  0.16639260080E+03  0.00000000000E+00 0. -1.
        -12    1    6    6    0    0 -0.10086337711E+02 -0.20538281494E+02 -0.38701418930E+01  0.23206318395E+02  0.00000000000E+00 0.  1.
</event>
<event>
12    1  0.1081556E+000  0.5571943E+03  0.7818608E-02  0.9998423E-01
         -1   -1    0    0    0  501 -0.00000000000E+00  0.00000000000E+00  0.14002217937E+03  0.14002217937E+03  0.00000000000E+00 0.  1.
          1   -1    0    0  502    0  0.00000000000E+00 -0.00000000000E+00 -0.22251533899E+04  0.22251533899E+04  0.00000000000E+00 0. -1.
          6    2    1    2  502    0 -0.15951840270E+03  0.50556408185E+03 -0.97253423242E+03  0.11209502127E+04  0.17223641996E+03 0.  0.
         24    2    3    3    0    0 -0.11317438012E+03  0.46710497450E+03 -0.78314642007E+03  0.92216212239E+03  0.77904859702E+02 0.  0.
         -6    2    1    2    0  501  0.15951840270E+03 -0.50556408185E+03 -0.11125969781E+04  0.12442253566E+04  0.17083190770E+03 0.  0.
        -24    2    5    5    0    0  0.15789161187E+03 -0.51577683528E+03 -0.10976913207E+04  0.12254846148E+04  0.77011691604E+02 0.  0.
          5    1    3    3  502    0 -0.46344022579E+02  0.38459107343E+02 -0.18938781235E+03  0.19878809027E+03  0.47000000000E+01 0. -1.
        -11    1    4    4    0    0 -0.63213499179E+02  0.20581956156E+03 -0.42039415023E+03  0.47232285563E+03  0.00000000000E+00 0.  1.
         12    1    4    4    0    0 -0.49960880942E+02  0.26128541294E+03 -0.36275226984E+03  0.44983926676E+03  0.00000000000E+00 0. -1.
         -5    1    5    5    0  501  0.16267908317E+01  0.10212753436E+02 -0.14905657417E+02  0.18740741826E+02  0.47000000000E+01 0.  1.
         11    1    6    6    0    0  0.52201013527E+02 -0.19212566105E+03 -0.49024084823E+03  0.52912503694E+03  0.00000000000E+00 0. -1.
        -12    1    6    6    0    0  0.10569059834E+03 -0.32365117423E+03 -0.60745047246E+03  0.69635957784E+03  0.00000000000E+00 0.  1.
</event>
<event>
12    1  0.1081556E+000  0.3455960E+03  0.7818608E-02  0.1064437E+00
         -2   -1    0    0    0  501 -0.00000000000E+00  0.00000000000E+00  0.43341271079E+03  0.43341271079E+03  0.00000000000E+00 0.  1.
          2   -1    0    0  502    0  0.00000000000E+00 -0.00000000000E+00 -0.68601150119E+03  0.68601150119E+03  0.00000000000E+00 0. -1.
          6    2    1    2  502    0 -0.12117663920E+03 -0.27428398433E+03  0.30666646856E+03  0.46188564140E+03  0.17140169439E+03 0.  0.
         24    2    3    3    0    0 -0.13110051705E+03 -0.13479627089E+03  0.19970681081E+03  0.28576703381E+03  0.80141169905E+02 0.  0.
         -6    2    1    2    0  501  0.12117663920E+03  0.27428398433E+03 -0.55926525896E+03  0.65753857059E+03  0.17223199468E+03 0.  0.
        -24    2    5    5    0    0 -0.12368891978E+02  0.82757919816E+02 -0.17719526255E+03  0.20974820174E+03  0.74794948223E+02 0.  0.
          5    1    3    3  502    0  0.99238778442E+01 -0.13948771344E+03  0.10695965775E+03  0.17611860759E+03  0.47000000000E+01 0. -1.
        -13    1    4    4    0    0 -0.11279816026E+03 -0.11116210216E+03  0.11437560508E+03  0.19535152150E+03  0.00000000000E+00 0.  1.
         14    1    4    4    0    0 -0.18302356785E+02 -0.23634168731E+02  0.85331205725E+02  0.90415512308E+02  0.00000000000E+00 0. -1.
         -5    1    5    5    0  501  0.13354553118E+03  0.19152606452E+03 -0.38206999640E+03  0.44779036885E+03  0.47000000000E+01 0.  1.
         13    1    6    6    0    0 -0.11120617030E+01  0.71966637904E+02 -0.18004282105E+03  0.19389649575E+03  0.00000000000E+00 0. -1.
        -14    1    6    6    0    0 -0.11256830275E+02  0.10791281912E+02  0.28475585017E+01  0.15851705983E+02  0.00000000000E+00 0.  1.
</event>
<event>
12    1  0.1081556E+000  0.2832031E+03  0.7818608E-02  0.1093952E+00
         -2   -1    0    0    0  501 -0.00000000000E+00  0.00000000000E+00  0.10607359984E+04  0.10607359984E+04  0.00000000000E+00 0.  1.
          2   -1    0    0  502    0  0.00000000000E+00 -0.00000000000E+00 -0.11334472550E+04  0.11334472550E+04  0.00000000000E+00 0. -1.
          6    2    1    2  502    0 -0.22443163146E+03 -0.86042195039E+01  0.10235132119E+04  0.10619097350E+04  0.17213192754E+03 0.  0.
         24    2    3    3    0    0 -0.19388662156E+03 -0.12949311660E+02  0.10024277169E+04  0.10242458855E+04  0.80365413992E+02 0.  0.
         -6    2    1    2    0  501  0.22443163146E+03  0.86042195039E+01 -0.10962244686E+04  0.11322735184E+04  0.17289200428E+03 0.  0.
        -24    2    5    5    0    0  0.54943584867E+02  0.44003638892E+02 -0.50788773903E+03  0.51896974850E+03  0.80153144930E+02 0.  0.
          5    1    3    3  502    0 -0.30545009900E+02  0.43450921564E+01  0.21085495083E+02  0.37663849491E+02  0.47000000000E+01 0. -1.
        -13    1    4    4    0    0 -0.12004865961E+03 -0.31632820016E+02  0.76186778568E+03  0.77191634186E+03  0.00000000000E+00 0.  1.
         14    1    4    4    0    0 -0.73837961947E+02  0.18683508356E+02  0.24055993118E+03  0.25232954365E+03  0.00000000000E+00 0. -1.
         -5    1    5    5    0  501  0.16948804659E+03 -0.35399419388E+02 -0.58833672954E+03  0.61330376989E+03  0.47000000000E+01 0.  1.
         13    1    6    6    0    0  0.33467127940E+02  0.38984027411E+01 -0.40589206089E+03  0.40728811828E+03  0.00000000000E+00 0. -1.
        -14    1    6    6    0    0  0.21476456927E+02  0.40105236151E+02 -0.10199567814E+03  0.11168163022E+03  0.00000000000E+00 0.  1.
</event>
<event>
12    1  0.1081556E+000  0.4622030E+03  0.7818608E-02  0.1024144E+00
          2   -1    0    0  502    0  0.00000000000E+00  0.00000000000E+00  0.15238572924E+04  0.15238572924E+04  0.00000000000E+00 0. -1.
         -2   -1    0    0    0  501 -0.00000000000E+00 -0.00000000000E+00 -0.17644134969E+03  0.17644134969E+03  0.00000000000E+00 0.  1.
          6    2    1    2  502    0 -0.16303931491E+03 -0.39703313223E+03  0.28838268870E+03  0.54480405089E+03  0.17155101990E+03 0.  0.
         24    2    3    3    0    0 -0.10891588820E+03 -0.36728937395E+03  0.28127203281E+03  0.48246074409E+03  0.83007579343E+02 0.  0.
         -6    2    1    2    0  501  0.16303931491E+03  0.39703313223E+03  0.10590332540E+04  0.11554945912E+04  0.17146192261E+03 0.  0.
        -24    2    5    5    0    0  0.13374124643E+03  0.19044171672E+03  0.47357434479E+03  0.53394602981E+03  0.81675787395E+02 0.  0.
          5    1    3    3  502    0 -0.54123426708E+02 -0.29743758281E+02  0.71106558867E+01  0.62343306797E+02  0.47000000000E+01 0. -1.
        -13    1    4    4    0    0 -0.65130077983E+02 -0.89992442647E+02  0.86146328533E+02  0.14057651550E+03  0.00000000000E+00 0.  1.
         14    1    4    4    0    0 -0.43785810217E+02 -0.27729693130E+03  0.19512570428E+03  0.34188422858E+03  0.00000000000E+00 0. -1.
         -5    1    5    5    0  501  0.29298068475E+02  0.20659141551E+03  0.58545890922E+03  0.62154856139E+03  0.47000000000E+01 0.  1.
         11    1    6    6    0    0  0.54432264083E+02  0.84779995647E+02  0.29558087048E+03  0.31227963435E+03  0.00000000000E+00 0. -1.
        -12    1    6    6    0    0  0.79308982350E+02  0.10566172107E+03  0.17799347430E+03  0.22166639546E+03  0.00000000000E+00 0.  1.
</event>
<event>
12    1  0.1081556E+000  0.3473135E+03  0.7818608E-02  0.1063723E+00
          1   -1    0    0  502    0  0.00000000000E+00  0.00000000000E+00  0.29884611346E+03  0.29884611346E+03  0.00000000000E+00 0. -1.
         -1   -1    0    0    0  501 -0.00000000000E+00 -0.00000000000E+00 -0.66089419217E+03  0.66089419217E+03  0.00000000000E+00 0.  1.
          6    2    1    2  502    0  0.68418552244E+02 -0.29356668087E+03 -0.48038277293E+03  0.59272711541E+03  0.17232333100E+03 0.  0.
         24    2    3    3    0    0  0.52048620193E+00 -0.18277004258E+03 -0.37763619104E+03  0.42700146103E+03  0.79473238079E+02 0.  0.
         -6    2    1    2    0  501 -0.68418552244E+02  0.29356668087E+03  0.11833469422E+03  0.36701319022E+03  0.17272257389E+03 0.  0.
        -24    2    5    5    0    0 -0.56010557975E+02  0.12214320650E+03  0.12024639947E+03  0.19506636558E+03  0.74401242573E+02 0.  0.
          5    1    3    3  502    0  0.67898066042E+02 -0.11079663829E+03 -0.10274658189E+03  0.16572565438E+03  0.47000000000E+01 0. -1.
        -11    1    4    4    0    0  0.15036727805E+02 -0.14476110948E+03 -0.21695861065E+03  0.26125259948E+03  0.00000000000E+00 0.  1.
         12    1    4    4    0    0 -0.14516241603E+02 -0.38008933098E+02 -0.16067758039E+03  0.16574886155E+03  0.00000000000E+00 0. -1.
         -5    1    5    5    0  501 -0.12407994270E+02  0.17142347437E+03 -0.19117052480E+01  0.17194682464E+03  0.47000000000E+01 0.  1.
         11    1    6    6    0    0 -0.65096233169E+02  0.53446301669E+02  0.62937855141E+02  0.10514371282E+03  0.00000000000E+00 0. -1.
        -12    1    6    6    0    0  0.90856751948E+01  0.68696904829E+02  0.57308544327E+02  0.89922652762E+02  0.00000000000E+00 0.  1.
</event>
<event>
12    1  0.1081556E+000  0.1805909E+03  0.7818608E-02  0.1167232E+00
          1   -1    0    0  502    0  0.00000000000E+00  0.00000000000E+00  0.37062826569E+04  0.37062826569E+04  0.00000000000E+00 0. -1.
         -1   -1    0    0    0  501 -0.00000000000E+00 -0.00000000000E+00 -0.91166322749E+01  0.91166322749E+01  0.00000000000E+00 0.  1.
          6    2    1    2  502    0 -0.45236266193E+02 -0.15419828368E+02  0.15160611395E+04  0.15269445847E+04  0.17559696783E+03 0.  0.
         24    2    3    3    0    0 -0.23569954219E+01 -0.73722115543E+02  0.10008733243E+04  0.10066769963E+04  0.78807727523E+02 0.  0.
         -6    2    1    2    0  501  0.45236266193E+02  0.15419828368E+02  0.21811048851E+04  0.21884547044E+04  0.17271763895E+03 0.  0.
        -24    2    5    5    0    0 -0.49659947495E+02 -0.19492866819E+01  0.80336797290E+03  0.80733629290E+03  0.62624913944E+02 0.  0.
          5    1    3    3  502    0 -0.42879270771E+02  0.58302287175E+02  0.51518781527E+03  0.52026758841E+03  0.47000000000E+01 0. -1.
        -11    1    4    4    0    0 -0.37619906249E+02 -0.18126829628E+02  0.42841434865E+03  0.43044476234E+03  0.00000000000E+00 0.  1.
         12    1    4    4    0    0  0.35262910827E+02 -0.55595285915E+02  0.57245897562E+03  0.57623223397E+03  0.00000000000E+00 0. -1.
         -5    1    5    5    0  501  0.94896213688E+02  0.17369115050E+02  0.13777369122E+04  0.13811184115E+04  0.47000000000E+01 0.  1.
         13    1    6    6    0    0 -0.29933032964E+01  0.25491113261E+02  0.23611737530E+03  0.23750825593E+03  0.00000000000E+00 0. -1.
        -14    1    6    6    0    0 -0.46666644198E+02 -0.27440399942E+02  0.56725059761E+03  0.56982803697E+03  0.00000000000E+00 0.  1.
</event>
<event>
12    1  0.1081556E+000  0.5648096E+03  0.7818608E-02  0.9981230E-01
          2   -1    0    0  502    0  0.00000000000E+00  0.00000000000E+00  0.10475468257E+04  0.10475468257E+04  0.00000000000E+00 0. -1.
         -2   -1    0    0    0  501 -0.00000000000E+00 -0.00000000000E+00 -0.30496251512E+03  0.30496251512E+03  0.00000000000E+00 0.  1.
          6    2    1    2  502    0 -0.49173732487E+03 -0.21731266700E+03  0.34577433835E+03  0.66216307565E+03  0.17282839400E+03 0.  0.
         24    2    3    3    0    0 -0.27183190617E+03 -0.62279438095E+02  0.22664977511E+03  0.36787334289E+03  0.78672499821E+02 0.  0.
         -6    2    1    2    0  501  0.49173732487E+03  0.21731266700E+03  0.39680997224E+03  0.69034626518E+03  0.17346302161E+03 0.  0.
        -24    2    5    5    0    0  0.16223872303E+03  0.11836010605E+03  0.10782440301E+03  0.24101822559E+03  0.78314527565E+02 0.  0.
          5    1    3    3  502    0 -0.21990541871E+03 -0.15503322891E+03  0.11912456324E+03  0.29428973276E+03  0.47000000000E+01 0. -1.
        -11    1    4    4    0    0 -0.22728807563E+03 -0.56851869685E+02  0.14739930007E+03  0.27680057455E+03  0.00000000000E+00 0.  1.
         12    1    4    4    0    0 -0.44543830536E+02 -0.54275684100E+01  0.79250475044E+02  0.91072768336E+02  0.00000000000E+00 0. -1.
         -5    1    5    5    0  501  0.32949860184E+03  0.98952560946E+02  0.28898556924E+03  0.44932803959E+03  0.47000000000E+01 0.  1.
         11    1    6    6    0    0  0.48153218301E+02  0.26565913811E+02  0.71402878606E+02  0.90126862159E+02  0.00000000000E+00 0. -1.
        -12    1    6    6    0    0  0.11408550473E+03  0.91794192243E+02  0.36421524402E+02  0.15089136343E+03  0.00000000000E+00 0.  1.
</event>
<event>
12    1  0.1081556E+000  0.2576147E+03  0.7818608E-02  0.1108585E+00
          1   -1    0    0  502    0  0.00000000000E+00  0.00000000000E+00  0.10099987641E+04  0.10099987641E+04  0.00000000000E+00 0. -1.
         -1   -1    0    0    0  501 -0.00000000000E+00 -0.00000000000E+00 -0.11554324277E+03  0.11554324277E+03  0.00000000000E+00 0.  1.
          6    2    1    2  502    0  0.25346636082E+02 -0.19020631690E+03  0.77634046462E+02  0.26905973818E+03  0.17188717982E+03 0.  0.
         24    2    3    3    0    0 -0.53310676551E+02 -0.11610395559E+03  0.60167860995E+02  0.15949108200E+03  0.74128786592E+02 0.  0.
         -6    2    1    2    0  501 -0.25346636082E+02  0.19020631690E+03  0.81682147490E+03  0.85648226872E+03  0.17188269204E+03 0.  0.
        -24    2    5    5    0    0 -0.76775389686E+02  0.81924201460E+02  0.45065852968E+03  0.47116768857E+03  0.79371563764E+02 0.  0.
          5    1    3    3  502    0  0.78657312633E+02 -0.74102361314E+02  0.17466185468E+02  0.10956865618E+03  0.47000000000E+01 0. -1.
        -11    1    4    4    0    0 -0.34077744463E+02 -0.87946594327E+02  0.47684663898E+01  0.94438521765E+02  0.00000000000E+00 0.  1.
         12    1    4    4    0    0 -0.19232932088E+02 -0.28157361262E+02  0.55399394605E+02  0.65052560230E+02  0.00000000000E+00 0. -1.
         -5    1    5    5    0  501  0.51428753605E+02  0.10828211544E+03  0.36616294522E+03  0.38531458015E+03  0.47000000000E+01 0.  1.
         13    1    6    6    0    0  0.16551312654E+02  0.15644091892E+02  0.64636442483E+02  0.68531403448E+02  0.00000000000E+00 0. -1.
        -14    1    6    6    0    0 -0.93326702341E+02  0.66280109568E+02  0.38602208720E+03  0.40263628512E+03  0.00000000000E+00 0.  1.
</event>
<event>
12    1  0.1081556E+000  0.3013536E+03  0.7818608E-02  0.1084566E+00
          2   -1    0    0  502    0  0.00000000000E+00  0.00000000000E+00  0.12411229914E+04  0.12411229914E+04  0.00000000000E+00 0. -1.
         -2   -1    0    0    0  501 -0.00000000000E+00 -0.00000000000E+00 -0.13957982729E+03  0.13957982729E+03  0.00000000000E+00 0.  1.
          6    2    1    2  502    0  0.24539739934E+03 -0.36402891395E+02  0.10271497272E+04  0.10705020391E+04  0.17144386695E+03 0.  0.
         24    2    3    3    0    0  0.95507586793E+02 -0.49269003976E+01  0.26016215398E+03  0.28835772927E+03  0.79497548298E+02 0.  0.
         -6    2    1    2    0  501 -0.24539739934E+03  0.36402891395E+02  0.74393436963E+02  0.31020077964E+03  0.17071931971E+03 0.  0.
        -24    2    5    5    0    0 -0.17329881306E+03  0.19761264145E+02  0.11758955616E+03  0.22439201194E+03  0.78112003798E+02 0.  0.
          5    1    3    3  502    0  0.14988981254E+03 -0.31475990998E+02  0.76698757319E+03  0.78214430979E+03  0.47000000000E+01 0. -1.
        -13    1    4    4    0    0  0.55843327241E+02 -0.17095860758E+01  0.23436690657E+03  0.24093411294E+03  0.00000000000E+00 0.  1.
         14    1    4    4    0    0  0.39664259552E+02 -0.32173143219E+01  0.25795247407E+02  0.47423616332E+02  0.00000000000E+00 0. -1.
         -5    1    5    5    0  501 -0.72098586277E+02  0.16641627250E+02 -0.43196119195E+02  0.85808767700E+02  0.47000000000E+01 0.  1.
         11    1    6    6    0    0 -0.60627760033E+02  0.37933754342E+02  0.20082432829E+02  0.74283235750E+02  0.00000000000E+00 0. -1.
        -12    1    6    6    0    0 -0.11267105303E+03 -0.18172490197E+02  0.97507123329E+02  0.15010877619E+03  0.00000000000E+00 0.  1.
</event>
<event>
12    1  0.1081556E+000  0.7311443E+03  0.7818608E-02  0.9665405E-01
         -3   -1    0    0    0  501 -0.00000000000E+00  0.00000000000E+00  0.34905527457E+03  0.34905527457E+03  0.00000000000E+00 0.  1.
          3   -1    0    0  502    0  0.00000000000E+00 -0.00000000000E+00 -0.15475659628E+04  0.15475659628E+04  0.00000000000E+00 0. -1.
          6    2    1    2  502    0 -0.19976446271E+03 -0.68179369042E+03 -0.69599530834E+03  0.10095029233E+04  0.17302660516E+03 0.  0.
         24    2    3    3    0    0 -0.11115891317E+03 -0.37857562113E+03 -0.48185310248E+03  0.62783406778E+03  0.79482069745E+02 0.  0.
         -6    2    1    2    0  501  0.19976446271E+03  0.68179369042E+03 -0.50251537992E+03  0.88711831408E+03  0.17236217467E+03 0.  0.
        -24    2    5    5    0    0  0.18291293042E+03  0.42503249346E+03 -0.28050693497E+03  0.54723579609E+03  0.81689138459E+02 0.  0.
          5    1    3    3  502    0 -0.88605549533E+02 -0.30321806929E+03 -0.21414220587E+03  0.38166885553E+03  0.47000000000E+01 0. -1.
        -11    1    4    4    0    0 -0.72475318747E+02 -0.24153548615E+03 -0.24575239162E+03  0.35211688526E+03  0.00000000000E+00 0.  1.
         12    1    4    4    0    0 -0.38683594426E+02 -0.13704013499E+03 -0.23610071085E+03  0.27571718252E+03  0.00000000000E+00 0. -1.
         -5    1    5    5    0  501  0.16851532283E+02  0.25676119696E+03 -0.22200844495E+03  0.33988251799E+03  0.47000000000E+01 0.  1.
         11    1    6    6    0    0  0.14230007810E+03  0.33803849571E+03 -0.25857855888E+03  0.44875629012E+03  0.00000000000E+00 0. -1.
        -12    1    6    6    0    0  0.40612852320E+02  0.86993997751E+02 -0.21928376093E+02  0.98479505971E+02  0.00000000000E+00 0.  1.
</event>
<event>
12    1  0.1081556E+000  0.6653974E+03  0.7818608E-02  0.9778308E-01
          2   -1    0    0  502    0  0.00000000000E+00  0.00000000000E+00  0.26458153433E+04  0.26458153433E+04  0.00000000000E+00 0. -1.
         -2   -1    0    0    0  501 -0.00000000000E+00 -0.00000000000E+00 -0.16784734780E+03  0.16784734780E+03  0.00000000000E+00 0.  1.
          6    2    1    2  502    0 -0.49147661443E+03  0.41429666577E+03  0.11611581636E+04  0.13381463939E+04  0.17075274731E+03 0.  0.
         24    2    3    3    0    0 -0.32083745796E+03  0.35267694042E+03  0.83022050947E+03  0.96071224968E+03  0.79901399291E+02 0.  0.
         -6    2    1    2    0  501  0.49147661443E+03 -0.41429666577E+03  0.13168098319E+04  0.14755162973E+04  0.17311620440E+03 0.  0.
        -24    2    5    5    0    0  0.48412266982E+03 -0.35529355991E+03  0.12100886762E+04  0.13532586101E+04  0.79912378649E+02 0.  0.
          5    1    3    3  502    0 -0.17063915647E+03  0.61619725348E+02  0.33093765415E+03  0.37743414420E+03  0.47000000000E+01 0. -1.
        -13    1    4    4    0    0 -0.99871276973E+02  0.12817905175E+03  0.35695872783E+03  0.39220361376E+03  0.00000000000E+00 0.  1.
         14    1    4    4    0    0 -0.22096618098E+03  0.22449788867E+03  0.47326178164E+03  0.56850863592E+03  0.00000000000E+00 0. -1.
         -5    1    5    5    0  501  0.73539446126E+01 -0.59003105863E+02  0.10672115569E+03  0.12225768718E+03  0.47000000000E+01 0.  1.
         13    1    6    6    0    0  0.14467121453E+02 -0.27714535515E+02  0.90283963009E+02  0.95543639551E+02  0.00000000000E+00 0. -1.
        -14    1    6    6    0    0  0.46965554836E+03 -0.32757902439E+03  0.11198047132E+04  0.12577149705E+04  0.00000000000E+00 0.  1.
</event>
<event>
12    1  0.1081556E+000  0.2847012E+03  0.7818608E-02  0.1093149E+00
         -2   -1    0    0    0  501 -0.00000000000E+00  0.00000000000E+00  0.19991288320E+03  0.19991288320E+03  0.00000000000E+00 0.  1.
          2   -1    0    0  502    0  0.00000000000E+00 -0.00000000000E+00 -0.15995672033E+04  0.15995672033E+04  0.00000000000E+00 0. -1.
          6    2    1    2  502    0  0.21974088054E+03 -0.55819025026E+02  0.77652307167E+02  0.29496321099E+03  0.17196394068E+03 0.  0.
         24    2    3    3    0    0  0.17035344176E+03 -0.73143559967E+02  0.16718634177E+00  0.20134006979E+03  0.78533561393E+02 0.  0.
         -6    2    1    2    0  501 -0.21974088054E+03  0.55819025026E+02 -0.14773066272E+04  0.15045168755E+04  0.17243647995E+03 0.  0.
        -24    2    5    5    0    0 -0.14777828287E+03 -0.17030447553E+02 -0.68102779487E+03  0.70166711994E+03  0.80058933156E+02 0.  0.
          5    1    3    3  502    0  0.49387438772E+02  0.17324534940E+02  0.77485120825E+02  0.93623141203E+02  0.47000000000E+01 0. -1.
        -11    1    4    4    0    0  0.13226606598E+03 -0.87663159489E+02  0.11314304320E+02  0.15908222787E+03  0.00000000000E+00 0.  1.
         12    1    4    4    0    0  0.38087375782E+02  0.14519599522E+02 -0.11147117978E+02  0.42257841917E+02  0.00000000000E+00 0. -1.
         -5    1    5    5    0  501 -0.71962597661E+02  0.72849472580E+02 -0.79627883237E+03  0.80284975556E+03  0.47000000000E+01 0.  1.
         11    1    6    6    0    0 -0.96217408575E+02  0.27560448071E+02 -0.37378578236E+03  0.38695371701E+03  0.00000000000E+00 0. -1.
        -12    1    6    6    0    0 -0.51560874300E+02 -0.44590895624E+02 -0.30724201251E+03  0.31471340293E+03  0.00000000000E+00 0.  1.
</event>
<event>
12    1  0.1081556E+000  0.2879861E+03  0.7818608E-02  0.1091405E+00
         -2   -1    0    0    0  501 -0.00000000000E+00  0.00000000000E+00  0.11214603023E+04  0.11214603023E+04  0.00000000000E+00 0.  1.
          2   -1    0    0  502    0  0.00000000000E+00 -0.00000000000E+00 -0.42775344228E+03  0.42775344228E+03  0.00000000000E+00 0. -1.
          6    2    1    2  502    0  0.14583348920E+03 -0.17104225136E+03  0.10522337584E+04  0.10921439504E+04  0.18724226991E+03 0.  0.
         24    2    3    3    0    0  0.15435938907E+03 -0.87226139831E+02  0.55820502407E+03  0.59096103777E+03  0.78783747012E+02 0.  0.
         -6    2    1    2    0  501 -0.14583348920E+03  0.17104225136E+03 -0.35852689838E+03  0.45706979423E+03  0.17276689963E+03 0.  0.
        -24    2    5    5    0    0 -0.66880322000E+02  0.72556851128E+02 -0.77736112801E+02  0.14917609189E+03  0.80455758291E+02 0.  0.
          5    1    3    3  502    0 -0.85258998715E+01 -0.83816111532E+02  0.49402873435E+03  0.50118291260E+03  0.47000000000E+01 0. -1.
        -13    1    4    4    0    0  0.42166342145E+02 -0.59078089002E+02  0.28865727853E+03  0.29764281523E+03  0.00000000000E+00 0.  1.
         14    1    4    4    0    0  0.11219304693E+03 -0.28148050828E+02  0.26954774554E+03  0.29331822254E+03  0.00000000000E+00 0. -1.
         -5    1    5    5    0  501 -0.78953167203E+02  0.98485400235E+02 -0.28079078558E+03  0.30789370233E+03  0.47000000000E+01 0.  1.
         11    1    6    6    0    0  0.78411796803E+01  0.14210739492E+02 -0.46672017738E+02  0.49413626212E+02  0.00000000000E+00 0. -1.
        -12    1    6    6    0    0 -0.74721501680E+02  0.58346111636E+02 -0.31064095063E+02  0.99762465680E+02  0.00000000000E+00 0.  1.
</event>
<event>
12    1  0.1081556E+000  0.3352619E+03  0.7818608E-02  0.1068832E+00
         -2   -1    0    0    0  501 -0.00000000000E+00  0.00000000000E+00  0.48119002074E+02  0.48119002074E+02  0.00000000000E+00 0.  1.
          2   -1    0    0  502    0  0.00000000000E+00 -0.00000000000E+00 -0.38397707203E+04  0.38397707203E+04  0.00000000000E+00 0. -1.
          6    2    1    2  502    0 -0.24195166522E+03 -0.15753324411E+03 -0.68171090845E+03  0.76000619484E+03  0.17182061053E+03 0.  0.
         24    2    3    3    0    0 -0.14560303373E+03 -0.59890201721E+02 -0.24165663510E+03  0.29904299024E+03  0.79004436736E+02 0.  0.
         -6    2    1    2    0  501  0.24195166522E+03  0.15753324411E+03 -0.31099408098E+04  0.31278835275E+04  0.16901535480E+03 0.  0.
        -24    2    5    5    0    0  0.23107609829E+03  0.17977070444E+03 -0.29885469850E+04  0.30039023463E+04  0.79388634882E+02 0.  0.
          5    1    3    3  502    0 -0.96348631487E+02 -0.97643042391E+02 -0.44005427334E+03  0.46096320461E+03  0.47000000000E+01 0. -1.
        -13    1    4    4    0    0 -0.98141413699E+02 -0.77786712982E+02 -0.16548212873E+03  0.20752552790E+03  0.00000000000E+00 0.  1.
         14    1    4    4    0    0 -0.47461620036E+02  0.17896511261E+02 -0.76174506372E+02  0.91517462338E+02  0.00000000000E+00 0. -1.
         -5    1    5    5    0  501  0.10875566936E+02 -0.22237460324E+02 -0.12139382481E+03  0.12398118123E+03  0.47000000000E+01 0.  1.
         13    1    6    6    0    0  0.12504184615E+03  0.10491003375E+03 -0.12672202199E+04  0.12776887979E+04  0.00000000000E+00 0. -1.
        -14    1    6    6    0    0  0.10603425213E+03  0.74860670685E+02 -0.17213267651E+04  0.17262135484E+04  0.00000000000E+00 0.  1.
</event>
<event>
12    1  0.1081556E+000  0.3532553E+03  0.7818608E-02  0.1061287E+00
          3   -1    0    0  502    0  0.00000000000E+00  0.00000000000E+00  0.45847463705E+03  0.45847463705E+03  0.00000000000E+00 0. -1.
         -3   -1    0    0    0  501 -0.00000000000E+00 -0.00000000000E+00 -0.27329720187E+03  0.27329720187E+03  0.00000000000E+00 0.  1.
          6    2    1    2  502    0  0.25419641120E+03 -0.17644702823E+03  0.11584877378E+03  0.37143172978E+03  0.16967976386E+03 0.  0.
         24    2    3    3    0    0  0.59650724802E+02 -0.51035573819E+02  0.43932232379E+02  0.12900620324E+03  0.92464699575E+02 0.  0.
         -6    2    1    2    0  501 -0.25419641120E+03  0.17644702823E+03  0.69328661392E+02  0.36034010913E+03  0.17114076581E+03 0.  0.
        -24    2    5    5    0    0 -0.23261732268E+03  0.20065851950E+03  0.75914822412E+02  0.32691375893E+03  0.82066346706E+02 0.  0.
          5    1    3    3  502    0  0.19454568640E+03 -0.12541145442E+03  0.71916541406E+02  0.24242552655E+03  0.47000000000E+01 0. -1.
        -13    1    4    4    0    0  0.44063728420E+02 -0.17371518742E+02 -0.22868212136E+02  0.52595978478E+02  0.00000000000E+00 0.  1.
         14    1    4    4    0    0  0.15586996381E+02 -0.33664055077E+02  0.66800444515E+02  0.76410224759E+02  0.00000000000E+00 0. -1.
         -5    1    5    5    0  501 -0.21579088519E+02 -0.24211491265E+02 -0.65861610198E+01  0.33426350198E+02  0.47000000000E+01 0.  1.
         13    1    6    6    0    0 -0.17921380358E+03  0.12771092021E+03  0.20827222055E+02  0.22104623886E+03  0.00000000000E+00 0. -1.
        -14    1    6    6    0    0 -0.53403519096E+02  0.72947599291E+02  0.55087600356E+02  0.10586752008E+03  0.00000000000E+00 0.  1.
</event>
<event>
12    1  0.1081556E+000  0.7504744E+03  0.7818608E-02  0.9634606E-01
          2   -1    0    0  502    0  0.00000000000E+00  0.00000000000E+00  0.55251919328E+03  0.55251919328E+03  0.00000000000E+00 0. -1.
         -2   -1    0    0    0  501 -0.00000000000E+00 -0.00000000000E+00 -0.10396194433E+04  0.10396194433E+04  0.00000000000E+00 0.  1.
          6    2    1    2  502    0 -0.69465833821E+03  0.22754829311E+03 -0.35452029852E+03  0.82949213972E+03  0.16746383266E+03 0.  0.
         24    2    3    3    0    0 -0.42489200247E+03  0.19572995413E+03 -0.26180567766E+03  0.54243052000E+03  0.82735889833E+02 0.  0.
         -6    2    1    2    0  501  0.69465833821E+03 -0.22754829311E+03 -0.13257995154E+03  0.76264649690E+03  0.17240592549E+03 0.  0.
        -24    2    5    5    0    0  0.62552485884E+03 -0.24609162279E+03 -0.10172052170E+03  0.68455880610E+03  0.80195128522E+02 0.  0.
          5    1    3    3  502    0 -0.26976633574E+03  0.31818338985E+02 -0.92714620854E+02  0.28706161972E+03  0.47000000000E+01 0. -1.
        -13    1    4    4    0    0 -0.33463547460E+03  0.14394246621E+03 -0.16353795318E+03  0.39930564305E+03  0.00000000000E+00 0.  1.
         14    1    4    4    0    0 -0.90256527870E+02  0.51787487920E+02 -0.98267724482E+02  0.14312487695E+03  0.00000000000E+00 0. -1.
         -5    1    5    5    0  501  0.69133479373E+02  0.18543329674E+02 -0.30859429834E+02  0.78087690806E+02  0.47000000000E+01 0.  1.
         13    1    6    6    0    0  0.29531916919E+03 -0.10509313825E+03 -0.83713990351E+01  0.31357305324E+03  0.00000000000E+00 0. -1.
        -14    1    6    6    0    0  0.33020568965E+03 -0.14099848453E+03 -0.93349122669E+02  0.37098575286E+03  0.00000000000E+00 0.  1.
</event>
<event>
12    1  0.1081556E+000  0.6425602E+03  0.7818608E-02  0.9820841E-01
          2   -1    0    0  502    0  0.00000000000E+00  0.00000000000E+00  0.55925481193E+03  0.55925481193E+03  0.00000000000E+00 0. -1.
         -2   -1    0    0    0  501 -0.00000000000E+00 -0.00000000000E+00 -0.79665654016E+03  0.79665654016E+03  0.00000000000E+00 0.  1.
          6    2    1    2  502    0  0.32903553574E+03 -0.52443567973E+03 -0.30220502060E+03  0.70994583224E+03  0.17145857890E+03 0.  0.
         24    2    3    3    0    0  0.27769727284E+03 -0.31743588738E+03 -0.20132237822E+03  0.47397140819E+03  0.78973906244E+02 0.  0.
         -6    2    1    2    0  501 -0.32903553574E+03  0.52443567973E+03  0.64803292374E+02  0.64596551986E+03  0.17255381823E+03 0.  0.
        -24    2    5    5    0    0 -0.24856153402E+03  0.43016653980E+03  0.10818088948E+03  0.51456368719E+03  0.79035404544E+02 0.  0.
          5    1    3    3  502    0  0.51338262899E+02 -0.20699979236E+03 -0.10088264238E+03  0.23597442405E+03  0.47000000000E+01 0. -1.
        -11    1    4    4    0    0  0.16479078164E+03 -0.24371719109E+03 -0.14131154404E+03  0.32637865038E+03  0.00000000000E+00 0.  1.
         12    1    4    4    0    0  0.11290649120E+03 -0.73718696289E+02 -0.60010834185E+02  0.14759275781E+03  0.00000000000E+00 0. -1.
         -5    1    5    5    0  501 -0.80474001718E+02  0.94269139933E+02 -0.43377597108E+02  0.13140183266E+03  0.47000000000E+01 0.  1.
         13    1    6    6    0    0 -0.20146466942E+01  0.30325036468E+02 -0.63765200023E+01  0.31053609218E+02  0.00000000000E+00 0. -1.
        -14    1    6    6    0    0 -0.24654688733E+03  0.39984150333E+03  0.11455740948E+03  0.48351007798E+03  0.00000000000E+00 0.  1.
</event>
<event>
12    1  0.1081556E+000  0.3325335E+03  0.7818608E-02  0.1070021E+00
         -1   -1    0    0    0  501 -0.00000000000E+00  0.00000000000E+00  0.66521137861E+03  0.66521137861E+03  0.00000000000E+00 0.  1.
          1   -1    0    0  502    0  0.00000000000E+00 -0.00000000000E+00 -0.82174276993E+03  0.82174276993E+03  0.00000000000E+00 0. -1.
          6    2    1    2  502    0 -0.60524959799E+02  0.27741724240E+03  0.58575942755E+03  0.67365358881E+03  0.17341122690E+03 0.  0.
         24    2    3    3    0    0 -0.21911489042E+02  0.13012182190E+03  0.16462564549E+03  0.22581132482E+03  0.80481981700E+02 0.  0.
         -6    2    1    2    0  501  0.60524959799E+02 -0.27741724240E+03 -0.74229081887E+03  0.81330055973E+03  0.17273836730E+03 0.  0.
        -24    2    5    5    0    0  0.92896391392E+01 -0.61302158208E+02 -0.32512612156E+03  0.34067040583E+03  0.80654066772E+02 0.  0.
          5    1    3    3  502    0 -0.38613470757E+02  0.14729542050E+03  0.42113378206E+03  0.44784226399E+03  0.47000000000E+01 0. -1.
        -11    1    4    4    0    0 -0.28662944466E+01  0.66647532261E+02  0.14005932168E+03  0.15513453127E+03  0.00000000000E+00 0.  1.
         12    1    4    4    0    0 -0.19045194596E+02  0.63474289637E+02  0.24566323809E+02  0.70676793557E+02  0.00000000000E+00 0. -1.
         -5    1    5    5    0  501  0.51235320660E+02 -0.21611508419E+03 -0.41716469731E+03  0.47263015390E+03  0.47000000000E+01 0.  1.
         13    1    6    6    0    0  0.19837323816E+02 -0.69758252590E+02 -0.16827944403E+03  0.18324220175E+03  0.00000000000E+00 0. -1.
        -14    1    6    6    0    0 -0.10547684677E+02  0.84560943816E+01 -0.15684667754E+03  0.15742820408E+03  0.00000000000E+00 0.  1.
</event>
<event>
12    1  0.1081556E+000  0.2136140E+03  0.7818608E-02  0.1138736E+00
          2   -1    0    0  502    0  0.00000000000E+00  0.00000000000E+00  0.12150610107E+03  0.12150610107E+03  0.00000000000E+00 0. -1.
         -2   -1    0    0    0  501 -0.00000000000E+00 -0.00000000000E+00 -0.59372585679E+03  0.59372585679E+03  0.00000000000E+00 0.  1.
          6    2    1    2  502    0 -0.11413109768E+03 -0.57453064630E+02 -0.45337361843E+03  0.50147048302E+03  0.17204140595E+03 0.  0.
         24    2    3    3    0    0 -0.43037510793E+02  0.17994769739E+02 -0.10087499589E+03  0.13401430509E+03  0.74886781875E+02 0.  0.
         -6    2    1    2    0  501  0.11413109768E+03  0.57453064630E+02 -0.18846137287E+02  0.21376147484E+03  0.17032917877E+03 0.  0.
        -24    2    5    5    0    0  0.56685144381E+02  0.97713246545E+02  0.65218568427E+01  0.13901828167E+03  0.80761772384E+02 0.  0.
          5    1    3    3  502    0 -0.71093586889E+02 -0.75447834369E+02 -0.35249862254E+03  0.36745617793E+03  0.47000000000E+01 0. -1.
        -11    1    4    4    0    0 -0.48759645682E+02  0.33754686373E+02 -0.10114174423E+03  0.11724561538E+03  0.00000000000E+00 0.  1.
         12    1    4    4    0    0  0.57221348888E+01 -0.15759916634E+02  0.26674834094E+00  0.16768689712E+02  0.00000000000E+00 0. -1.
         -5    1    5    5    0  501  0.57445953301E+02 -0.40260181915E+02 -0.25367994129E+02  0.74743193166E+02  0.47000000000E+01 0.  1.
         13    1    6    6    0    0 -0.17482856374E+02  0.20566858126E+02  0.16338197067E+02  0.31552854127E+02  0.00000000000E+00 0. -1.
        -14    1    6    6    0    0  0.74168000755E+02  0.77146388420E+02 -0.98163402245E+01  0.10746542755E+03  0.00000000000E+00 0.  1.
</event>
<event>
12    1  0.1081556E+000  0.2604792E+03  0.7818608E-02  0.1106856E+00
          2   -1    0    0  502    0  0.00000000000E+00  0.00000000000E+00  0.38752437222E+04  0.38752437222E+04  0.00000000000E+00 0. -1.
         -2   -1    0    0    0  501 -0.00000000000E+00 -0.00000000000E+00 -0.19171960771E+02  0.19171960771E+02  0.00000000000E+00 0.  1.
          6    2    1    2  502    0  0.18155028593E+03  0.71931780816E+02  0.13544821206E+04  0.13793017765E+04  0.17238586963E+03 0.  0.
         24    2    3    3    0    0  0.17614493003E+03  0.21614251290E+02  0.12216097521E+04  0.12370406505E+04  0.80280584583E+02 0.  0.
         -6    2    1    2    0  501 -0.18155028593E+03 -0.71931780816E+02  0.25015896408E+04  0.25151139065E+04  0.17237327034E+03 0.  0.
        -24    2    5    5    0    0 -0.14811504810E+03  0.20119781971E+01  0.12972878195E+04  0.13080718354E+04  0.78448227642E+02 0.  0.
          5    1    3    3  502    0  0.54053558966E+01  0.50317529526E+02  0.13287236850E+03  0.14226112596E+03  0.47000000000E+01 0. -1.
        -11    1    4    4    0    0  0.91093817002E+02  0.11896815598E+01  0.37426189276E+03  0.38519016499E+03  0.00000000000E+00 0.  1.
         12    1    4    4    0    0  0.85051113030E+02  0.20424569730E+02  0.84734785937E+03  0.85185048551E+03  0.00000000000E+00 0. -1.
         -5    1    5    5    0  501 -0.33435237825E+02 -0.73943759013E+02  0.12043018213E+04  0.12070420711E+04  0.47000000000E+01 0.  1.
         11    1    6    6    0    0  0.67014417914E+01  0.45869820828E+01  0.17073568516E+03  0.17092871004E+03  0.00000000000E+00 0. -1.
        -12    1    6    6    0    0 -0.15481648989E+03 -0.25750038857E+01  0.11265521343E+04  0.11371431253E+04  0.00000000000E+00 0.  1.
</event>
<event>
12    1  0.1081556E+000  0.4728399E+03  0.7818608E-02  0.1021122E+00
         -2   -1    0    0    0  501 -0.00000000000E+00  0.00000000000E+00  0.13116755032E+03  0.13116755032E+03  0.00000000000E+00 0.  1.
          2   -1    0    0  502    0  0.00000000000E+00 -0.00000000000E+00 -0.27528239754E+04  0.27528239754E+04  0.00000000000E+00 0. -1.
          6    2    1    2  502    0  0.41069974640E+03 -0.15953483680E+03 -0.42124008534E+03  0.63337750250E+03  0.17204128961E+03 0.  0.
         24    2    3    3    0    0  0.21179846932E+03 -0.14500121040E+03 -0.19749798698E+03  0.33361833100E+03  0.80073674163E+02 0.  0.
         -6    2    1    2    0  501 -0.41069974640E+03  0.15953483680E+03 -0.22004163397E+04  0.22506140232E+04  0.17118927395E+03 0.  0.
        -24    2    5    5    0    0 -0.33544768765E+03  0.83506078830E+02 -0.14645282689E+04  0.15069766202E+04  0.81468196637E+02 0.  0.
          5    1    3    3  502    0  0.19890127708E+03 -0.14533626400E+02 -0.22374209836E+03  0.29975917150E+03  0.47000000000E+01 0. -1.
        -13    1    4    4    0    0  0.88281359050E+02 -0.15721166202E+02 -0.57404160455E+02  0.10647061125E+03  0.00000000000E+00 0.  1.
         14    1    4    4    0    0  0.12351711027E+03 -0.12928004419E+03 -0.14009382652E+03  0.22714771975E+03  0.00000000000E+00 0. -1.
         -5    1    5    5    0  501 -0.75252058752E+02  0.76028757966E+02 -0.73588807080E+03  0.74363740299E+03  0.47000000000E+01 0.  1.
         13    1    6    6    0    0 -0.16662521647E+03  0.96397590808E+01 -0.80915681594E+03  0.82619104359E+03  0.00000000000E+00 0. -1.
        -14    1    6    6    0    0 -0.16882247118E+03  0.73866319749E+02 -0.65537145300E+03  0.68078557665E+03  0.00000000000E+00 0.  1.
</event>
<event>
12    1  0.1081556E+000  0.1832290E+03  0.7818608E-02  0.1164714E+00
         -2   -1    0    0    0  501 -0.00000000000E+00  0.00000000000E+00  0.45844416497E+02  0.45844416497E+02  0.00000000000E+00 0. -1.
          2   -1    0    0  502    0  0.00000000000E+00 -0.00000000000E+00 -0.85559147471E+03  0.85559147471E+03  0.00000000000E+00 0.  1.
          6    2    1    2  502    0  0.40008798992E+02  0.40634459414E+02 -0.57964884248E+03  0.60852511033E+03  0.17623327162E+03 0.  0.
         24    2    3    3    0    0  0.32604427497E+01  0.85329003908E+02 -0.46659139681E+03  0.48143411924E+03  0.82338388366E+02 0.  0.
         -6    2    1    2    0  501 -0.40008798992E+02 -0.40634459414E+02 -0.23009821573E+03  0.29291078088E+03  0.17204555612E+03 0.  0.
        -24    2    5    5    0    0 -0.49984542633E+01 -0.87603833632E+02 -0.11640081155E+03  0.16492235925E+03  0.77141554555E+02 0.  0.
          5    1    3    3  502    0  0.36748356243E+02 -0.44694544494E+02 -0.11305744567E+03  0.12709099108E+03  0.47000000000E+01 0. -1.
        -13    1    4    4    0    0  0.25331976102E+02  0.89158014489E+02 -0.41439037673E+03  0.42462953841E+03  0.00000000000E+00 0.  1.
         14    1    4    4    0    0 -0.22071533352E+02 -0.38290105814E+01 -0.52201020078E+02  0.56804580834E+02  0.00000000000E+00 0. -1.
         -5    1    5    5    0  501 -0.35010344729E+02  0.46969374218E+02 -0.11369740418E+03  0.12798842162E+03  0.47000000000E+01 0.  1.
         13    1    6    6    0    0  0.26152375091E+02 -0.80363335058E+01 -0.48883458852E+02  0.56018942586E+02  0.00000000000E+00 0. -1.
        -14    1    6    6    0    0 -0.31150829355E+02 -0.79567500127E+02 -0.67517352699E+02  0.10890341667E+03  0.00000000000E+00 0.  1.
</event>
<event>
12    1  0.1081556E+000  0.2014353E+03  0.7818608E-02  0.1148534E+00
          2   -1    0    0  502    0  0.00000000000E+00  0.00000000000E+00  0.19127984779E+04  0.19127984779E+04  0.00000000000E+00 0. -1.
         -2   -1    0    0    0  501 -0.00000000000E+00 -0.00000000000E+00 -0.14025852890E+03  0.14025852890E+03  0.00000000000E+00 0.  1.
          6    2    1    2  502    0  0.85103872822E+02  0.60858595147E+02 -0.59505792984E+02  0.20996148075E+03  0.17203617709E+03 0.  0.
         24    2    3    3    0    0  0.44382484563E+02  0.47360745603E+02  0.32583950181E+02  0.10826077180E+03  0.80285962296E+02 0.  0.
         -6    2    1    2    0  501 -0.85103872822E+02 -0.60858595147E+02  0.18320457420E+04  0.18430955260E+04  0.17222972921E+03 0.  0.
        -24    2    5    5    0    0 -0.96649588616E+02 -0.10414752067E+03  0.14943244510E+04  0.15023830446E+04  0.62939644160E+02 0.  0.
          5    1    3    3  502    0  0.40721388260E+02  0.13497849544E+02 -0.92089743165E+02  0.10170070895E+03  0.47000000000E+01 0. -1.
        -11    1    4    4    0    0  0.12192915057E+02  0.89741007603E+01 -0.26669980139E+02  0.30667401303E+02  0.00000000000E+00 0.  1.
         12    1    4    4    0    0  0.32189569505E+02  0.38386644842E+02  0.59253930319E+02  0.77593370499E+02  0.00000000000E+00 0. -1.
         -5    1    5    5    0  501  0.11545715794E+02  0.43288925524E+02  0.33772129098E+03  0.34071248143E+03  0.47000000000E+01 0.  1.
         13    1    6    6    0    0 -0.32396027658E+02 -0.72357927022E+02  0.96056530993E+03  0.96383135810E+03  0.00000000000E+00 0. -1.
        -14    1    6    6    0    0 -0.64253560959E+02 -0.31789593649E+02  0.53375914105E+03  0.53855168649E+03  0.00000000000E+00 0.  1.
</event>
<event>
12    1  0.1081556E+000  0.9124668E+03  0.7818608E-02  0.9410130E-01
         -1   -1    0    0    0  501 -0.00000000000E+00  0.00000000000E+00  0.82429040683E+03  0.82429040683E+03  0.00000000000E+00 0.  1.
          1   -1    0    0  502    0  0.00000000000E+00 -0.00000000000E+00 -0.10495582753E+04  0.10495582753E+04  0.00000000000E+00 0. -1.
          6    2    1    2  502    0  0.89603977088E+03  0.11668001716E+02  0.69096841887E+02  0.91499589779E+03  0.17152173667E+03 0.  0.
         24    2    3    3    0    0  0.78263795311E+03  0.57923442735E+02  0.44798315186E+02  0.79004772254E+03  0.79317236377E+02 0.  0.
         -6    2    1    2    0  501 -0.89603977088E+03 -0.11668001716E+02 -0.29436471034E+03  0.95885278434E+03  0.17240842810E+03 0.  0.
        -24    2    5    5    0    0 -0.88350383727E+03 -0.32480532829E+02 -0.28581859119E+03  0.93267192806E+03  0.80936041694E+02 0.  0.
          5    1    3    3  502    0  0.11340181777E+03 -0.46255441019E+02  0.24298526702E+02  0.12494817525E+03  0.47000000000E+01 0. -1.
        -13    1    4    4    0    0  0.13745336513E+03  0.38440753956E+02  0.19707239795E+02  0.14408155486E+03  0.00000000000E+00 0.  1.
         14    1    4    4    0    0  0.64518458797E+03  0.19482688779E+02  0.25091075390E+02  0.64596616768E+03  0.00000000000E+00 0. -1.
         -5    1    5    5    0  501 -0.12535933611E+02  0.20812531113E+02 -0.85461191561E+01  0.26180856278E+02  0.47000000000E+01 0.  1.
         11    1    6    6    0    0 -0.57134485550E+03 -0.15523394465E+02 -0.22467593894E+03  0.61412962575E+03  0.00000000000E+00 0. -1.
        -12    1    6    6    0    0 -0.31215898176E+03 -0.16957138364E+02 -0.61142652249E+02  0.31854230231E+03  0.00000000000E+00 0.  1.
</event>
<event>
12    1  0.1081556E+000  0.4746421E+03  0.7818608E-02  0.1020618E+00
         -1   -1    0    0    0  501 -0.00000000000E+00  0.00000000000E+00  0.64911625683E+03  0.64911625683E+03  0.00000000000E+00 0.  1.
          1   -1    0    0  502    0  0.00000000000E+00 -0.00000000000E+00 -0.55740073565E+03  0.55740073565E+03  0.00000000000E+00 0. -1.
          6    2    1    2  502    0 -0.28038208996E+03  0.34154794258E+03  0.41641756378E+03  0.63122135464E+03  0.17253317851E+03 0.  0.
         24    2    3    3    0    0 -0.17920810454E+03  0.23419652340E+03  0.18613481617E+03  0.35770218462E+03  0.79631192291E+02 0.  0.
         -6    2    1    2    0  501  0.28038208996E+03 -0.34154794258E+03 -0.32470204260E+03  0.57529563783E+03  0.17396706869E+03 0.  0.
        -24    2    5    5    0    0  0.19667940214E+03 -0.25016269141E+03 -0.14964089601E+03  0.36075916279E+03  0.80564361699E+02 0.  0.
          5    1    3    3  502    0 -0.10117398542E+03  0.10735141918E+03  0.23028274761E+03  0.27351917003E+03  0.47000000000E+01 0. -1.
        -11    1    4    4    0    0 -0.85287790582E+02  0.67929130964E+02  0.10099547227E+03  0.14862186742E+03  0.00000000000E+00 0.  1.
         12    1    4    4    0    0 -0.93920313957E+02  0.16626739243E+03  0.85139343896E+02  0.20908031720E+03  0.00000000000E+00 0. -1.
         -5    1    5    5    0  501  0.83702687816E+02 -0.91385251170E+02 -0.17506114659E+03  0.21453647504E+03  0.47000000000E+01 0.  1.
         11    1    6    6    0    0  0.30287233333E+02 -0.84489978330E+02 -0.17905277087E+02  0.91523067523E+02  0.00000000000E+00 0. -1.
        -12    1    6    6    0    0  0.16639216881E+03 -0.16567271308E+03 -0.13173561892E+03  0.26923609526E+03  0.00000000000E+00 0.  1.
</event>
<event>
12    1  0.1081556E+000  0.3640904E+03  0.7818608E-02  0.1056976E+00
          2   -1    0    0  502    0  0.00000000000E+00  0.00000000000E+00  0.26177313126E+04  0.26177313126E+04  0.00000000000E+00 0. -1.
         -2   -1    0    0    0  501 -0.00000000000E+00 -0.00000000000E+00 -0.58593244191E+02  0.58593244191E+02  0.00000000000E+00 0.  1.
          6    2    1    2  502    0  0.11323441621E+03 -0.30101513265E+03  0.78813215570E+03  0.86838446558E+03  0.17177643064E+03 0.  0.
         24    2    3    3    0    0 -0.10134903596E+02 -0.10014363397E+03  0.27582518558E+03  0.30442536274E+03  0.80397790902E+02 0.  0.
         -6    2    1    2    0  501 -0.11323441621E+03  0.30101513265E+03  0.17710059127E+04  0.18079400912E+04  0.16956794341E+03 0.  0.
        -24    2    5    5    0    0 -0.60294860411E+02  0.59361915127E+02  0.57546528577E+03  0.58706403083E+03  0.79527190443E+02 0.  0.
          5    1    3    3  502    0  0.12336931980E+03 -0.20087149869E+03  0.51230697011E+03  0.56395910284E+03  0.47000000000E+01 0. -1.
        -11    1    4    4    0    0 -0.34555962788E+02 -0.80423148576E+02  0.14073021499E+03  0.16573168315E+03  0.00000000000E+00 0.  1.
         12    1    4    4    0    0  0.24421059192E+02 -0.19720485391E+02  0.13509497060E+03  0.13869367959E+03  0.00000000000E+00 0. -1.
         -5    1    5    5    0  501 -0.52939555797E+02  0.24165321753E+03  0.11955406269E+04  0.12208760603E+04  0.47000000000E+01 0.  1.
         13    1    6    6    0    0 -0.70389285755E+02  0.65304065504E+02  0.40620101772E+03  0.41739494405E+03  0.00000000000E+00 0. -1.
        -14    1    6    6    0    0  0.10094425344E+02 -0.59421503766E+01  0.16926426804E+03  0.16966908678E+03  0.00000000000E+00 0.  1.
</event>
<event>
12    1  0.1081556E+000  0.2953669E+03  0.7818608E-02  0.1087580E+00
         -2   -1    0    0    0  501 -0.00000000000E+00  0.00000000000E+00  0.26769217434E+03  0.26769217434E+03  0.00000000000E+00 0.  1.
          2   -1    0    0  502    0  0.00000000000E+00 -0.00000000000E+00 -0.58492388825E+03  0.58492388825E+03  0.00000000000E+00 0. -1.
          6    2    1    2  502    0 -0.74638991328E+02 -0.23026667547E+03  0.12454641604E+03  0.32215002141E+03  0.17226463853E+03 0.  0.
         24    2    3    3    0    0  0.16471080408E+02 -0.99469057733E+02  0.96018294485E+02  0.16014691744E+03  0.79133636043E+02 0.  0.
         -6    2    1    2    0  501  0.74638991328E+02  0.23026667547E+03 -0.44177812994E+03  0.53046604118E+03  0.16623051434E+03 0.  0.
        -24    2    5    5    0    0 -0.74006363574E+01  0.12373811980E+03 -0.30407982585E+03  0.33795176474E+03  0.79880930727E+02 0.  0.
          5    1    3    3  502    0 -0.91110071736E+02 -0.13079761774E+03  0.28528121550E+02  0.16200310397E+03  0.47000000000E+01 0. -1.
        -11    1    4    4    0    0  0.15350560943E+01 -0.10819524604E+03  0.92804527654E+02  0.14255261490E+03  0.00000000000E+00 0.  1.
         12    1    4    4    0    0  0.14936024313E+02  0.87261883025E+01  0.32137668316E+01  0.17594302539E+02  0.00000000000E+00 0. -1.
         -5    1    5    5    0  501  0.82039627686E+02  0.10652855567E+03 -0.13769830409E+03  0.19251427644E+03  0.47000000000E+01 0.  1.
         13    1    6    6    0    0  0.30829435008E+02  0.29040141349E+02 -0.60710413795E+02  0.74023903002E+02  0.00000000000E+00 0. -1.
        -14    1    6    6    0    0 -0.38230071365E+02  0.94697978447E+02 -0.24336941206E+03  0.26392786174E+03  0.00000000000E+00 0.  1.
</event>
<event>
12    1  0.1081556E+000  0.5914618E+03  0.7818608E-02  0.9923280E-01
          2   -1    0    0  502    0  0.00000000000E+00  0.00000000000E+00  0.28947372884E+04  0.28947372884E+04  0.00000000000E+00 0. -1.
         -2   -1    0    0    0  501 -0.00000000000E+00 -0.00000000000E+00 -0.99098240421E+03  0.99098240421E+03  0.00000000000E+00 0.  1.
          6    2    1    2  502    0  0.50099831968E+03 -0.26243015504E+03 -0.86850043965E+03  0.10512487377E+04  0.17596020068E+03 0.  0.
         24    2    3    3    0    0  0.34605963706E+03 -0.23655303345E+03 -0.54423059724E+03  0.69090356776E+03  0.73798285453E+02 0.  0.
         -6    2    1    2    0  501 -0.50099831968E+03  0.26243015504E+03  0.27722553238E+04  0.28344709549E+04  0.17016789088E+03 0.  0.
        -24    2    5    5    0    0 -0.28735646325E+03  0.94905820382E+02  0.12816919010E+04  0.13193773430E+04  0.80259530714E+02 0.  0.
          5    1    3    3  502    0  0.15493868262E+03 -0.25877121588E+02 -0.32426984241E+03  0.36034516993E+03  0.47000000000E+01 0. -1.
        -13    1    4    4    0    0  0.22912193705E+03 -0.19700762497E+03 -0.38882347356E+03  0.49243533578E+03  0.00000000000E+00 0.  1.
         14    1    4    4    0    0  0.11693770001E+03 -0.39545408487E+02 -0.15540712368E+03  0.19846823198E+03  0.00000000000E+00 0. -1.
         -5    1    5    5    0  501 -0.21364185643E+03  0.16752433466E+03  0.14905634228E+04  0.15150936119E+04  0.47000000000E+01 0.  1.
         13    1    6    6    0    0 -0.16012709493E+03  0.93828616306E+02  0.78656432750E+03  0.80816331088E+03  0.00000000000E+00 0. -1.
        -14    1    6    6    0    0 -0.12722936832E+03  0.10772040767E+01  0.49512757354E+03  0.51121403210E+03  0.00000000000E+00 0.  1.
</event>
<event>
12    1  0.1081556E+000  0.2939793E+03  0.7818608E-02  0.1088290E+00
          2   -1    0    0  502    0  0.00000000000E+00  0.00000000000E+00  0.41145318865E+03  0.41145318865E+03  0.00000000000E+00 0. -1.
         -2   -1    0    0    0  501 -0.00000000000E+00 -0.00000000000E+00 -0.22837197918E+03  0.22837197918E+03  0.00000000000E+00 0.  1.
          6    2    1    2  502    0 -0.20873210409E+03  0.12029804867E+03  0.25656073636E+00  0.29155597071E+03  0.16420751031E+03 0.  0.
         24    2    3    3    0    0 -0.14385606705E+03  0.54018651157E+02  0.57554813678E+02  0.18243659339E+03  0.79736888144E+02 0.  0.
         -6    2    1    2    0  501  0.20873210409E+03 -0.12029804867E+03  0.18282464873E+03  0.34826919712E+03  0.17270167829E+03 0.  0.
        -24    2    5    5    0    0  0.17841733407E+03 -0.55526677626E+02  0.18731041405E+03  0.27646022916E+03  0.80181731548E+02 0.  0.
          5    1    3    3  502    0 -0.64876037040E+02  0.66279397510E+02 -0.57298252942E+02  0.10911937732E+03  0.47000000000E+01 0. -1.
        -11    1    4    4    0    0 -0.12864362871E+03  0.73044222799E+02  0.42988488153E+02  0.15405405482E+03  0.00000000000E+00 0.  1.
         12    1    4    4    0    0 -0.15212438340E+02 -0.19025571643E+02  0.14566325526E+02  0.28382538574E+02  0.00000000000E+00 0. -1.
         -5    1    5    5    0  501  0.30314770024E+02 -0.64771371041E+02 -0.44857653156E+01  0.71808967954E+02  0.47000000000E+01 0.  1.
         11    1    6    6    0    0  0.40615438902E+02  0.43411349300E+00  0.89952093122E+02  0.98697423415E+02  0.00000000000E+00 0. -1.
        -12    1    6    6    0    0  0.13780189517E+03 -0.55960791119E+02  0.97358320927E+02  0.17776280575E+03  0.00000000000E+00 0.  1.
</event>
<event>
12    1  0.1081556E+000  0.1880311E+03  0.7818608E-02  0.1160249E+00
          1   -1    0    0  502    0  0.00000000000E+00  0.00000000000E+00  0.15516292884E+04  0.15516292884E+04  0.00000000000E+00 0. -1.
         -1   -1    0    0    0  501 -0.00000000000E+00 -0.00000000000E+00 -0.63025016790E+03  0.63025016790E+03  0.00000000000E+00 0.  1.
          6    2    1    2  502    0 -0.75547136931E+02 -0.41810407730E+01 -0.61037994419E+03  0.63857789385E+03  0.17173584146E+03 0.  0.
         24    2    3    3    0    0 -0.47681745781E+01 -0.17892004792E+02 -0.12711875341E+03  0.14994600729E+03  0.77341892335E+02 0.  0.
         -6    2    1    2    0  501  0.75547136931E+02  0.41810407730E+01  0.15317590647E+04  0.15433015625E+04  0.17253703777E+03 0.  0.
        -24    2    5    5    0    0  0.35076028018E+02  0.64309892043E+02  0.70853577006E+03  0.71688031863E+03  0.80798291028E+02 0.  0.
          5    1    3    3  502    0 -0.70778962353E+02  0.13710964019E+02 -0.48326119078E+03  0.48863188656E+03  0.47000000000E+01 0. -1.
        -13    1    4    4    0    0  0.78969308882E+01 -0.45714451285E+02 -0.94311803631E+02  0.10510418107E+03  0.00000000000E+00 0.  1.
         14    1    4    4    0    0 -0.12665105466E+02  0.27822446493E+02 -0.32806949779E+02  0.44841826224E+02  0.00000000000E+00 0. -1.
         -5    1    5    5    0  501  0.40471108913E+02 -0.60128851270E+02  0.82322329464E+03  0.82642124383E+03  0.47000000000E+01 0.  1.
         11    1    6    6    0    0 -0.20790543883E+02  0.27702562203E+02  0.38301026441E+03  0.38457319370E+03  0.00000000000E+00 0. -1.
        -12    1    6    6    0    0  0.55866571902E+02  0.36607329840E+02  0.32552550565E+03  0.33230712493E+03  0.00000000000E+00 0.  1.
</event>
<event>
12    1  0.1081556E+000  0.9320567E+03  0.7818608E-02  0.9386373E-01
         -1   -1    0    0    0  501 -0.00000000000E+00  0.00000000000E+00  0.55791946358E+03  0.55791946358E+03  0.00000000000E+00 0.  1.
          1   -1    0    0  502    0  0.00000000000E+00 -0.00000000000E+00 -0.15723668926E+04  0.15723668926E+04  0.00000000000E+00 0. -1.
          6    2    1    2  502    0 -0.84822424769E+03  0.34584206947E+03 -0.40220322825E+03  0.10150938420E+04  0.17192137719E+03 0.  0.
         24    2    3    3    0    0 -0.82760669219E+03  0.31923581321E+03 -0.35978442847E+03  0.96073925583E+03  0.82041095322E+02 0.  0.
         -6    2    1    2    0  501  0.84822424769E+03 -0.34584206947E+03 -0.61224420075E+03  0.11151925141E+04  0.17239568098E+03 0.  0.
        -24    2    5    5    0    0  0.31455415117E+03 -0.92334042361E+02 -0.17364517313E+03  0.37935198197E+03  0.79280455837E+02 0.  0.
          5    1    3    3  502    0 -0.20617555498E+02  0.26606256256E+02 -0.42418799780E+02  0.54354586205E+02  0.47000000000E+01 0. -1.
        -11    1    4    4    0    0 -0.14298708180E+03  0.84836994692E+02 -0.50307758078E+02  0.17370518632E+03  0.00000000000E+00 0.  1.
         12    1    4    4    0    0 -0.68461961039E+03  0.23439881852E+03 -0.30947667039E+03  0.78703406951E+03  0.00000000000E+00 0. -1.
         -5    1    5    5    0  501  0.53367009652E+03 -0.25350802711E+03 -0.43859902762E+03  0.73584053215E+03  0.47000000000E+01 0.  1.
         11    1    6    6    0    0  0.20738692774E+03 -0.50716071748E+02 -0.15272291166E+03  0.26249903900E+03  0.00000000000E+00 0. -1.
        -12    1    6    6    0    0  0.10716722343E+03 -0.41617970612E+02 -0.20922261467E+02  0.11685294297E+03  0.00000000000E+00 0.  1.
</event>
<event>
12    1  0.1081556E+000  0.5851847E+03  0.7818608E-02  0.9936629E-01
          2   -1    0    0  502    0  0.00000000000E+00  0.00000000000E+00  0.11225326201E+04  0.11225326201E+04  0.00000000000E+00 0. -1.
         -2   -1    0    0    0  501 -0.00000000000E+00 -0.00000000000E+00 -0.30648488954E+03  0.30648488954E+03  0.00000000000E+00 0.  1.
          6    2    1    2  502    0 -0.47710802429E+03 -0.29140428313E+03  0.35941875802E+03  0.68686189592E+03  0.17334617785E+03 0.  0.
         24    2    3    3    0    0 -0.42796706538E+03 -0.30764584755E+03  0.33161611360E+03  0.62792379878E+03  0.80729633402E+02 0.  0.
         -6    2    1    2    0  501  0.47710802429E+03  0.29140428313E+03  0.45662897252E+03  0.74215561370E+03  0.17244249281E+03 0.  0.
        -24    2    5    5    0    0  0.19228608045E+03  0.75947275540E+02  0.12504151974E+03  0.25479784916E+03  0.80898930035E+02 0.  0.
          5    1    3    3  502    0 -0.49140958915E+02  0.16241564419E+02  0.27802644424E+02  0.58938097143E+02  0.47000000000E+01 0. -1.
        -11    1    4    4    0    0 -0.17553972216E+03 -0.10196376381E+03  0.16804551156E+03  0.26353386337E+03  0.00000000000E+00 0.  1.
         12    1    4    4    0    0 -0.25242734322E+03 -0.20568208374E+03  0.16357060203E+03  0.36438993540E+03  0.00000000000E+00 0. -1.
         -5    1    5    5    0  501  0.28482194384E+03  0.21545700759E+03  0.33158745278E+03  0.48735776454E+03  0.47000000000E+01 0.  1.
         11    1    6    6    0    0  0.18003268312E+01  0.96521972261E+01  0.30510398773E+02  0.32051373158E+02  0.00000000000E+00 0. -1.
        -12    1    6    6    0    0  0.19048575362E+03  0.66295078314E+02  0.94531120970E+02  0.22274647600E+03  0.00000000000E+00 0.  1.
</event>
<event>
12    1  0.1081556E+000  0.3324344E+03  0.7818608E-02  0.1070065E+00
          1   -1    0    0  502    0  0.00000000000E+00  0.00000000000E+00  0.13837579807E+04  0.13837579807E+04  0.00000000000E+00 0. -1.
         -1   -1    0    0    0  501 -0.00000000000E+00 -0.00000000000E+00 -0.80491970540E+02  0.80491970540E+02  0.00000000000E+00 0.  1.
          6    2    1    2  502    0 -0.23037543576E+03 -0.16727386235E+03  0.71678430579E+03  0.79022849695E+03  0.17212771404E+03 0.  0.
         24    2    3    3    0    0 -0.23961256856E+03 -0.17542102000E+03  0.71290928903E+03  0.77648780720E+03  0.80665625040E+02 0.  0.
         -6    2    1    2    0  501  0.23037543576E+03  0.16727386235E+03  0.58648170434E+03  0.67402145426E+03  0.17114539096E+03 0.  0.
        -24    2    5    5    0    0  0.10660264494E+03  0.11404664806E+03  0.44607150825E+03  0.47936803596E+03  0.80269306629E+02 0.  0.
          5    1    3    3  502    0  0.92371327983E+01  0.81471576527E+01  0.38750167590E+01  0.13740689758E+02  0.47000000000E+01 0. -1.
        -13    1    4    4    0    0 -0.14940296916E+03 -0.65611922052E+02  0.42930189094E+03  0.45926711734E+03  0.00000000000E+00 0.  1.
         14    1    4    4    0    0 -0.90209599404E+02 -0.10980909795E+03  0.28360739810E+03  0.31722068986E+03  0.00000000000E+00 0. -1.
         -5    1    5    5    0  501  0.12377279082E+03  0.53227214294E+02  0.14041019609E+03  0.19465341829E+03  0.47000000000E+01 0.  1.
         13    1    6    6    0    0  0.86470640623E+02  0.48549036650E+02  0.33001738753E+03  0.34459491685E+03  0.00000000000E+00 0. -1.
        -14    1    6    6    0    0  0.20132004322E+02  0.65497611407E+02  0.11605412073E+03  0.13477311911E+03  0.00000000000E+00 0.  1.
</event>
<event>
12    1  0.1081556E+000  0.1000229E+04  0.7818608E-02  0.9308293E-01
         -1   -1    0    0    0  501 -0.00000000000E+00  0.00000000000E+00  0.99722390058E+03  0.99722390058E+03  0.00000000000E+00 0.  1.
          1   -1    0    0  502    0  0.00000000000E+00 -0.00000000000E+00 -0.10548798496E+04  0.10548798496E+04  0.00000000000E+00 0. -1.
          6    2    1    2  502    0 -0.60450494005E+03 -0.77848604371E+03 -0.25582437598E+03  0.10320014919E+04  0.16767297074E+03 0.  0.
         24    2    3    3    0    0 -0.24623807890E+03 -0.26884559479E+03 -0.54311939867E+02  0.37723597441E+03  0.80287285641E+02 0.  0.
         -6    2    1    2    0  501  0.60450494005E+03  0.77848604371E+03  0.19816842700E+03  0.10201022583E+04  0.17283271986E+03 0.  0.
        -24    2    5    5    0    0  0.50890895677E+03  0.72547151945E+03  0.19382070397E+03  0.91060283133E+03  0.79585170294E+02 0.  0.
          5    1    3    3  502    0 -0.35826686115E+03 -0.50964044892E+03 -0.20151243612E+03  0.65476551748E+03  0.47000000000E+01 0. -1.
        -13    1    4    4    0    0 -0.24308685220E+03 -0.23705069742E+03 -0.59962658073E+02  0.34478945927E+03  0.00000000000E+00 0.  1.
         14    1    4    4    0    0 -0.31512267036E+01 -0.31794897368E+02  0.56507182054E+01  0.32446515138E+02  0.00000000000E+00 0. -1.
         -5    1    5    5    0  501  0.95595983284E+02  0.53014524260E+02  0.43477230279E+01  0.10949942693E+03  0.47000000000E+01 0.  1.
         11    1    6    6    0    0  0.28599294876E+02  0.42420467796E+02  0.31116550910E+02  0.59880343152E+02  0.00000000000E+00 0. -1.
        -12    1    6    6    0    0  0.48030966189E+03  0.68305105165E+03  0.16270415306E+03  0.85072248818E+03  0.00000000000E+00 0.  1.
</event>
<event>
12    1  0.1081556E+000  0.6542315E+03  0.7818608E-02  0.9798871E-01
         -2   -1    0    0    0  501 -0.00000000000E+00  0.00000000000E+00  0.33581642603E+03  0.33581642603E+03  0.00000000000E+00 0.  1.
          2   -1    0    0  502    0  0.00000000000E+00 -0.00000000000E+00 -0.13027829773E+04  0.13027829773E+04  0.00000000000E+00 0. -1.
          6    2    1    2  502    0 -0.36034147788E+03 -0.51884087799E+03 -0.36314104365E+03  0.74855084329E+03  0.17150833813E+03 0.  0.
         24    2    3    3    0    0 -0.26796519055E+03 -0.33671458646E+03 -0.31288925078E+03  0.53819234640E+03  0.81050986328E+02 0.  0.
         -6    2    1    2    0  501  0.36034147788E+03  0.51884087799E+03 -0.60382550758E+03  0.89004856000E+03  0.16893595888E+03 0.  0.
        -24    2    5    5    0    0  0.25805654313E+03  0.45268962831E+03 -0.44518341827E+03  0.68997957636E+03  0.79765035411E+02 0.  0.
          5    1    3    3  502    0 -0.92376287339E+02 -0.18212629153E+03 -0.50251792871E+02  0.21035849689E+03  0.47000000000E+01 0. -1.
        -11    1    4    4    0    0 -0.16883595390E+03 -0.17815207053E+03 -0.21900693776E+03  0.32894950730E+03  0.00000000000E+00 0.  1.
         12    1    4    4    0    0 -0.99129236643E+02 -0.15856251593E+03 -0.93882313025E+02  0.20924283910E+03  0.00000000000E+00 0. -1.
         -5    1    5    5    0  501  0.10228493476E+03  0.66151249687E+02 -0.15864208931E+03  0.20006898364E+03  0.47000000000E+01 0.  1.
         13    1    6    6    0    0  0.17293494928E+03  0.36849128842E+03 -0.33308101173E+03  0.52596129772E+03  0.00000000000E+00 0. -1.
        -14    1    6    6    0    0  0.85121593846E+02  0.84198339890E+02 -0.11210240653E+03  0.16401827864E+03  0.00000000000E+00 0.  1.
</event>
<event>
12    1  0.1081556E+000  0.3684385E+03  0.7818608E-02  0.1055292E+00
          2   -1    0    0  502    0  0.00000000000E+00  0.00000000000E+00  0.12393364485E+04  0.12393364485E+04  0.00000000000E+00 0. -1.
         -2   -1    0    0    0  501 -0.00000000000E+00 -0.00000000000E+00 -0.13248439280E+03  0.13248439280E+03  0.00000000000E+00 0.  1.
          6    2    1    2  502    0 -0.13200158107E+02  0.32521957910E+03  0.26794042890E+03  0.45557105544E+03  0.17265831666E+03 0.  0.
         24    2    3    3    0    0  0.15739360366E+02  0.14344834024E+03  0.49074272329E+02  0.16955923139E+03  0.74275803342E+02 0.  0.
         -6    2    1    2    0  501  0.13200158107E+02 -0.32521957910E+03  0.83891162683E+03  0.91624978590E+03  0.17262367661E+03 0.  0.
        -24    2    5    5    0    0  0.73670526717E+02 -0.17632336149E+03  0.39539167237E+03  0.44448841709E+03  0.68688456323E+02 0.  0.
          5    1    3    3  502    0 -0.28939518473E+02  0.18177123886E+03  0.21886615657E+03  0.28601182405E+03  0.47000000000E+01 0. -1.
        -13    1    4    4    0    0  0.43135849184E+02  0.91769004350E+02  0.44962436689E+02  0.11092282163E+03  0.00000000000E+00 0.  1.
         14    1    4    4    0    0 -0.27396488819E+02  0.51679335886E+02  0.41118356397E+01  0.58636409760E+02  0.00000000000E+00 0. -1.
         -5    1    5    5    0  501 -0.60470368610E+02 -0.14889621761E+03  0.44351995447E+03  0.47176136882E+03  0.47000000000E+01 0.  1.
         11    1    6    6    0    0  0.41709004199E+02 -0.13842941188E+03  0.22856414102E+03  0.27045130738E+03  0.00000000000E+00 0. -1.
        -12    1    6    6    0    0  0.31961522517E+02 -0.37893949613E+02  0.16682753135E+03  0.17403710970E+03  0.00000000000E+00 0.  1.
</event>
<event>
12    1  0.1081556E+000  0.6019601E+03  0.7818608E-02  0.9901348E-01
         -2   -1    0    0    0  501 -0.00000000000E+00  0.00000000000E+00  0.43774870658E+03  0.43774870658E+03  0.00000000000E+00 0.  1.
          2   -1    0    0  502    0  0.00000000000E+00 -0.00000000000E+00 -0.90649583775E+03  0.90649583775E+03  0.00000000000E+00 0. -1.
          6    2    1    2  502    0 -0.56212450541E+03 -0.12972469688E+03 -0.36334865461E+02  0.60314435831E+03  0.17219302525E+03 0.  0.
         24    2    3    3    0    0 -0.43073321086E+03 -0.16164846188E+03 -0.31297086242E+02  0.46775503718E+03  0.78447071562E+02 0.  0.
         -6    2    1    2    0  501  0.56212450541E+03  0.12972469688E+03 -0.43241226571E+03  0.74110018602E+03  0.17157115613E+03 0.  0.
        -24    2    5    5    0    0  0.50466274721E+03  0.93571341615E+02 -0.32170803326E+03  0.61115236636E+03  0.81062148067E+02 0.  0.
          5    1    3    3  502    0 -0.13139129456E+03  0.31923764997E+02 -0.50377792187E+01  0.13538932113E+03  0.47000000000E+01 0. -1.
        -13    1    4    4    0    0 -0.11420407001E+03 -0.59685680257E+02 -0.40519932398E+02  0.13508077197E+03  0.00000000000E+00 0.  1.
         14    1    4    4    0    0 -0.31652914085E+03 -0.10196278162E+03  0.92228461561E+01  0.33267426521E+03  0.00000000000E+00 0. -1.
         -5    1    5    5    0  501  0.57461758208E+02  0.36153355264E+02 -0.11070423245E+03  0.12994781967E+03  0.47000000000E+01 0.  1.
         13    1    6    6    0    0  0.41126429299E+03  0.43462867211E+02 -0.26037705187E+03  0.48869576288E+03  0.00000000000E+00 0. -1.
        -14    1    6    6    0    0  0.93398454221E+02  0.50108474404E+02 -0.61330981385E+02  0.12245660348E+03  0.00000000000E+00 0.  1.
</event>
<event>
12    1  0.1081556E+000  0.8319828E+03  0.7818608E-02  0.9514843E-01
         -2   -1    0    0    0  501 -0.00000000000E+00  0.00000000000E+00  0.53074546268E+03  0.53074546268E+03  0.00000000000E+00 0.  1.
          2   -1    0    0  502    0  0.00000000000E+00 -0.00000000000E+00 -0.13042264387E+04  0.13042264387E+04  0.00000000000E+00 0. -1.
          6    2    1    2  502    0  0.79140259684E+03  0.19281785507E+03 -0.38250552788E+03  0.91619522980E+03  0.17206517579E+03 0.  0.
         24    2    3    3    0    0  0.35720003932E+03  0.14484829070E+03 -0.14548746310E+03  0.41917149485E+03  0.77234997044E+02 0.  0.
         -6    2    1    2    0  501 -0.79140259684E+03 -0.19281785507E+03 -0.39097544812E+03  0.91877667157E+03  0.16670925492E+03 0.  0.
        -24    2    5    5    0    0 -0.70952130639E+03 -0.16008506097E+03 -0.29465882139E+03  0.78810546541E+03  0.72378813344E+02 0.  0.
          5    1    3    3  502    0  0.43420255753E+03  0.47969564368E+02 -0.23701806479E+03  0.49702373495E+03  0.47000000000E+01 0. -1.
        -11    1    4    4    0    0  0.13985897406E+03  0.16979742130E+02 -0.48589928755E+02  0.14902961264E+03  0.00000000000E+00 0.  1.
         12    1    4    4    0    0  0.21734106525E+03  0.12786854857E+03 -0.96897534342E+02  0.27014188220E+03  0.00000000000E+00 0. -1.
         -5    1    5    5    0  501 -0.81881290455E+02 -0.32732794102E+02 -0.96316626733E+02  0.13067120617E+03  0.47000000000E+01 0.  1.
         13    1    6    6    0    0 -0.35415917334E+03 -0.11479668679E+03 -0.16340479572E+03  0.40658102098E+03  0.00000000000E+00 0. -1.
        -14    1    6    6    0    0 -0.35536213305E+03 -0.45288374173E+02 -0.13125402567E+03  0.38152444443E+03  0.00000000000E+00 0.  1.
</event>
<event>
12    1  0.1081556E+000  0.8689557E+03  0.7818608E-02  0.9465243E-01
         -2   -1    0    0    0  501 -0.00000000000E+00  0.00000000000E+00  0.44272665215E+03  0.44272665215E+03  0.00000000000E+00 0.  1.
          2   -1    0    0  502    0  0.00000000000E+00 -0.00000000000E+00 -0.19735379763E+04  0.19735379763E+04  0.00000000000E+00 0. -1.
          6    2    1    2  502    0 -0.84670715595E+03  0.94627812069E+02 -0.12106803392E+04  0.14902948710E+04  0.17136069553E+03 0.  0.
         24    2    3    3    0    0 -0.72695418660E+03  0.92123417614E+02 -0.11180768670E+04  0.13388203229E+04  0.73449730898E+02 0.  0.
         -6    2    1    2    0  501  0.84670715595E+03 -0.94627812069E+02 -0.32013098493E+03  0.92596975747E+03  0.17049549402E+03 0.  0.
        -24    2    5    5    0    0  0.57148697882E+03 -0.12930132389E+03 -0.21250450379E+03  0.62838960396E+03  0.79994567997E+02 0.  0.
          5    1    3    3  502    0 -0.11975296935E+03  0.25043944548E+01 -0.92603472284E+02  0.15147454816E+03  0.47000000000E+01 0. -1.
        -11    1    4    4    0    0 -0.41607981017E+03  0.39292907534E+02 -0.57507449575E+03  0.71089873869E+03  0.00000000000E+00 0.  1.
         12    1    4    4    0    0 -0.31087437643E+03  0.52830510079E+02 -0.54300237121E+03  0.62792158416E+03  0.00000000000E+00 0. -1.
         -5    1    5    5    0  501  0.27522017712E+03  0.34673511826E+02 -0.10762648113E+03  0.29758015350E+03  0.47000000000E+01 0.  1.
         13    1    6    6    0    0  0.14513110821E+03 -0.31366748708E+02 -0.17757694368E+02  0.14954011905E+03  0.00000000000E+00 0. -1.
        -14    1    6    6    0    0  0.42635587061E+03 -0.97934575187E+02 -0.19474680942E+03  0.47884948491E+03  0.00000000000E+00 0.  1.
</event>
<event>
12    1  0.1081556E+000  0.5582563E+03  0.7818608E-02  0.9996008E-01
         -1   -1    0    0    0  501 -0.00000000000E+00  0.00000000000E+00  0.68951397657E+03  0.68951397657E+03  0.00000000000E+00 0.  1.
          1   -1    0    0  502    0  0.00000000000E+00 -0.00000000000E+00 -0.89877876654E+03  0.89877876654E+03  0.00000000000E+00 0. -1.
          6    2    1    2  502    0  0.23624261193E+03  0.47436044339E+03  0.45535170311E+03  0.71989944561E+03  0.17344058441E+03 0.  0.
         24    2    3    3    0    0  0.13271333762E+03  0.22527494639E+03  0.14659998987E+03  0.30988529234E+03  0.78585659780E+02 0.  0.
         -6    2    1    2    0  501 -0.23624261193E+03 -0.47436044339E+03 -0.66461649308E+03  0.86839329751E+03  0.17766100961E+03 0.  0.
        -24    2    5    5    0    0 -0.22184635734E+03 -0.44439635682E+03 -0.53535878309E+03  0.73484651086E+03  0.81770652887E+02 0.  0.
          5    1    3    3  502    0  0.10352927431E+03  0.24908549699E+03  0.30875171325E+03  0.41001415327E+03  0.47000000000E+01 0. -1.
        -11    1    4    4    0    0 -0.11246979067E+01  0.35712492248E+02  0.42590382110E+02  0.55593054388E+02  0.00000000000E+00 0.  1.
         12    1    4    4    0    0  0.13383803553E+03  0.18956245415E+03  0.10400960776E+03  0.25429223795E+03  0.00000000000E+00 0. -1.
         -5    1    5    5    0  501 -0.14396254589E+02 -0.29964086562E+02 -0.12925770999E+03  0.13354678664E+03  0.47000000000E+01 0.  1.
         11    1    6    6    0    0 -0.17764921757E+03 -0.40902066695E+03 -0.48776428182E+03  0.66088663560E+03  0.00000000000E+00 0. -1.
        -12    1    6    6    0    0 -0.44197139770E+02 -0.35375689877E+02 -0.47594501269E+02  0.73959875265E+02  0.00000000000E+00 0.  1.
</event>
<event>
12    1  0.1081556E+000  0.4144695E+03  0.7818608E-02  0.1038881E+00
         -1   -1    0    0    0  501 -0.00000000000E+00  0.00000000000E+00  0.57587691647E+03  0.57587691647E+03  0.00000000000E+00 0.  1.
          1   -1    0    0  502    0  0.00000000000E+00 -0.00000000000E+00 -0.24779640698E+04  0.24779640698E+04  0.00000000000E+00 0. -1.
          6    2    1    2  502    0 -0.20126049969E+03 -0.31497087290E+03  0.48171572646E+03  0.63383896004E+03  0.17317432441E+03 0.  0.
         24    2    3    3    0    0 -0.19716476864E+03 -0.18478519046E+03  0.32245182769E+03  0.42804254031E+03  0.78903247865E+02 0.  0.
         -6    2    1    2    0  501  0.20126049969E+03  0.31497087290E+03 -0.23838028798E+04  0.24200020262E+04  0.18488157762E+03 0.  0.
        -24    2    5    5    0    0  0.22296336458E+03  0.27267561151E+03 -0.19960810564E+04  0.20293484639E+04  0.99251966655E+02 0.  0.
          5    1    3    3  502    0 -0.40957310517E+01 -0.13018568243E+03  0.15926389877E+03  0.20579641974E+03  0.47000000000E+01 0. -1.
        -11    1    4    4    0    0 -0.15956099068E+03 -0.11730393209E+03  0.18848445710E+03  0.27339771909E+03  0.00000000000E+00 0.  1.
         12    1    4    4    0    0 -0.37603777957E+02 -0.67481258371E+02  0.13396737059E+03  0.15464482122E+03  0.00000000000E+00 0. -1.
         -5    1    5    5    0  501 -0.21702864882E+02  0.42295261390E+02 -0.38772182333E+03  0.39065356234E+03  0.47000000000E+01 0.  1.
         11    1    6    6    0    0  0.19756200418E+03  0.26347346697E+03 -0.19310435746E+04  0.19589227398E+04  0.00000000000E+00 0. -1.
        -12    1    6    6    0    0  0.25401360396E+02  0.92021445415E+01 -0.65037481801E+02  0.70425724087E+02  0.00000000000E+00 0.  1.
</event>
<event>
12    1  0.1081556E+000  0.5972281E+03  0.7818608E-02  0.9911174E-01
         -4   -1    0    0    0  501 -0.00000000000E+00  0.00000000000E+00  0.48781611885E+03  0.48781611885E+03  0.00000000000E+00 0.  1.
          4   -1    0    0  502    0  0.00000000000E+00 -0.00000000000E+00 -0.10536743563E+04  0.10536743563E+04  0.00000000000E+00 0. -1.
          6    2    1    2  502    0  0.46268307123E+03  0.33416113502E+03  0.14373665270E+03  0.61349667657E+03  0.17314346155E+03 0.  0.
         24    2    3    3    0    0  0.21470759144E+03  0.13512740883E+03  0.12670682288E+03  0.29503417039E+03  0.81435718808E+02 0.  0.
         -6    2    1    2    0  501 -0.46268307123E+03 -0.33416113502E+03 -0.70959489015E+03  0.92799379858E+03  0.17862892685E+03 0.  0.
        -24    2    5    5    0    0 -0.30330401562E+03 -0.28615486138E+03 -0.56556225858E+03  0.70782619280E+03  0.85318932849E+02 0.  0.
          5    1    3    3  502    0  0.24797547979E+03  0.19903372619E+03  0.17029829821E+02  0.31846250618E+03  0.47000000000E+01 0. -1.
        -13    1    4    4    0    0  0.12416138908E+03  0.44666485152E+02  0.31895584451E+02  0.13575151470E+03  0.00000000000E+00 0.  1.
         14    1    4    4    0    0  0.90546202351E+02  0.90460923676E+02  0.94811238429E+02  0.15928265569E+03  0.00000000000E+00 0. -1.
         -5    1    5    5    0  501 -0.15937905561E+03 -0.48006273636E+02 -0.14403263157E+03  0.22016760578E+03  0.47000000000E+01 0.  1.
         11    1    6    6    0    0 -0.27764020831E+03 -0.21906831394E+03 -0.47672982454E+03  0.59358768270E+03  0.00000000000E+00 0. -1.
        -12    1    6    6    0    0 -0.25663807303E+02 -0.67086547440E+02 -0.88832434035E+02  0.11423851010E+03  0.00000000000E+00 0.  1.
</event>
<event>
12    1  0.1081556E+000  0.2663839E+03  0.7818608E-02  0.1103367E+00
          2   -1    0    0  502    0  0.00000000000E+00  0.00000000000E+00  0.92236790942E+03  0.92236790942E+03  0.00000000000E+00 0. -1.
         -2   -1    0    0    0  501 -0.00000000000E+00 -0.00000000000E+00 -0.40548582643E+03  0.40548582643E+03  0.00000000000E+00 0.  1.
          6    2    1    2  502    0  0.12703308374E+03  0.15781812301E+03 -0.33918473181E+03  0.43131163377E+03  0.17303028296E+03 0.  0.
         24    2    3    3    0    0  0.15534930085E+03  0.10999152645E+03 -0.23138172722E+03  0.30993301421E+03  0.79305916788E+02 0.  0.
         -6    2    1    2    0  501 -0.12703308374E+03 -0.15781812301E+03  0.85606681480E+03  0.89654210209E+03  0.17289703612E+03 0.  0.
        -24    2    5    5    0    0 -0.76720689512E+02 -0.17879946920E+03  0.70689032464E+03  0.73764820945E+03  0.81090291980E+02 0.  0.
          5    1    3    3  502    0 -0.28316217107E+02  0.47826596568E+02 -0.10780300458E+03  0.12137861957E+03  0.47000000000E+01 0. -1.
        -11    1    4    4    0    0  0.71441653259E+02  0.97101155654E+02 -0.12250409745E+03  0.17187145819E+03  0.00000000000E+00 0.  1.
         12    1    4    4    0    0  0.83907647592E+02  0.12890370792E+02 -0.10887762977E+03  0.13806155601E+03  0.00000000000E+00 0. -1.
         -5    1    5    5    0  501 -0.50312394232E+02  0.20981346183E+02  0.14917649016E+03  0.15889389264E+03  0.47000000000E+01 0.  1.
         13    1    6    6    0    0  0.86244885383E+01 -0.21926215294E+02  0.17496546327E+03  0.17654476502E+03  0.00000000000E+00 0. -1.
        -14    1    6    6    0    0 -0.85345178051E+02 -0.15687325390E+03  0.53192486137E+03  0.56110344443E+03  0.00000000000E+00 0.  1.
</event>
<event>
12    1  0.1081556E+000  0.3996290E+03  0.7818608E-02  0.1043908E+00
          2   -1    0    0  502    0  0.00000000000E+00  0.00000000000E+00  0.10603900069E+04  0.10603900069E+04  0.00000000000E+00 0. -1.
         -2   -1    0    0    0  501 -0.00000000000E+00 -0.00000000000E+00 -0.23395423917E+03  0.23395423917E+03  0.00000000000E+00 0.  1.
          6    2    1    2  502    0 -0.12205334207E+03 -0.33919557395E+03  0.26741537678E+02  0.40022121216E+03  0.17178839637E+03 0.  0.
         24    2    3    3    0    0 -0.91839835221E+02 -0.24852450124E+03  0.82882152090E+02  0.28927997542E+03  0.81329391953E+02 0.  0.
         -6    2    1    2    0  501  0.12205334207E+03  0.33919557395E+03  0.79969423009E+03  0.89412303395E+03  0.17318915241E+03 0.  0.
        -24    2    5    5    0    0  0.46967071194E+02  0.25842890736E+03  0.66898937681E+03  0.72304687788E+03  0.79111284876E+02 0.  0.
          5    1    3    3  502    0 -0.30213506849E+02 -0.90671072707E+02 -0.56140614411E+02  0.11094123674E+03  0.47000000000E+01 0. -1.
        -11    1    4    4    0    0 -0.52475422141E+02 -0.56106351290E+02  0.19259369242E+01  0.76845961617E+02  0.00000000000E+00 0.  1.
         12    1    4    4    0    0 -0.39364413081E+02 -0.19241814995E+03  0.80956215165E+02  0.21243401381E+03  0.00000000000E+00 0. -1.
         -5    1    5    5    0  501  0.75086270876E+02  0.80766666584E+02  0.13070485328E+03  0.17107615607E+03  0.47000000000E+01 0.  1.
         11    1    6    6    0    0  0.51909115994E+02  0.78472406316E+02  0.24306774711E+03  0.26064229235E+03  0.00000000000E+00 0. -1.
        -12    1    6    6    0    0 -0.49420448008E+01  0.17995650105E+03  0.42592162970E+03  0.46240458554E+03  0.00000000000E+00 0.  1.
</event>
<event>
12    1  0.1081556E+000  0.4758560E+03  0.7818608E-02  0.1020280E+00
          3   -1    0    0  502    0  0.00000000000E+00  0.00000000000E+00  0.11949329008E+04  0.11949329008E+04  0.00000000000E+00 0. -1.
         -3   -1    0    0    0  501 -0.00000000000E+00 -0.00000000000E+00 -0.25987877696E+03  0.25987877696E+03  0.00000000000E+00 0.  1.
          6    2    1    2  502    0 -0.19900178303E+03  0.39699592687E+03  0.88860328787E+02  0.48391082263E+03  0.17048768468E+03 0.  0.
         24    2    3    3    0    0 -0.80624660698E+02  0.12367185539E+03 -0.16642014406E+02  0.16788546675E+03  0.78188935108E+02 0.  0.
         -6    2    1    2    0  501  0.19900178303E+03 -0.39699592687E+03  0.84619379505E+03  0.97090085513E+03  0.17145569726E+03 0.  0.
        -24    2    5    5    0    0  0.21369858490E+03 -0.33669295133E+03  0.78211467171E+03  0.88156626558E+03  0.80165405445E+02 0.  0.
          5    1    3    3  502    0 -0.11837712233E+03  0.27332407148E+03  0.10550234319E+03  0.31602535588E+03  0.47000000000E+01 0. -1.
        -11    1    4    4    0    0 -0.79252217111E+02  0.66128593029E+02 -0.32443108420E+02  0.10819639558E+03  0.00000000000E+00 0.  1.
         12    1    4    4    0    0 -0.13724435867E+01  0.57543262360E+02  0.15801094014E+02  0.59689071164E+02  0.00000000000E+00 0. -1.
         -5    1    5    5    0  501 -0.14696801868E+02 -0.60302975539E+02  0.64079123334E+02  0.89334589556E+02  0.47000000000E+01 0.  1.
         13    1    6    6    0    0  0.43131987841E+02 -0.12350423683E+03  0.20594029162E+03  0.24397759857E+03  0.00000000000E+00 0. -1.
        -14    1    6    6    0    0  0.17056659706E+03 -0.21318871450E+03  0.57617438009E+03  0.63758866700E+03  0.00000000000E+00 0.  1.
</event>
<event>
12    1  0.1081556E+000  0.3695791E+03  0.7818608E-02  0.1054854E+00
         -2   -1    0    0    0  501 -0.00000000000E+00  0.00000000000E+00  0.13577545728E+03  0.13577545728E+03  0.00000000000E+00 0.  1.
          2   -1    0    0  502    0  0.00000000000E+00 -0.00000000000E+00 -0.11584039028E+04  0.11584039028E+04  0.00000000000E+00 0. -1.
          6    2    1    2  502    0  0.31499467602E+03  0.88063800410E+02 -0.27653774946E+03  0.46154746917E+03  0.17197691868E+03 0.  0.
         24    2    3    3    0    0  0.89245925291E+02 -0.14212111404E+02 -0.80025134284E+02  0.14522143718E+03  0.80736759951E+02 0.  0.
         -6    2    1    2    0  501 -0.31499467602E+03 -0.88063800410E+02 -0.74609069602E+03  0.83263189087E+03  0.17218495910E+03 0.  0.
        -24    2    5    5    0    0 -0.31652716317E+03 -0.10841715414E+03 -0.72682784311E+03  0.80417569599E+03  0.80474295033E+02 0.  0.
          5    1    3    3  502    0  0.22574875073E+03  0.10227591181E+03 -0.19651261517E+03  0.31632603199E+03  0.47000000000E+01 0. -1.
        -11    1    4    4    0    0  0.53426660734E+02 -0.47493702049E+02 -0.55622785432E+02  0.90575681454E+02  0.00000000000E+00 0.  1.
         12    1    4    4    0    0  0.35819264556E+02  0.33281590645E+02 -0.24402348851E+02  0.54645755724E+02  0.00000000000E+00 0. -1.
         -5    1    5    5    0  501  0.15324871514E+01  0.20353353728E+02 -0.19262852907E+02  0.28456194879E+02  0.47000000000E+01 0.  1.
         13    1    6    6    0    0 -0.25130112142E+03 -0.49409618911E+02 -0.53481037610E+03  0.59297192384E+03  0.00000000000E+00 0. -1.
        -14    1    6    6    0    0 -0.65226041748E+02 -0.59007535227E+02 -0.19201746701E+03  0.21120377215E+03  0.00000000000E+00 0.  1.
</event>
<event>
12    1  0.1081556E+000  0.1088412E+04  0.7818608E-02  0.9216560E-01
         -2   -1    0    0    0  501 -0.00000000000E+00  0.00000000000E+00  0.65682048027E+03  0.65682048027E+03  0.00000000000E+00 0.  1.
          2   -1    0    0  502    0  0.00000000000E+00 -0.00000000000E+00 -0.26543313559E+04  0.26543313559E+04  0.00000000000E+00 0. -1.
          6    2    1    2  502    0 -0.10754967357E+03 -0.10693918032E+04 -0.61473255965E+02  0.10901378768E+04  0.17162711938E+03 0.  0.
         24    2    3    3    0    0 -0.10942939141E+03 -0.47816798326E+03 -0.22688122245E+02  0.49762161943E+03  0.80579856725E+02 0.  0.
         -6    2    1    2    0  501  0.10754967357E+03  0.10693918032E+04 -0.19360376197E+04  0.22210139594E+04  0.17174277875E+03 0.  0.
        -24    2    5    5    0    0  0.83600277277E+02  0.39981247701E+03 -0.67926890920E+03  0.79679497018E+03  0.81467480432E+02 0.  0.
          5    1    3    3  502    0  0.18797178381E+01 -0.59122381995E+03 -0.38785133719E+02  0.59251625734E+03  0.47000000000E+01 0. -1.
        -13    1    4    4    0    0 -0.40972642446E+02 -0.34411698372E+03 -0.13011578802E+02  0.34679180656E+03  0.00000000000E+00 0.  1.
         14    1    4    4    0    0 -0.68456748967E+02 -0.13405099954E+03 -0.96765434429E+01  0.15082981287E+03  0.00000000000E+00 0. -1.
         -5    1    5    5    0  501  0.23949396298E+02  0.66957932620E+03 -0.12567687105E+04  0.14242189892E+04  0.47000000000E+01 0.  1.
         11    1    6    6    0    0  0.62344165696E+02  0.11626873442E+03 -0.22791029252E+03  0.26334068245E+03  0.00000000000E+00 0. -1.
        -12    1    6    6    0    0  0.21256111581E+02  0.28354374260E+03 -0.45135861668E+03  0.53345428773E+03  0.00000000000E+00 0.  1.
</event>
<event>
12    1  0.1081556E+000  0.9909277E+03  0.7818608E-02  0.9318551E-01
          2   -1    0    0  502    0  0.00000000000E+00  0.00000000000E+00  0.68808650525E+03  0.68808650525E+03  0.00000000000E+00 0. -1.
         -2   -1    0    0    0  501 -0.00000000000E+00 -0.00000000000E+00 -0.19106651424E+04  0.19106651424E+04  0.00000000000E+00 0.  1.
          6    2    1    2  502    0 -0.48796948304E+03 -0.84508147075E+03 -0.12650535990E+04  0.16070160841E+04  0.17280965672E+03 0.  0.
         24    2    3    3    0    0 -0.17351303513E+03 -0.33828678193E+03 -0.58489190621E+03  0.70238039351E+03  0.81822705001E+02 0.  0.
         -6    2    1    2    0  501  0.48796948304E+03  0.84508147075E+03  0.42474961827E+02  0.99173556364E+03  0.17163448726E+03 0.  0.
        -24    2    5    5    0    0  0.12108751794E+03  0.23758413300E+03 -0.28480333386E+02  0.27849497617E+03  0.75099368229E+02 0.  0.
          5    1    3    3  502    0 -0.31445644791E+03 -0.50679468882E+03 -0.68016169282E+03  0.90463569055E+03  0.47000000000E+01 0. -1.
        -13    1    4    4    0    0 -0.83118181118E+02 -0.85983523865E+02 -0.20770437843E+03  0.23967249994E+03  0.00000000000E+00 0.  1.
         14    1    4    4    0    0 -0.90394854011E+02 -0.25230325807E+03 -0.37718752778E+03  0.46270789357E+03  0.00000000000E+00 0. -1.
         -5    1    5    5    0  501  0.36688196510E+03  0.60749733774E+03  0.70955295213E+02  0.71324058746E+03  0.47000000000E+01 0.  1.
         11    1    6    6    0    0  0.11195823851E+03  0.15284166370E+03 -0.28128726394E+01  0.18948122225E+03  0.00000000000E+00 0. -1.
        -12    1    6    6    0    0  0.91292794289E+01  0.84742469301E+02 -0.25667460746E+02  0.89013753921E+02  0.00000000000E+00 0.  1.
</event>
<event>
12    1  0.1081556E+000  0.2892893E+03  0.7818608E-02  0.1090721E+00
         -2   -1    0    0    0  501 -0.00000000000E+00  0.00000000000E+00  0.49707231577E+03  0.49707231577E+03  0.00000000000E+00 0.  1.
          2   -1    0    0  502    0  0.00000000000E+00 -0.00000000000E+00 -0.66197376980E+03  0.66197376980E+03  0.00000000000E+00 0. -1.
          6    2    1    2  502    0 -0.37190497183E+02  0.23054621876E+03  0.41802258208E+03  0.50801259319E+03  0.16970334011E+03 0.  0.
         24    2    3    3    0    0  0.80566775610E+01  0.17135362699E+03  0.37985959250E+03  0.42417004125E+03  0.78739687199E+02 0.  0.
         -6    2    1    2    0  501  0.37190497183E+02 -0.23054621876E+03 -0.58292403612E+03  0.65103349238E+03  0.17178324787E+03 0.  0.
        -24    2    5    5    0    0 -0.10484119081E+01 -0.13489687974E+03 -0.48677109145E+03  0.51004239694E+03  0.70702785481E+02 0.  0.
          5    1    3    3  502    0 -0.45247174744E+02  0.59192591770E+02  0.38162989578E+02  0.83842551943E+02  0.47000000000E+01 0. -1.
        -11    1    4    4    0    0  0.36085359500E+02  0.13244122153E+03  0.24217821799E+03  0.27837586030E+03  0.00000000000E+00 0.  1.
         12    1    4    4    0    0 -0.28028681939E+02  0.38912405465E+02  0.13768137451E+03  0.14579418095E+03  0.00000000000E+00 0. -1.
         -5    1    5    5    0  501  0.38238909091E+02 -0.95649339024E+02 -0.96152944665E+02  0.14099109544E+03  0.47000000000E+01 0.  1.
         11    1    6    6    0    0 -0.41689055282E+00 -0.11020621229E+03 -0.26646307567E+03  0.28835421572E+03  0.00000000000E+00 0. -1.
        -12    1    6    6    0    0 -0.63152135524E+00 -0.24690667449E+02 -0.22030801578E+03  0.22168818123E+03  0.00000000000E+00 0.  1.
</event>
<event>
12    1  0.1081556E+000  0.6105679E+03  0.7818608E-02  0.9883720E-01
          1   -1    0    0  502    0  0.00000000000E+00  0.00000000000E+00  0.20096438148E+04  0.20096438148E+04  0.00000000000E+00 0. -1.
         -1   -1    0    0    0  501 -0.00000000000E+00 -0.00000000000E+00 -0.22313299559E+03  0.22313299559E+03  0.00000000000E+00 0.  1.
          6    2    1    2  502    0  0.51930397750E+03 -0.27786113462E+03  0.43226393499E+03  0.74639212579E+03  0.15285831599E+03 0.  0.
         24    2    3    3    0    0  0.34179180860E+03 -0.13684311795E+03  0.31704493886E+03  0.49204166244E+03  0.77716310843E+02 0.  0.
         -6    2    1    2    0  501 -0.51930397750E+03  0.27786113462E+03  0.13542468842E+04  0.14863846846E+04  0.16873463191E+03 0.  0.
        -24    2    5    5    0    0 -0.34029364783E+03  0.21893703318E+03  0.78546218747E+03  0.88717281129E+03  0.79947219416E+02 0.  0.
          5    1    3    3  502    0  0.17751216890E+03 -0.14101801667E+03  0.11521899614E+03  0.25435046334E+03  0.47000000000E+01 0. -1.
        -11    1    4    4    0    0  0.15197805903E+03 -0.60012091095E+02  0.90972638104E+02  0.18701551376E+03  0.00000000000E+00 0.  1.
         12    1    4    4    0    0  0.18981374957E+03 -0.76831026851E+02  0.22607230075E+03  0.30502614868E+03  0.00000000000E+00 0. -1.
         -5    1    5    5    0  501 -0.17901032967E+03  0.58924101439E+02  0.56878469672E+03  0.59921187329E+03  0.47000000000E+01 0.  1.
         11    1    6    6    0    0 -0.16137042628E+03  0.77496242930E+02  0.41746888545E+03  0.45423160663E+03  0.00000000000E+00 0. -1.
        -12    1    6    6    0    0 -0.17892322155E+03  0.14144079025E+03  0.36799330202E+03  0.43294120466E+03  0.00000000000E+00 0.  1.
</event>
<event>
12    1  0.1081556E+000  0.2614524E+03  0.7818608E-02  0.1106274E+00
         -2   -1    0    0    0  501 -0.00000000000E+00  0.00000000000E+00  0.15975898942E+03  0.15975898942E+03  0.00000000000E+00 0.  1.
          2   -1    0    0  502    0  0.00000000000E+00 -0.00000000000E+00 -0.72886306083E+03  0.72886306083E+03  0.00000000000E+00 0. -1.
          6    2    1    2  502    0  0.18478497790E+03  0.65130005309E+02  0.10553417766E+01  0.26131775855E+03  0.17291168710E+03 0.  0.
         24    2    3    3    0    0  0.15813793440E+03  0.76459180198E+02 -0.52991046095E+02  0.19982371678E+03  0.79169781399E+02 0.  0.
         -6    2    1    2    0  501 -0.18478497790E+03 -0.65130005309E+02 -0.57015941318E+03  0.62730429170E+03  0.17332487502E+03 0.  0.
        -24    2    5    5    0    0 -0.12445529105E+03 -0.70108861671E+02 -0.23345670094E+03  0.28517088709E+03  0.80100135284E+02 0.  0.
          5    1    3    3  502    0  0.26647043502E+02 -0.11329174889E+02  0.54046387872E+02  0.61494041768E+02  0.47000000000E+01 0. -1.
        -11    1    4    4    0    0  0.11264933827E+03  0.91106129402E+02 -0.40098904306E+02  0.15032671869E+03  0.00000000000E+00 0.  1.
         12    1    4    4    0    0  0.45488596135E+02 -0.14646949204E+02 -0.12892141789E+02  0.49496998083E+02  0.00000000000E+00 0. -1.
         -5    1    5    5    0  501 -0.60329686856E+02  0.49788563616E+01 -0.33670271224E+03  0.34213340462E+03  0.47000000000E+01 0.  1.
         11    1    6    6    0    0 -0.94319813480E+01 -0.43038730637E+02 -0.81822378200E+02  0.92931136770E+02  0.00000000000E+00 0. -1.
        -12    1    6    6    0    0 -0.11502330970E+03 -0.27070131033E+02 -0.15163432274E+03  0.19223975032E+03  0.00000000000E+00 0.  1.
</event>
<event>
12    1  0.1081556E+000  0.4802597E+03  0.7818608E-02  0.1019064E+00
         -2   -1    0    0    0  501 -0.00000000000E+00  0.00000000000E+00  0.17020129704E+03  0.17020129704E+03  0.00000000000E+00 0.  1.
          2   -1    0    0  502    0  0.00000000000E+00 -0.00000000000E+00 -0.13764849349E+04  0.13764849349E+04  0.00000000000E+00 0. -1.
          6    2    1    2  502    0  0.37243123559E+03 -0.24978979050E+03 -0.69917077667E+03  0.84811909220E+03  0.17136585112E+03 0.  0.
         24    2    3    3    0    0  0.16800609830E+03 -0.14724994221E+03 -0.25480208917E+03  0.34832945878E+03  0.80626997113E+02 0.  0.
         -6    2    1    2    0  501 -0.37243123559E+03  0.24978979050E+03 -0.50711286121E+03  0.69856713976E+03  0.17243152282E+03 0.  0.
        -24    2    5    5    0    0 -0.33191036526E+03  0.15378054640E+03 -0.42773380993E+03  0.56748380875E+03  0.72585907858E+02 0.  0.
          5    1    3    3  502    0  0.20442513729E+03 -0.10253984829E+03 -0.44436868750E+03  0.49978963342E+03  0.47000000000E+01 0. -1.
        -11    1    4    4    0    0  0.25513229098E+02 -0.34968236123E+02 -0.11408879215E+02  0.44764549830E+02  0.00000000000E+00 0.  1.
         12    1    4    4    0    0  0.14249286920E+03 -0.11228170609E+03 -0.24339320995E+03  0.30356490895E+03  0.00000000000E+00 0. -1.
         -5    1    5    5    0  501 -0.40520870331E+02  0.96009244103E+02 -0.79379051279E+02  0.13108333101E+03  0.47000000000E+01 0.  1.
         11    1    6    6    0    0 -0.52624679468E+02  0.29939161480E+02 -0.35072582458E+02  0.69969967268E+02  0.00000000000E+00 0. -1.
        -12    1    6    6    0    0 -0.27928568579E+03  0.12384138492E+03 -0.39266122748E+03  0.49751384149E+03  0.00000000000E+00 0.  1.
</event>
<event>
12    1  0.1081556E+000  0.3870242E+03  0.7818608E-02  0.1048368E+00
          1   -1    0    0  502    0  0.00000000000E+00  0.00000000000E+00  0.51114927035E+03  0.51114927035E+03  0.00000000000E+00 0. -1.
         -1   -1    0    0    0  501 -0.00000000000E+00 -0.00000000000E+00 -0.44682270060E+03  0.44682270060E+03  0.00000000000E+00 0.  1.
          6    2    1    2  502    0 -0.34989941969E+03  0.45255021418E+01 -0.24898973463E+03  0.45746980082E+03  0.15758377657E+03 0.  0.
         24    2    3    3    0    0 -0.23233384106E+03 -0.30356825057E+02 -0.22538520767E+03  0.33249898134E+03  0.69688809889E+02 0.  0.
         -6    2    1    2    0  501  0.34989941969E+03 -0.45255021418E+01  0.31331630439E+03  0.50050217013E+03  0.17287345557E+03 0.  0.
        -24    2    5    5    0    0  0.21183956171E+03  0.22066953845E+02  0.10661588427E+03  0.25047249833E+03  0.77502098597E+02 0.  0.
          5    1    3    3  502    0 -0.11756557863E+03  0.34882327198E+02 -0.23604526967E+02  0.12497081948E+03  0.47000000000E+01 0. -1.
        -13    1    4    4    0    0 -0.22569065180E+03 -0.31089632490E+02 -0.19048207072E+03  0.29696170599E+03  0.00000000000E+00 0.  1.
         14    1    4    4    0    0 -0.66431892639E+01  0.73280743368E+00 -0.34903136949E+02  0.35537275348E+02  0.00000000000E+00 0. -1.
         -5    1    5    5    0  501  0.13805985799E+03 -0.26592455987E+02  0.20670042011E+03  0.25002967180E+03  0.47000000000E+01 0.  1.
         11    1    6    6    0    0  0.21365157969E+03  0.17939491849E+02  0.11323169084E+03  0.24246698472E+03  0.00000000000E+00 0. -1.
        -12    1    6    6    0    0 -0.18120179809E+01  0.41274619964E+01 -0.66158065647E+01  0.80055136123E+01  0.00000000000E+00 0.  1.
</event>
<event>
12    1  0.1081556E+000  0.3029427E+03  0.7818608E-02  0.1083779E+00
         -2   -1    0    0    0  501 -0.00000000000E+00  0.00000000000E+00  0.20944455857E+03  0.20944455857E+03  0.00000000000E+00 0.  1.
          2   -1    0    0  502    0  0.00000000000E+00 -0.00000000000E+00 -0.81086346803E+03  0.81086346803E+03  0.00000000000E+00 0. -1.
          6    2    1    2  502    0 -0.23254443924E+03  0.91466164155E+02  0.45076763761E+02  0.30641038756E+03  0.17150054102E+03 0.  0.
         24    2    3    3    0    0 -0.10217408790E+03  0.64647437673E+02 -0.39008161968E+02  0.14890471359E+03  0.77666862910E+02 0.  0.
         -6    2    1    2    0  501  0.23254443924E+03 -0.91466164155E+02 -0.64649567322E+03  0.71389763903E+03  0.17102692220E+03 0.  0.
        -24    2    5    5    0    0  0.23435841435E+03 -0.40352567093E+02 -0.54700833724E+03  0.60193465260E+03  0.80963009704E+02 0.  0.
          5    1    3    3  502    0 -0.13037035134E+03  0.26818726482E+02  0.84084925729E+02  0.15750567397E+03  0.47000000000E+01 0. -1.
        -11    1    4    4    0    0 -0.21183693305E+02  0.17151198485E+02  0.23600815482E+02  0.36054278012E+02  0.00000000000E+00 0.  1.
         12    1    4    4    0    0 -0.80990394594E+02  0.47496239188E+02 -0.62608977450E+02  0.11285043558E+03  0.00000000000E+00 0. -1.
         -5    1    5    5    0  501 -0.18139751156E+01 -0.51113597061E+02 -0.99487335981E+02  0.11196298643E+03  0.47000000000E+01 0.  1.
         11    1    6    6    0    0  0.22828647750E+03 -0.36926520209E+02 -0.46204215003E+03  0.51668291254E+03  0.00000000000E+00 0. -1.
        -12    1    6    6    0    0  0.60719368529E+01 -0.34260468843E+01 -0.84966187214E+02  0.85251740065E+02  0.00000000000E+00 0.  1.
</event>
<event>
12    1  0.1081556E+000  0.6875473E+03  0.7818608E-02  0.9738768E-01
          2   -1    0    0  502    0  0.00000000000E+00  0.00000000000E+00  0.95763835696E+03  0.95763835696E+03  0.00000000000E+00 0. -1.
         -2   -1    0    0    0  501 -0.00000000000E+00 -0.00000000000E+00 -0.68320811007E+03  0.68320811007E+03  0.00000000000E+00 0.  1.
          6    2    1    2  502    0  0.23922626636E+03 -0.62018038075E+03 -0.29506909537E+03  0.74744396932E+03  0.17249291305E+03 0.  0.
         24    2    3    3    0    0  0.10618883276E+03 -0.46735664383E+03 -0.22921800873E+03  0.53434186019E+03  0.57288980537E+02 0.  0.
         -6    2    1    2    0  501 -0.23922626636E+03  0.62018038075E+03  0.56949934225E+03  0.89340249771E+03  0.17884521491E+03 0.  0.
        -24    2    5    5    0    0 -0.21606752117E+03  0.40349411892E+03  0.44626990878E+03  0.64300911357E+03  0.69362893135E+02 0.  0.
          5    1    3    3  502    0  0.13303743360E+03 -0.15282373693E+03 -0.65851086633E+02  0.21310210913E+03  0.47000000000E+01 0. -1.
        -13    1    4    4    0    0  0.41592448612E+02 -0.82809579808E+02 -0.40262902590E+02  0.10103692204E+03  0.00000000000E+00 0.  1.
         14    1    4    4    0    0  0.64596384146E+02 -0.38454706402E+03 -0.18895510614E+03  0.43330493815E+03  0.00000000000E+00 0. -1.
         -5    1    5    5    0  501 -0.23158745190E+02  0.21668626183E+03  0.12322943347E+03  0.25039338413E+03  0.47000000000E+01 0.  1.
         11    1    6    6    0    0 -0.49835694987E+02  0.86023993264E+02  0.60052728616E+02  0.11614669227E+03  0.00000000000E+00 0. -1.
        -12    1    6    6    0    0 -0.16623182618E+03  0.31747012566E+03  0.38621718017E+03  0.52686242130E+03  0.00000000000E+00 0.  1.
</event>
<event>
12    1  0.1081556E+000  0.1061766E+04  0.7818608E-02  0.9243280E-01
         -1   -1    0    0    0  501 -0.00000000000E+00  0.00000000000E+00  0.65913890991E+03  0.65913890991E+03  0.00000000000E+00 0.  1.
          1   -1    0    0  502    0  0.00000000000E+00 -0.00000000000E+00 -0.17563045738E+04  0.17563045738E+04  0.00000000000E+00 0. -1.
          6    2    1    2  502    0  0.84574084992E+03 -0.61835207892E+03 -0.35316366308E+03  0.11189111658E+04  0.17204867114E+03 0.  0.
         24    2    3    3    0    0  0.50319484028E+03 -0.44789019767E+03 -0.20628916297E+03  0.70904627283E+03  0.79879420430E+02 0.  0.
         -6    2    1    2    0  501 -0.84574084992E+03  0.61835207892E+03 -0.74400200078E+03  0.12965323179E+04  0.17268524989E+03 0.  0.
        -24    2    5    5    0    0 -0.37120409382E+03  0.34818354144E+03 -0.38344014819E+03  0.64216001481E+03  0.79491380564E+02 0.  0.
          5    1    3    3  502    0  0.34254600964E+03 -0.17046188125E+03 -0.14687450012E+03  0.40986489294E+03  0.47000000000E+01 0. -1.
        -13    1    4    4    0    0  0.12083014662E+03 -0.64970014751E+02 -0.45048903029E+02  0.14439678255E+03  0.00000000000E+00 0.  1.
         14    1    4    4    0    0  0.38236469366E+03 -0.38292018292E+03 -0.16124025994E+03  0.56464949028E+03  0.00000000000E+00 0. -1.
         -5    1    5    5    0  501 -0.47453675610E+03  0.27016853748E+03 -0.36056185259E+03  0.65437230311E+03  0.47000000000E+01 0.  1.
         13    1    6    6    0    0 -0.33556156080E+03  0.28467544284E+03 -0.34878165755E+03  0.56150718027E+03  0.00000000000E+00 0. -1.
        -14    1    6    6    0    0 -0.35642533012E+02  0.63508098598E+02 -0.34658490645E+02  0.80652834549E+02  0.00000000000E+00 0.  1.
</event>
<event>
12    1  0.1081556E+000  0.6981286E+03  0.7818608E-02  0.9720438E-01
          2   -1    0    0  502    0  0.00000000000E+00  0.00000000000E+00  0.17099232056E+04  0.17099232056E+04  0.00000000000E+00 0. -1.
         -2   -1    0    0    0  501 -0.00000000000E+00 -0.00000000000E+00 -0.42483677065E+03  0.42483677065E+03  0.00000000000E+00 0.  1.
          6    2    1    2  502    0 -0.21325634469E+03  0.64185313677E+03  0.30376627101E+02  0.69901424486E+03  0.17390933648E+03 0.  0.
         24    2    3    3    0    0 -0.80679852494E+02  0.45411501270E+03  0.11337479028E+02  0.46834845054E+03  0.80573254441E+02 0.  0.
         -6    2    1    2    0  501  0.21325634469E+03 -0.64185313677E+03  0.12547098079E+04  0.14357457314E+04  0.17209121301E+03 0.  0.
        -24    2    5    5    0    0  0.12745543833E+03 -0.55758108863E+03  0.10452685445E+04  0.11941855807E+04  0.79695117748E+02 0.  0.
          5    1    3    3  502    0 -0.13257649220E+03  0.18773812406E+03  0.19039148073E+02  0.23066579432E+03  0.47000000000E+01 0. -1.
        -13    1    4    4    0    0 -0.64525946387E+02  0.19078700861E+03  0.31082252038E+02  0.20378760219E+03  0.00000000000E+00 0.  1.
         14    1    4    4    0    0 -0.16153906107E+02  0.26332800409E+03 -0.19744773011E+02  0.26456084836E+03  0.00000000000E+00 0. -1.
         -5    1    5    5    0  501  0.85800906363E+02 -0.84272048139E+02  0.20944126334E+03  0.24156015072E+03  0.47000000000E+01 0.  1.
         13    1    6    6    0    0  0.11350754576E+02 -0.74772894175E+02  0.89979260157E+02  0.11754187590E+03  0.00000000000E+00 0. -1.
        -14    1    6    6    0    0  0.11610468375E+03 -0.48280819445E+03  0.95528928436E+03  0.10766437048E+04  0.00000000000E+00 0.  1.
</event>
<event>
12    1  0.1081556E+000  0.1931102E+03  0.7818608E-02  0.1155686E+00
          2   -1    0    0  502    0  0.00000000000E+00  0.00000000000E+00  0.50921674591E+02  0.50921674591E+02  0.00000000000E+00 0. -1.
         -2   -1    0    0    0  501 -0.00000000000E+00 -0.00000000000E+00 -0.77145544002E+03  0.77145544002E+03  0.00000000000E+00 0.  1.
          6    2    1    2  502    0 -0.62788937590E+02  0.62637386064E+02 -0.45362807801E+03  0.49319125497E+03  0.17202699791E+03 0.  0.
         24    2    3    3    0    0 -0.16706174597E+02  0.14242095793E+02 -0.81658975059E+02  0.11523778070E+03  0.78291917409E+02 0.  0.
         -6    2    1    2    0  501  0.62788937590E+02 -0.62637386064E+02 -0.26690568743E+03  0.32918585964E+03  0.17105201370E+03 0.  0.
        -24    2    5    5    0    0  0.87983548945E+02 -0.19297978531E+02 -0.10634842825E+03  0.16091882139E+03  0.80444776252E+02 0.  0.
          5    1    3    3  502    0 -0.46082762993E+02  0.48395290271E+02 -0.37196910295E+03  0.37795347427E+03  0.47000000000E+01 0. -1.
        -13    1    4    4    0    0  0.14567027350E+02  0.92088865485E+01 -0.81765512588E+02  0.83561958606E+02  0.00000000000E+00 0.  1.
         14    1    4    4    0    0 -0.31273201947E+02  0.50332092441E+01  0.10653752875E+00  0.31675822098E+02  0.00000000000E+00 0. -1.
         -5    1    5    5    0  501 -0.25194611356E+02 -0.43339407533E+02 -0.16055725918E+03  0.16826703825E+03  0.47000000000E+01 0.  1.
         11    1    6    6    0    0 -0.14324315177E+02 -0.11013945762E+02 -0.14203937679E+02  0.22983577879E+02  0.00000000000E+00 0. -1.
        -12    1    6    6    0    0  0.10230786412E+03 -0.82840327685E+01 -0.92144490566E+02  0.13793524351E+03  0.00000000000E+00 0.  1.
</event>
<event>
12    1  0.1081556E+000  0.1175816E+04  0.7818608E-02  0.9134292E-01
         -2   -1    0    0    0  501 -0.00000000000E+00  0.00000000000E+00  0.61740031355E+03  0.61740031355E+03  0.00000000000E+00 0.  1.
          2   -1    0    0  502    0  0.00000000000E+00 -0.00000000000E+00 -0.33583723538E+04  0.33583723538E+04  0.00000000000E+00 0. -1.
          6    2    1    2  502    0 -0.54125687077E+03  0.10296242884E+04 -0.22298579636E+03  0.11967853463E+04  0.17171873630E+03 0.  0.
         24    2    3    3    0    0 -0.23127873886E+03  0.39472855009E+03 -0.13989137081E+03  0.48537420336E+03  0.81963640451E+02 0.  0.
         -6    2    1    2    0  501  0.54125687077E+03 -0.10296242884E+04 -0.25179862439E+04  0.27789873210E+04  0.17155357891E+03 0.  0.
        -24    2    5    5    0    0  0.14211191871E+03 -0.36795220206E+03 -0.82940664165E+03  0.92198710407E+03  0.80995199903E+02 0.  0.
          5    1    3    3  502    0 -0.30997813191E+03  0.63489573832E+03 -0.83094425555E+02  0.71141114298E+03  0.47000000000E+01 0. -1.
        -11    1    4    4    0    0 -0.47743424545E+02  0.14790866115E+03 -0.67156196708E+02  0.16931143313E+03  0.00000000000E+00 0.  1.
         12    1    4    4    0    0 -0.18353531432E+03  0.24681988894E+03 -0.72735174101E+02  0.31606277024E+03  0.00000000000E+00 0. -1.
         -5    1    5    5    0  501  0.39914495206E+03 -0.66167208635E+03 -0.16885796022E+04  0.18570002169E+04  0.47000000000E+01 0.  1.
         13    1    6    6    0    0  0.15268698777E+03 -0.33940010423E+03 -0.76233283550E+03  0.84832605704E+03  0.00000000000E+00 0. -1.
        -14    1    6    6    0    0 -0.10575069059E+02 -0.28552097838E+02 -0.67073806155E+02  0.73661047024E+02  0.00000000000E+00 0.  1.
</event>
<event>
12    1  0.1081556E+000  0.1674635E+04  0.7818608E-02  0.8775965E-01
         -1   -1    0    0    0  501 -0.00000000000E+00  0.00000000000E+00  0.14042745541E+04  0.14042745541E+04  0.00000000000E+00 0.  1.
          1   -1    0    0  502    0  0.00000000000E+00 -0.00000000000E+00 -0.31209041094E+04  0.31209041094E+04  0.00000000000E+00 0. -1.
          6    2    1    2  502    0 -0.20885723979E+03 -0.16525524327E+04  0.49945917169E+03  0.17474729232E+04  0.17219542263E+03 0.  0.
         24    2    3    3    0    0 -0.19948778579E+03 -0.13992757151E+04  0.37265044538E+03  0.14640308208E+04  0.82158299305E+02 0.  0.
         -6    2    1    2    0  501  0.20885723979E+03  0.16525524327E+04 -0.22160887270E+04  0.27777057404E+04  0.17334660332E+03 0.  0.
        -24    2    5    5    0    0  0.15316171559E+03  0.14561600044E+04 -0.20042329623E+04  0.24834661572E+04  0.82425220822E+02 0.  0.
          5    1    3    3  502    0 -0.93694539963E+01 -0.25327671757E+03  0.12680872631E+03  0.28344210238E+03  0.47000000000E+01 0. -1.
        -11    1    4    4    0    0 -0.12238754852E+03 -0.10903652050E+04  0.29935475723E+03  0.11373162546E+04  0.00000000000E+00 0.  1.
         12    1    4    4    0    0 -0.77100237276E+02 -0.30891051012E+03  0.73295688145E+02  0.32671456617E+03  0.00000000000E+00 0. -1.
         -5    1    5    5    0  501  0.55695524198E+02  0.19639242831E+03 -0.21185576465E+03  0.29423958321E+03  0.47000000000E+01 0.  1.
         13    1    6    6    0    0  0.10161145549E+03  0.66155194710E+03 -0.87153782542E+03  0.10988876411E+04  0.00000000000E+00 0. -1.
        -14    1    6    6    0    0  0.51550260106E+02  0.79460805730E+03 -0.11326951369E+04  0.13845785161E+04  0.00000000000E+00 0.  1.
</event>
<event>
12    1  0.1081556E+000  0.3576421E+03  0.7818608E-02  0.1059521E+00
          2   -1    0    0  502    0  0.00000000000E+00  0.00000000000E+00  0.28757864658E+03  0.28757864658E+03  0.00000000000E+00 0. -1.
         -2   -1    0    0    0  501 -0.00000000000E+00 -0.00000000000E+00 -0.63909706375E+03  0.63909706375E+03  0.00000000000E+00 0.  1.
          6    2    1    2  502    0 -0.69010062980E+02  0.30628747636E+03 -0.43127132227E+03  0.56031035370E+03  0.17140108542E+03 0.  0.
         24    2    3    3    0    0 -0.92165740176E+02  0.30432589752E+03 -0.42288770064E+03  0.53516262439E+03  0.80350803519E+02 0.  0.
         -6    2    1    2    0  501  0.69010062980E+02 -0.30628747636E+03  0.79752905098E+02  0.36636535663E+03  0.17113924653E+03 0.  0.
        -24    2    5    5    0    0  0.60372545426E+02 -0.27024669226E+03  0.11073934669E+02  0.28818328831E+03  0.79049710392E+02 0.  0.
          5    1    3    3  502    0  0.23155677196E+02  0.19615788387E+01 -0.83836216338E+01  0.25147729314E+02  0.47000000000E+01 0. -1.
        -11    1    4    4    0    0 -0.13880794688E+02  0.15317708441E+03 -0.24232716500E+03  0.28701628969E+03  0.00000000000E+00 0.  1.
         12    1    4    4    0    0 -0.78284945488E+02  0.15114881310E+03 -0.18056053564E+03  0.24814633470E+03  0.00000000000E+00 0. -1.
         -5    1    5    5    0  501  0.86375175542E+01 -0.36040784098E+02  0.68678970429E+02  0.78182068322E+02  0.47000000000E+01 0.  1.
         13    1    6    6    0    0  0.11013039547E+02 -0.19105058749E+03 -0.13001710515E+02  0.19180891142E+03  0.00000000000E+00 0. -1.
        -14    1    6    6    0    0  0.49359505879E+02 -0.79196104766E+02  0.24075645184E+02  0.96374376894E+02  0.00000000000E+00 0.  1.
</event>
<event>
12    1  0.1081556E+000  0.2638446E+03  0.7818608E-02  0.1104855E+00
          1   -1    0    0  502    0  0.00000000000E+00  0.00000000000E+00  0.40552891196E+03  0.40552891196E+03  0.00000000000E+00 0. -1.
         -1   -1    0    0    0  501 -0.00000000000E+00 -0.00000000000E+00 -0.19711992473E+03  0.19711992473E+03  0.00000000000E+00 0.  1.
          6    2    1    2  502    0 -0.11096308274E+03 -0.16549105575E+03 -0.44324560526E+01  0.26285015235E+03  0.17137812187E+03 0.  0.
         24    2    3    3    0    0 -0.32859611920E+01 -0.11358286318E+03  0.23789207653E+02  0.13993808922E+03  0.78133719119E+02 0.  0.
         -6    2    1    2    0  501  0.11096308274E+03  0.16549105575E+03  0.21284144328E+03  0.33979868434E+03  0.17453243433E+03 0.  0.
        -24    2    5    5    0    0  0.85864785649E+02  0.21823832092E+02  0.79494521430E+02  0.14212803088E+03  0.77665675574E+02 0.  0.
          5    1    3    3  502    0 -0.10767712154E+03 -0.51908192575E+02 -0.28221663706E+02  0.12291206313E+03  0.47000000000E+01 0. -1.
        -13    1    4    4    0    0 -0.38184091989E+02 -0.72427247558E+02  0.26080110308E+02  0.85929641123E+02  0.00000000000E+00 0.  1.
         14    1    4    4    0    0  0.34898130797E+02 -0.41155615622E+02 -0.22909026548E+01  0.54008448092E+02  0.00000000000E+00 0. -1.
         -5    1    5    5    0  501  0.25098297088E+02  0.14366722366E+03  0.13334692185E+03  0.19767065346E+03  0.47000000000E+01 0.  1.
         13    1    6    6    0    0  0.84773992799E+02 -0.74784718740E+01  0.72935117711E+02  0.11208072445E+03  0.00000000000E+00 0. -1.
        -14    1    6    6    0    0  0.10907928501E+01  0.29302303966E+02  0.65594037183E+01  0.30047306433E+02  0.00000000000E+00 0.  1.
</event>
<event>
12    1  0.1081556E+000  0.8319093E+03  0.7818608E-02  0.9514945E-01
         -2   -1    0    0    0  501 -0.00000000000E+00  0.00000000000E+00  0.12800026775E+04  0.12800026775E+04  0.00000000000E+00 0.  1.
          2   -1    0    0  502    0  0.00000000000E+00 -0.00000000000E+00 -0.66889534733E+03  0.66889534733E+03  0.00000000000E+00 0. -1.
          6    2    1    2  502    0 -0.80771958194E+03  0.10091332244E+03  0.73214186767E+03  0.11081004568E+04  0.17105696817E+03 0.  0.
         24    2    3    3    0    0 -0.27802637352E+03  0.84488582507E+02  0.28535628285E+03  0.41493084129E+03  0.79387719074E+02 0.  0.
         -6    2    1    2    0  501  0.80771958194E+03 -0.10091332244E+03 -0.12103453750E+03  0.84079756799E+03  0.17232750613E+03 0.  0.
        -24    2    5    5    0    0  0.52034828867E+03 -0.13047731204E+03 -0.92942429899E+02  0.55050883898E+03  0.81455607820E+02 0.  0.
          5    1    3    3  502    0 -0.52969320842E+03  0.16424739931E+02  0.44678558481E+03  0.69316961555E+03  0.47000000000E+01 0. -1.
        -11    1    4    4    0    0 -0.12758438737E+03  0.14790146259E+02  0.16947546772E+03  0.21264632252E+03  0.00000000000E+00 0.  1.
         12    1    4    4    0    0 -0.15044198616E+03  0.69698436248E+02  0.11588081514E+03  0.20228451877E+03  0.00000000000E+00 0. -1.
         -5    1    5    5    0  501  0.28737129328E+03  0.29563989598E+02 -0.28092107600E+02  0.29028872901E+03  0.47000000000E+01 0.  1.
         13    1    6    6    0    0  0.28336015446E+03 -0.29597253044E+02 -0.42593077813E+02  0.28806795171E+03  0.00000000000E+00 0. -1.
        -14    1    6    6    0    0  0.23698813421E+03 -0.10088005899E+03 -0.50349352085E+02  0.26244088727E+03  0.00000000000E+00 0.  1.
</event>
<event>
12    1  0.1081556E+000  0.6925094E+03  0.7818608E-02  0.9730129E-01
          1   -1    0    0  502    0  0.00000000000E+00  0.00000000000E+00  0.52263264867E+03  0.52263264867E+03  0.00000000000E+00 0. -1.
         -1   -1    0    0    0  501 -0.00000000000E+00 -0.00000000000E+00 -0.91804608007E+03  0.91804608007E+03  0.00000000000E+00 0.  1.
          6    2    1    2  502    0  0.61652602346E+03  0.26386574277E+03 -0.18187612636E+03  0.71598293182E+03  0.17269384905E+03 0.  0.
         24    2    3    3    0    0  0.59140829465E+03  0.28278245967E+03 -0.16743015685E+03  0.68106132656E+03  0.77987067072E+02 0.  0.
         -6    2    1    2    0  501 -0.61652602346E+03 -0.26386574277E+03 -0.21353730504E+03  0.72469579693E+03  0.17278990025E+03 0.  0.
        -24    2    5    5    0    0 -0.34844224848E+03 -0.16845410866E+03 -0.19135187745E+03  0.43923726486E+03  0.80777760490E+02 0.  0.
          5    1    3    3  502    0  0.25117728809E+02 -0.18916716899E+02 -0.14445969509E+02  0.34921605258E+02  0.47000000000E+01 0. -1.
        -11    1    4    4    0    0  0.29129982368E+03  0.17501783266E+03 -0.10896371369E+03  0.35687521619E+03  0.00000000000E+00 0.  1.
         12    1    4    4    0    0  0.30010847097E+03  0.10776462701E+03 -0.58466443156E+02  0.32418611037E+03  0.00000000000E+00 0. -1.
         -5    1    5    5    0  501 -0.26808377498E+03 -0.95411634109E+02 -0.22185427591E+02  0.28545853206E+03  0.47000000000E+01 0.  1.
         13    1    6    6    0    0 -0.58506554785E+02 -0.43542401751E+02 -0.60685346309E+01  0.73183227693E+02  0.00000000000E+00 0. -1.
        -14    1    6    6    0    0 -0.28993569370E+03 -0.12491170691E+03 -0.18528334282E+03  0.36605403717E+03  0.00000000000E+00 0.  1.
</event>
<event>
12    1  0.1081556E+000  0.8114824E+03  0.7818608E-02  0.9543544E-01
         -1   -1    0    0    0  501 -0.00000000000E+00  0.00000000000E+00  0.49935816744E+03  0.49935816744E+03  0.00000000000E+00 0.  1.
          1   -1    0    0  502    0  0.00000000000E+00 -0.00000000000E+00 -0.13485907093E+04  0.13485907093E+04  0.00000000000E+00 0. -1.
          6    2    1    2  502    0 -0.72581064241E+03  0.31927027993E+03 -0.56229810524E+03  0.98745847746E+03  0.17366774393E+03 0.  0.
         24    2    3    3    0    0 -0.65712377007E+03  0.23855037935E+03 -0.51138762999E+03  0.86978284162E+03  0.79290294447E+02 0.  0.
         -6    2    1    2    0  501  0.72581064241E+03 -0.31927027993E+03 -0.28693443665E+03  0.86049039930E+03  0.17139940510E+03 0.  0.
        -24    2    5    5    0    0  0.23676822798E+03 -0.14505090496E+03 -0.66229724992E+02  0.29635607710E+03  0.79634095436E+02 0.  0.
          5    1    3    3  502    0 -0.68686872343E+02  0.80719900580E+02 -0.50910475247E+02  0.11767563585E+03  0.47000000000E+01 0. -1.
        -13    1    4    4    0    0 -0.32630564555E+03  0.15553923977E+03 -0.28640402819E+03  0.46118878650E+03  0.00000000000E+00 0.  1.
         14    1    4    4    0    0 -0.33081812451E+03  0.83011139578E+02 -0.22498360180E+03  0.40859405512E+03  0.00000000000E+00 0. -1.
         -5    1    5    5    0  501  0.48904241443E+03 -0.17421937497E+03 -0.22070471166E+03  0.56413432219E+03  0.47000000000E+01 0.  1.
         13    1    6    6    0    0  0.85529383454E+02 -0.32048730474E+02 -0.56317032748E+02  0.10730333050E+03  0.00000000000E+00 0. -1.
        -14    1    6    6    0    0  0.15123884452E+03 -0.11300217449E+03 -0.99126922438E+01  0.18905274660E+03  0.00000000000E+00 0.  1.
</event>
<event>
12    1  0.1081556E+000  0.4064093E+03  0.7818608E-02  0.1041583E+00
          2   -1    0    0  502    0  0.00000000000E+00  0.00000000000E+00  0.18152052217E+04  0.18152052217E+04  0.00000000000E+00 0. -1.
         -2   -1    0    0    0  501 -0.00000000000E+00 -0.00000000000E+00 -0.27189257924E+03  0.27189257924E+03  0.00000000000E+00 0.  1.
          6    2    1    2  502    0 -0.36387819710E+03 -0.58478933285E+02 -0.79800325866E+02  0.41378191421E+03  0.17035331683E+03 0.  0.
         24    2    3    3    0    0 -0.91050122192E+02 -0.32526084791E+02 -0.66296307106E+02  0.13934948660E+03  0.75332649865E+02 0.  0.
         -6    2    1    2    0  501  0.36387819710E+03  0.58478933285E+02  0.16231129684E+04  0.16733158868E+04  0.17223013934E+03 0.  0.
        -24    2    5    5    0    0  0.12252031946E+03 -0.20785693551E+02  0.46940990243E+03  0.49196523582E+03  0.78999133022E+02 0.  0.
          5    1    3    3  502    0 -0.27282807491E+03 -0.25952848494E+02 -0.13504018760E+02  0.27443242762E+03  0.47000000000E+01 0. -1.
        -13    1    4    4    0    0 -0.78129804538E+01 -0.37017843884E+02 -0.11304656445E+02  0.39486183492E+02  0.00000000000E+00 0.  1.
         14    1    4    4    0    0 -0.83237141738E+02  0.44917590928E+01 -0.54991650661E+02  0.99863303104E+02  0.00000000000E+00 0. -1.
         -5    1    5    5    0  501  0.24135787765E+03  0.79264626837E+02  0.11537030659E+04  0.11813506510E+04  0.47000000000E+01 0.  1.
         11    1    6    6    0    0  0.60948320526E+02 -0.40880688856E+02  0.33257360264E+03  0.34057470498E+03  0.00000000000E+00 0. -1.
        -12    1    6    6    0    0  0.61571998931E+02  0.20094995304E+02  0.13683629979E+03  0.15139053084E+03  0.00000000000E+00 0.  1.
</event>
<event>
12    1  0.1081556E+000  0.2933209E+03  0.7818608E-02  0.1088628E+00
          1   -1    0    0  502    0  0.00000000000E+00  0.00000000000E+00  0.40201613249E+03  0.40201613249E+03  0.00000000000E+00 0. -1.
         -1   -1    0    0    0  501 -0.00000000000E+00 -0.00000000000E+00 -0.23370472843E+03  0.23370472843E+03  0.00000000000E+00 0.  1.
          6    2    1    2  502    0  0.88439769950E+02 -0.22100409664E+03 -0.81923521825E+01  0.29311265870E+03  0.17083182494E+03 0.  0.
         24    2    3    3    0    0 -0.25945844607E+01 -0.14453137686E+03 -0.39462448106E+02  0.17008729768E+03  0.80475792985E+02 0.  0.
         -6    2    1    2    0  501 -0.88439769950E+02  0.22100409664E+03  0.17650375624E+03  0.34260820223E+03  0.17193719965E+03 0.  0.
        -24    2    5    5    0    0 -0.12726000306E+03  0.14861024576E+03  0.12045977369E+03  0.24305470844E+03  0.79277491732E+02 0.  0.
          5    1    3    3  502    0  0.91034354410E+02 -0.76472719782E+02  0.31270095924E+02  0.12302536101E+03  0.47000000000E+01 0. -1.
        -11    1    4    4    0    0  0.21688474995E+02 -0.30073660444E+02 -0.37972067298E+02  0.53072524859E+02  0.00000000000E+00 0.  1.
         12    1    4    4    0    0 -0.24283059455E+02 -0.11445771642E+03 -0.14903808090E+01  0.11701477283E+03  0.00000000000E+00 0. -1.
         -5    1    5    5    0  501  0.38820233109E+02  0.72393850889E+02  0.56043982553E+02  0.99553493789E+02  0.47000000000E+01 0.  1.
         13    1    6    6    0    0 -0.67758578756E+02  0.11090594829E+03  0.39709770378E+02  0.13589783010E+03  0.00000000000E+00 0. -1.
        -14    1    6    6    0    0 -0.59501424303E+02  0.37704297462E+02  0.80750003309E+02  0.10715687834E+03  0.00000000000E+00 0.  1.
</event>
<event>
12    1  0.1081556E+000  0.3150330E+03  0.7818608E-02  0.1077958E+00
          1   -1    0    0  502    0  0.00000000000E+00  0.00000000000E+00  0.43523565025E+03  0.43523565025E+03  0.00000000000E+00 0. -1.
         -1   -1    0    0    0  501 -0.00000000000E+00 -0.00000000000E+00 -0.49407088200E+03  0.49407088200E+03  0.00000000000E+00 0.  1.
          6    2    1    2  502    0  0.13943494727E+03 -0.22374925583E+03 -0.37037490421E+03  0.48611124425E+03  0.17210676369E+03 0.  0.
         24    2    3    3    0    0  0.10379157180E+03 -0.13610576857E+03 -0.34123189479E+03  0.38699900448E+03  0.63494510243E+02 0.  0.
         -6    2    1    2    0  501 -0.13943494727E+03  0.22374925583E+03  0.31153967247E+03  0.44319528801E+03  0.17279832692E+03 0.  0.
        -24    2    5    5    0    0 -0.12861468413E+03  0.16400206157E+03  0.14894980179E+03  0.26957397203E+03  0.83938488015E+02 0.  0.
          5    1    3    3  502    0  0.35643375477E+02 -0.87643487256E+02 -0.29143009427E+02  0.99112239770E+02  0.47000000000E+01 0. -1.
        -11    1    4    4    0    0  0.84053883292E+02 -0.10701699652E+03 -0.20316697355E+03  0.24452916387E+03  0.00000000000E+00 0.  1.
         12    1    4    4    0    0  0.19737688506E+02 -0.29088772055E+02 -0.13806492123E+03  0.14246984061E+03  0.00000000000E+00 0. -1.
         -5    1    5    5    0  501 -0.10820263149E+02  0.59747194257E+02  0.16258987067E+03  0.17362131598E+03  0.47000000000E+01 0.  1.
         11    1    6    6    0    0 -0.48448089644E+02  0.12784805522E+03  0.92591683830E+02  0.16512287100E+03  0.00000000000E+00 0. -1.
        -12    1    6    6    0    0 -0.80166594482E+02  0.36154006354E+02  0.56358117961E+02  0.10445110103E+03  0.00000000000E+00 0.  1.
</event>
<event>
12    1  0.1081556E+000  0.3865016E+03  0.7818608E-02  0.1048557E+00
         -2   -1    0    0    0  501 -0.00000000000E+00  0.00000000000E+00  0.12294738709E+03  0.12294738709E+03  0.00000000000E+00 0.  1.
          2   -1    0    0  502    0  0.00000000000E+00 -0.00000000000E+00 -0.16252083349E+04  0.16252083349E+04  0.00000000000E+00 0. -1.
          6    2    1    2  502    0 -0.15619080720E+03  0.30941834432E+03 -0.31272400990E+03  0.49755547794E+03  0.17213328326E+03 0.  0.
         24    2    3    3    0    0 -0.11994882875E+03  0.11018653459E+03 -0.13326917970E+03  0.22693965968E+03  0.84924324865E+02 0.  0.
         -6    2    1    2    0  501  0.15619080720E+03 -0.30941834432E+03 -0.11895369379E+04  0.12506002440E+04  0.16990457234E+03 0.  0.
        -24    2    5    5    0    0  0.18326116060E+03 -0.26282011820E+03 -0.10561979075E+04  0.11067058878E+04  0.81146995715E+02 0.  0.
          5    1    3    3  502    0 -0.36241978451E+02  0.19923180973E+03 -0.17945483020E+03  0.27061581826E+03  0.47000000000E+01 0. -1.
        -11    1    4    4    0    0 -0.71349297360E+02  0.96223863320E+01 -0.52274748648E+02  0.88971691558E+02  0.00000000000E+00 0.  1.
         12    1    4    4    0    0 -0.48599531392E+02  0.10056414826E+03 -0.80994431049E+02  0.13796796812E+03  0.00000000000E+00 0. -1.
         -5    1    5    5    0  501 -0.27070353396E+02 -0.46598226116E+02 -0.13333903043E+03  0.14389435620E+03  0.47000000000E+01 0.  1.
         13    1    6    6    0    0  0.14262847509E+03 -0.16582441197E+03 -0.60231804857E+03  0.64080234795E+03  0.00000000000E+00 0. -1.
        -14    1    6    6    0    0  0.40632685507E+02 -0.96995706233E+02 -0.45387985890E+03  0.46590353988E+03  0.00000000000E+00 0.  1.
</event>
<event>
12    1  0.1081556E+000  0.6389117E+03  0.7818608E-02  0.9827811E-01
         -2   -1    0    0    0  501 -0.00000000000E+00  0.00000000000E+00  0.60119064012E+03  0.60119064012E+03  0.00000000000E+00 0.  1.
          2   -1    0    0  502    0  0.00000000000E+00 -0.00000000000E+00 -0.17618669246E+04  0.17618669246E+04  0.00000000000E+00 0. -1.
          6    2    1    2  502    0  0.40111483575E+03 -0.46672752578E+03  0.34592822108E+03  0.72660065349E+03  0.17191416672E+03 0.  0.
         24    2    3    3    0    0  0.20118435860E+03 -0.31314565289E+03  0.25662299637E+03  0.45909906371E+03  0.79882676197E+02 0.  0.
         -6    2    1    2    0  501 -0.40111483575E+03  0.46672752578E+03 -0.15066045056E+04  0.16364569113E+04  0.17148291853E+03 0.  0.
        -24    2    5    5    0    0 -0.11808307320E+03  0.17651384798E+03 -0.48184463014E+03  0.53441977498E+03  0.91266081266E+02 0.  0.
          5    1    3    3  502    0  0.19993047715E+03 -0.15358187289E+03  0.89305224711E+02  0.26750158978E+03  0.47000000000E+01 0. -1.
        -11    1    4    4    0    0  0.17031508041E+03 -0.20572996562E+03  0.15985658032E+03  0.31126543599E+03  0.00000000000E+00 0.  1.
         12    1    4    4    0    0  0.30869278189E+02 -0.10741568727E+03  0.96766416050E+02  0.14783362771E+03  0.00000000000E+00 0. -1.
         -5    1    5    5    0  501 -0.28303176255E+03  0.29021367780E+03 -0.10247598755E+04  0.11020371363E+04  0.47000000000E+01 0.  1.
         13    1    6    6    0    0 -0.12840148785E+03  0.16438054619E+03 -0.40083332487E+03  0.45185756647E+03  0.00000000000E+00 0. -1.
        -14    1    6    6    0    0  0.10318414644E+02  0.12133301792E+02 -0.81011305271E+02  0.82562208514E+02  0.00000000000E+00 0.  1.
</event>
<event>
12    1  0.1081556E+000  0.3116796E+03  0.7818608E-02  0.1079544E+00
         -2   -1    0    0    0  501 -0.00000000000E+00  0.00000000000E+00  0.13243791047E+03  0.13243791047E+03  0.00000000000E+00 0.  1.
          2   -1    0    0  502    0  0.00000000000E+00 -0.00000000000E+00 -0.82016057755E+03  0.82016057755E+03  0.00000000000E+00 0. -1.
          6    2    1    2  502    0 -0.20227981919E+03 -0.16619349414E+03 -0.49927286986E+03  0.58889265727E+03  0.17024617604E+03 0.  0.
         24    2    3    3    0    0 -0.14181024304E+03 -0.14055130693E+03 -0.24523749869E+03  0.32646142587E+03  0.81060575541E+02 0.  0.
         -6    2    1    2    0  501  0.20227981919E+03  0.16619349414E+03 -0.18844979722E+03  0.36370583075E+03  0.16802143465E+03 0.  0.
        -24    2    5    5    0    0  0.16141592571E+03  0.14342645948E+03 -0.21046784574E+03  0.31179166969E+03  0.79316334030E+02 0.  0.
          5    1    3    3  502    0 -0.60469576143E+02 -0.25642187211E+02 -0.25403537118E+03  0.26243123140E+03  0.47000000000E+01 0. -1.
        -13    1    4    4    0    0 -0.80682057929E+02 -0.66527716520E+02 -0.67533798416E+02  0.12448431815E+03  0.00000000000E+00 0.  1.
         14    1    4    4    0    0 -0.61128185115E+02 -0.74023590413E+02 -0.17770370027E+03  0.20197710772E+03  0.00000000000E+00 0. -1.
         -5    1    5    5    0  501  0.40863893480E+02  0.22767034661E+02  0.22018048523E+02  0.51914161058E+02  0.47000000000E+01 0.  1.
         13    1    6    6    0    0  0.13747540317E+03  0.10406260678E+03 -0.11937806443E+03  0.20971322055E+03  0.00000000000E+00 0. -1.
        -14    1    6    6    0    0  0.23940522538E+02  0.39363852705E+02 -0.91089781314E+02  0.10207844914E+03  0.00000000000E+00 0.  1.
</event>
<event>
12    1  0.1081556E+000  0.2647241E+03  0.7818608E-02  0.1104338E+00
          1   -1    0    0  502    0  0.00000000000E+00  0.00000000000E+00  0.11157282032E+04  0.11157282032E+04  0.00000000000E+00 0. -1.
         -1   -1    0    0    0  501 -0.00000000000E+00 -0.00000000000E+00 -0.20839618438E+03  0.20839618438E+03  0.00000000000E+00 0.  1.
          6    2    1    2  502    0  0.37344627257E+02 -0.19793104493E+03 -0.99936756994E+02  0.28253379529E+03  0.17107504304E+03 0.  0.
         24    2    3    3    0    0 -0.11359040173E+02 -0.29894439836E+02 -0.10206329273E+02  0.85856426150E+02  0.79021841457E+02 0.  0.
         -6    2    1    2    0  501 -0.37344627257E+02  0.19793104493E+03  0.10072687758E+04  0.10415905923E+04  0.17247972486E+03 0.  0.
        -24    2    5    5    0    0  0.30596319748E+02  0.16293411135E+03  0.60306424203E+03  0.63019765024E+03  0.77323598769E+02 0.  0.
          5    1    3    3  502    0  0.48703667430E+02 -0.16803660510E+03 -0.89730427721E+02  0.19667736914E+03  0.47000000000E+01 0. -1.
        -13    1    4    4    0    0  0.10063449023E+02 -0.36815771291E+02  0.23869162434E+02  0.45015674351E+02  0.00000000000E+00 0.  1.
         14    1    4    4    0    0 -0.21422489196E+02  0.69213314544E+01 -0.34075491707E+02  0.40840751799E+02  0.00000000000E+00 0. -1.
         -5    1    5    5    0  501 -0.67940947005E+02  0.34996933583E+02  0.40420453380E+03  0.41139294207E+03  0.47000000000E+01 0.  1.
         11    1    6    6    0    0  0.27472709335E+02  0.16987814156E+02  0.17420095849E+03  0.17717028398E+03  0.00000000000E+00 0. -1.
        -12    1    6    6    0    0  0.31236104125E+01  0.14594629719E+03  0.42886328355E+03  0.45302736626E+03  0.00000000000E+00 0.  1.
</event>
<event>
12    1  0.1081556E+000  0.2713802E+03  0.7818608E-02  0.1100492E+00
          2   -1    0    0  502    0  0.00000000000E+00  0.00000000000E+00  0.25667993636E+03  0.25667993636E+03  0.00000000000E+00 0. -1.
         -2   -1    0    0    0  501 -0.00000000000E+00 -0.00000000000E+00 -0.44236487077E+03  0.44236487077E+03  0.00000000000E+00 0.  1.
          6    2    1    2  502    0 -0.13923895383E+03 -0.15782425481E+03 -0.30004871682E+03  0.40461766097E+03  0.17143581142E+03 0.  0.
         24    2    3    3    0    0 -0.87436957732E+02 -0.36443447515E+02 -0.21045418452E+03  0.24503690587E+03  0.82333316550E+02 0.  0.
         -6    2    1    2    0  501  0.13923895383E+03  0.15782425481E+03  0.11436378240E+03  0.29442714616E+03  0.17120831755E+03 0.  0.
        -24    2    5    5    0    0  0.10948237661E+03  0.71408259738E+02  0.70824843639E+01  0.15341457579E+03  0.80002125807E+02 0.  0.
          5    1    3    3  502    0 -0.51801996097E+02 -0.12138080730E+03 -0.89594532297E+02  0.15958075510E+03  0.47000000000E+01 0. -1.
        -11    1    4    4    0    0 -0.87581890307E+02 -0.56661959466E+02 -0.18650241723E+03  0.21369210746E+03  0.00000000000E+00 0.  1.
         12    1    4    4    0    0  0.14493257482E+00  0.20218511952E+02 -0.23951767292E+02  0.31344798410E+02  0.00000000000E+00 0. -1.
         -5    1    5    5    0  501  0.29756577220E+02  0.86415995077E+02  0.10728129804E+03  0.14101257037E+03  0.47000000000E+01 0.  1.
         11    1    6    6    0    0  0.43404686800E+02 -0.22138926596E+01  0.28793136676E+02  0.52133606019E+02  0.00000000000E+00 0. -1.
        -12    1    6    6    0    0  0.66077689809E+02  0.73622152398E+02 -0.21710652312E+02  0.10128096977E+03  0.00000000000E+00 0.  1.
</event>
<event>
12    1  0.1081556E+000  0.4319958E+03  0.7818608E-02  0.1033231E+00
         -2   -1    0    0    0  501 -0.00000000000E+00  0.00000000000E+00  0.12122577946E+04  0.12122577946E+04  0.00000000000E+00 0.  1.
          2   -1    0    0  502    0  0.00000000000E+00 -0.00000000000E+00 -0.24950750181E+03  0.24950750181E+03  0.00000000000E+00 0. -1.
          6    2    1    2  502    0 -0.27221044577E+03 -0.28818851426E+03  0.93367701558E+03  0.10287583061E+04  0.17158011661E+03 0.  0.
         24    2    3    3    0    0 -0.98044157875E+02 -0.19831688883E+03  0.52637352988E+03  0.57673062514E+03  0.81282690190E+02 0.  0.
         -6    2    1    2    0  501  0.27221044577E+03  0.28818851426E+03  0.29073277198E+02  0.43300699030E+03  0.17175171519E+03 0.  0.
        -24    2    5    5    0    0  0.23885808575E+03  0.20031561731E+03 -0.28017177904E+02  0.32293684903E+03  0.79521786552E+02 0.  0.
          5    1    3    3  502    0 -0.17416628789E+03 -0.89871625428E+02  0.40730348570E+03  0.45202768096E+03  0.47000000000E+01 0. -1.
        -11    1    4    4    0    0 -0.64668322399E+02 -0.71756809934E+02  0.15160970243E+03  0.17976799928E+03  0.00000000000E+00 0.  1.
         12    1    4    4    0    0 -0.33375835477E+02 -0.12656007889E+03  0.37476382745E+03  0.39696262586E+03  0.00000000000E+00 0. -1.
         -5    1    5    5    0  501  0.33352360016E+02  0.87872896944E+02  0.57090455102E+02  0.11007014127E+03  0.47000000000E+01 0.  1.
         11    1    6    6    0    0  0.19302547431E+03  0.19664111476E+03 -0.27904105997E+02  0.27695703797E+03  0.00000000000E+00 0. -1.
        -12    1    6    6    0    0  0.45832611438E+02  0.36745025526E+01 -0.11307190637E+00  0.45979811064E+02  0.00000000000E+00 0.  1.
</event>
<event>
12    1  0.1081556E+000  0.2706213E+03  0.7818608E-02  0.1100925E+00
         -1   -1    0    0    0  501 -0.00000000000E+00  0.00000000000E+00  0.85083754979E+02  0.85083754979E+02  0.00000000000E+00 0.  1.
          1   -1    0    0  502    0  0.00000000000E+00 -0.00000000000E+00 -0.18649220401E+04  0.18649220401E+04  0.00000000000E+00 0. -1.
          6    2    1    2  502    0 -0.19010129271E+03 -0.87624879602E+02 -0.17499526410E+03  0.32256309681E+03  0.17206681246E+03 0.  0.
         24    2    3    3    0    0 -0.17769240404E+03 -0.76597572140E+02 -0.20302453871E+03  0.28964938746E+03  0.72360388517E+02 0.  0.
         -6    2    1    2    0  501  0.19010129271E+03  0.87624879602E+02 -0.16048430210E+04  0.16274426983E+04  0.17097366180E+03 0.  0.
        -24    2    5    5    0    0  0.11960167988E+03 -0.47260722309E+00 -0.63588357595E+03  0.65192444689E+03  0.79704310417E+02 0.  0.
          5    1    3    3  502    0 -0.12408888665E+02 -0.11027307462E+02  0.28029274608E+02  0.32913709344E+02  0.47000000000E+01 0. -1.
        -13    1    4    4    0    0 -0.12236660172E+03 -0.86844724442E+02 -0.14097403230E+03  0.20588654440E+03  0.00000000000E+00 0.  1.
         14    1    4    4    0    0 -0.55325802323E+02  0.10247152301E+02 -0.62050506412E+02  0.83762843069E+02  0.00000000000E+00 0. -1.
         -5    1    5    5    0  501  0.70499612825E+02  0.88097486825E+02 -0.96895944508E+03  0.97551825139E+03  0.47000000000E+01 0.  1.
         13    1    6    6    0    0  0.34832587417E+02  0.24575859979E+02 -0.98636211751E+02  0.10745410326E+03  0.00000000000E+00 0. -1.
        -14    1    6    6    0    0  0.84769092468E+02 -0.25048467202E+02 -0.53724736420E+03  0.54447034363E+03  0.00000000000E+00 0.  1.
</event>
<event>
12    1  0.1081556E+000  0.2068070E+03  0.7818608E-02  0.1144120E+00
         -1   -1    0    0    0  501 -0.00000000000E+00  0.00000000000E+00  0.73445690985E+03  0.73445690985E+03  0.00000000000E+00 0.  1.
          1   -1    0    0  502    0  0.00000000000E+00 -0.00000000000E+00 -0.75586644156E+02  0.75586644156E+02  0.00000000000E+00 0. -1.
          6    2    1    2  502    0  0.13168321291E+02 -0.11366985293E+03  0.52384320069E+03  0.56328946368E+03  0.17259513560E+03 0.  0.
         24    2    3    3    0    0  0.44319546695E+02 -0.12009412529E+03  0.28679444223E+03  0.32407016260E+03  0.79897415778E+02 0.  0.
         -6    2    1    2    0  501 -0.13168321291E+02  0.11366985293E+03  0.13502706500E+03  0.24675409033E+03  0.17193322151E+03 0.  0.
        -24    2    5    5    0    0 -0.12734808274E+02  0.14398014532E+03  0.78471007878E+02  0.18241452741E+03  0.78898055396E+02 0.  0.
          5    1    3    3  502    0 -0.31151225404E+02  0.64242723585E+01  0.23704875846E+03  0.23921930108E+03  0.47000000000E+01 0. -1.
        -11    1    4    4    0    0  0.48461035539E+02 -0.33275053173E+02  0.76169357231E+02  0.96215758118E+02  0.00000000000E+00 0.  1.
         12    1    4    4    0    0 -0.41414888444E+01 -0.86819072116E+02  0.21062508500E+03  0.22785440449E+03  0.00000000000E+00 0. -1.
         -5    1    5    5    0  501 -0.43351301712E+00 -0.30310292391E+02  0.56556057125E+02  0.64339562914E+02  0.47000000000E+01 0.  1.
         13    1    6    6    0    0  0.18197376637E+02  0.83935812814E+02  0.76226145004E+02  0.11483375101E+03  0.00000000000E+00 0. -1.
        -14    1    6    6    0    0 -0.30932184911E+02  0.60044332507E+02  0.22448628738E+01  0.67580776401E+02  0.00000000000E+00 0.  1.
</event>
<event>
12    1  0.1081556E+000  0.3612377E+03  0.7818608E-02  0.1058095E+00
          2   -1    0    0  502    0  0.00000000000E+00  0.00000000000E+00  0.35864989777E+04  0.35864989777E+04  0.00000000000E+00 0. -1.
         -2   -1    0    0    0  501 -0.00000000000E+00 -0.00000000000E+00 -0.12502039117E+03  0.12502039117E+03  0.00000000000E+00 0.  1.
          6    2    1    2  502    0  0.31688358035E+03 -0.16917486999E+02  0.16890578137E+03  0.39924616839E+03  0.17368631244E+03 0.  0.
         24    2    3    3    0    0  0.18958599470E+03 -0.29762254599E+02  0.29660341903E+02  0.21008738382E+03  0.80176878040E+02 0.  0.
         -6    2    1    2    0  501 -0.31688358035E+03  0.16917486999E+02  0.32925728052E+04  0.33122732005E+04  0.17151289312E+03 0.  0.
        -24    2    5    5    0    0 -0.20799214324E+03  0.20028078507E+02  0.27384168589E+04  0.27474918944E+04  0.78249354350E+02 0.  0.
          5    1    3    3  502    0  0.12729758565E+03  0.12844767600E+02  0.13924543947E+03  0.18915878457E+03  0.47000000000E+01 0. -1.
        -11    1    4    4    0    0  0.95053523291E+02  0.20243323826E+02  0.34253927210E+02  0.10304511623E+03  0.00000000000E+00 0.  1.
         12    1    4    4    0    0  0.94532471411E+02 -0.50005578425E+02 -0.45935853071E+01  0.10704226759E+03  0.00000000000E+00 0. -1.
         -5    1    5    5    0  501 -0.10889143711E+03 -0.31105915077E+01  0.55415594630E+03  0.56478130606E+03  0.47000000000E+01 0.  1.
         13    1    6    6    0    0 -0.75663175730E+02  0.42998442402E+02  0.91169200125E+03  0.91583627759E+03  0.00000000000E+00 0. -1.
        -14    1    6    6    0    0 -0.13232896751E+03 -0.22970363896E+02  0.18267248576E+04  0.18316556168E+04  0.00000000000E+00 0.  1.
</event>
<event>
12    1  0.1081556E+000  0.2118212E+03  0.7818608E-02  0.1140132E+00
          1   -1    0    0  502    0  0.00000000000E+00  0.00000000000E+00  0.10218486749E+04  0.10218486749E+04  0.00000000000E+00 0. -1.
         -1   -1    0    0    0  501 -0.00000000000E+00 -0.00000000000E+00 -0.19423451132E+03  0.19423451132E+03  0.00000000000E+00 0.  1.
          6    2    1    2  502    0  0.26281774008E+02 -0.12007692580E+03 -0.12072581345E+03  0.24456279609E+03  0.17357142461E+03 0.  0.
         24    2    3    3    0    0 -0.31197641942E+02 -0.65519031797E+02 -0.10381023033E+03  0.16339214863E+03  0.10322012363E+03 0.  0.
         -6    2    1    2    0  501 -0.26281774008E+02  0.12007692580E+03  0.94833997702E+03  0.97152039012E+03  0.17144665833E+03 0.  0.
        -24    2    5    5    0    0  0.15715489902E+02  0.11040949797E+03  0.45717354747E+03  0.47844455330E+03  0.86396204865E+02 0.  0.
          5    1    3    3  502    0  0.57479415950E+02 -0.54557894008E+02 -0.16915583114E+02  0.81170647457E+02  0.47000000000E+01 0. -1.
        -13    1    4    4    0    0 -0.39779172435E+01 -0.25694068579E+02 -0.11154717383E+03  0.11453724711E+03  0.00000000000E+00 0.  1.
         14    1    4    4    0    0 -0.27219724699E+02 -0.39824963218E+02  0.77369434976E+01  0.48854901521E+02  0.00000000000E+00 0. -1.
         -5    1    5    5    0  501 -0.41997263909E+02  0.96674278375E+01  0.49116642955E+03  0.49307583682E+03  0.47000000000E+01 0.  1.
         13    1    6    6    0    0 -0.25811643103E+02  0.62951645214E+02  0.32437450443E+03  0.33143320545E+03  0.00000000000E+00 0. -1.
        -14    1    6    6    0    0  0.41527133004E+02  0.47457852753E+02  0.13279904304E+03  0.14701134785E+03  0.00000000000E+00 0.  1.
</event>
<event>
12    1  0.1081556E+000  0.2228135E+03  0.7818608E-02  0.1131803E+00
          3   -1    0    0  502    0  0.00000000000E+00  0.00000000000E+00  0.60711064410E+03  0.60711064410E+03  0.00000000000E+00 0. -1.
         -3   -1    0    0    0  501 -0.00000000000E+00 -0.00000000000E+00 -0.97302604090E+02  0.97302604090E+02  0.00000000000E+00 0.  1.
          6    2    1    2  502    0 -0.98239441588E+02  0.10307967294E+03  0.11398370213E+03  0.25007421020E+03  0.17108015489E+03 0.  0.
         24    2    3    3    0    0  0.72935492585E+01  0.44709237218E+02  0.88608443889E+02  0.12674410984E+03  0.78488860973E+02 0.  0.
         -6    2    1    2    0  501  0.98239441588E+02 -0.10307967294E+03  0.39582433789E+03  0.45433903800E+03  0.17167017250E+03 0.  0.
        -24    2    5    5    0    0  0.13682414131E+03 -0.78402283300E+02  0.30220983657E+03  0.35001493978E+03  0.79447524051E+02 0.  0.
          5    1    3    3  502    0 -0.10553299085E+03  0.58370435726E+02  0.25375258236E+02  0.12333010036E+03  0.47000000000E+01 0. -1.
        -13    1    4    4    0    0 -0.13757927273E+02  0.49965973178E+02  0.91195249874E+02  0.10489257666E+03  0.00000000000E+00 0.  1.
         14    1    4    4    0    0  0.21051476531E+02 -0.52567359596E+01 -0.25868059852E+01  0.21851533180E+02  0.00000000000E+00 0. -1.
         -5    1    5    5    0  501 -0.38584699718E+02 -0.24677389644E+02  0.93614501321E+02  0.10432409822E+03  0.47000000000E+01 0.  1.
         13    1    6    6    0    0  0.82662587531E+02 -0.81550264009E+02  0.15911069501E+03  0.19697655243E+03  0.00000000000E+00 0. -1.
        -14    1    6    6    0    0  0.54161553774E+02  0.31479807090E+01  0.14309914155E+03  0.15303838735E+03  0.00000000000E+00 0.  1.
</event>
<event>
12    1  0.1081556E+000  0.3393817E+03  0.7818608E-02  0.1067060E+00
          2   -1    0    0  502    0  0.00000000000E+00  0.00000000000E+00  0.17028095228E+04  0.17028095228E+04  0.00000000000E+00 0. -1.
         -2   -1    0    0    0  501 -0.00000000000E+00 -0.00000000000E+00 -0.83980528251E+02  0.83980528251E+02  0.00000000000E+00 0.  1.
          6    2    1    2  502    0 -0.18362024983E+03 -0.22821076777E+03  0.41354860315E+03  0.53438439480E+03  0.16955141864E+03 0.  0.
         24    2    3    3    0    0 -0.38602567993E+02 -0.82090856945E+02  0.89500967679E+02  0.15044414367E+03  0.79962179179E+02 0.  0.
         -6    2    1    2    0  501  0.18362024983E+03  0.22821076777E+03  0.12052803914E+04  0.12524056562E+04  0.17327017989E+03 0.  0.
        -24    2    5    5    0    0  0.69697680654E+02  0.28437576477E+02  0.34253415487E+03  0.35952221572E+03  0.79120881555E+02 0.  0.
          5    1    3    3  502    0 -0.14501768184E+03 -0.14611991083E+03  0.32404763547E+03  0.38394025113E+03  0.47000000000E+01 0. -1.
        -11    1    4    4    0    0 -0.60942574730E+02 -0.41702928405E+02  0.63961796236E+02  0.97694641767E+02  0.00000000000E+00 0.  1.
         12    1    4    4    0    0  0.22340006738E+02 -0.40387928541E+02  0.25539171443E+02  0.52749501901E+02  0.00000000000E+00 0. -1.
         -5    1    5    5    0  501  0.11392256918E+03  0.19977319130E+03  0.86274623652E+03  0.89288344052E+03  0.47000000000E+01 0.  1.
         11    1    6    6    0    0  0.53073760828E+02  0.53627291036E+02  0.28146659131E+03  0.29140376191E+03  0.00000000000E+00 0. -1.
        -12    1    6    6    0    0  0.16623919826E+02 -0.25189714559E+02  0.61067563558E+02  0.68118453805E+02  0.00000000000E+00 0.  1.
</event>
<event>
12    1  0.1081556E+000  0.3297742E+03  0.7818608E-02  0.1071237E+00
          1   -1    0    0  502    0  0.00000000000E+00  0.00000000000E+00  0.10896577642E+04  0.10896577642E+04  0.00000000000E+00 0. -1.
         -1   -1    0    0    0  501 -0.00000000000E+00 -0.00000000000E+00 -0.34948045075E+03  0.34948045075E+03  0.00000000000E+00 0.  1.
          6    2    1    2  502    0  0.71828276722E+02  0.27354332469E+03 -0.23826936993E+03  0.40646068798E+03  0.16867941904E+03 0.  0.
         24    2    3    3    0    0  0.89464515015E+02  0.14898006508E+03 -0.19775373394E+03  0.27420846945E+03  0.76712360105E+02 0.  0.
         -6    2    1    2    0  501 -0.71828276722E+02 -0.27354332469E+03  0.97844668340E+03  0.10326775270E+04  0.17052774162E+03 0.  0.
        -24    2    5    5    0    0 -0.89932018471E+02 -0.21051305664E+03  0.89090850684E+03  0.92319884179E+03  0.78578743712E+02 0.  0.
          5    1    3    3  502    0 -0.17636238293E+02  0.12456325962E+03 -0.40515635985E+02  0.13225221853E+03  0.47000000000E+01 0. -1.
        -13    1    4    4    0    0 -0.36861408463E+01  0.61460873276E+02 -0.74454885566E+02  0.96615508915E+02  0.00000000000E+00 0.  1.
         14    1    4    4    0    0  0.93150655861E+02  0.87519191800E+02 -0.12329884838E+03  0.17759296054E+03  0.00000000000E+00 0. -1.
         -5    1    5    5    0  501  0.18103741749E+02 -0.63030268053E+02  0.87538176558E+02  0.10947868519E+03  0.47000000000E+01 0.  1.
         13    1    6    6    0    0 -0.10172056933E+03 -0.16080217647E+03  0.67294370291E+03  0.69932656282E+03  0.00000000000E+00 0. -1.
        -14    1    6    6    0    0  0.11788550861E+02 -0.49710880167E+02  0.21796480393E+03  0.22387227897E+03  0.00000000000E+00 0.  1.
</event>
<event>
12    1  0.1081556E+000  0.3057893E+03  0.7818608E-02  0.1082382E+00
         -1   -1    0    0    0  501 -0.00000000000E+00  0.00000000000E+00  0.28981163333E+02  0.28981163333E+02  0.00000000000E+00 0.  1.
          1   -1    0    0  502    0  0.00000000000E+00 -0.00000000000E+00 -0.37454054656E+04  0.37454054656E+04  0.00000000000E+00 0. -1.
          6    2    1    2  502    0 -0.22516590141E+03 -0.11612197575E+03 -0.11568535966E+04  0.11966393148E+04  0.17161412933E+03 0.  0.
         24    2    3    3    0    0 -0.11368008820E+03 -0.68127965567E+02 -0.37736750512E+03  0.40774567916E+03  0.79282550488E+02 0.  0.
         -6    2    1    2    0  501  0.22516590141E+03  0.11612197575E+03 -0.25595707056E+04  0.25777473141E+04  0.17086550769E+03 0.  0.
        -24    2    5    5    0    0  0.64341684233E+02  0.13539454209E+02 -0.60051818523E+03  0.60942405043E+03  0.80326915138E+02 0.  0.
          5    1    3    3  502    0 -0.11148581321E+03 -0.47994010182E+02 -0.77948609148E+03  0.78889363565E+03  0.47000000000E+01 0. -1.
        -13    1    4    4    0    0 -0.68860416607E+02  0.45656917740E+01 -0.17222025735E+03  0.18553279915E+03  0.00000000000E+00 0.  1.
         14    1    4    4    0    0 -0.44819671588E+02 -0.72693657341E+02 -0.20514724777E+03  0.22221288001E+03  0.00000000000E+00 0. -1.
         -5    1    5    5    0  501  0.16082421717E+03  0.10258252154E+03 -0.19590525204E+04  0.19683232636E+04  0.47000000000E+01 0.  1.
         11    1    6    6    0    0  0.79510100879E+02  0.20302698358E+02 -0.55368967880E+03  0.55973772082E+03  0.00000000000E+00 0. -1.
        -12    1    6    6    0    0 -0.15168416647E+02 -0.67632441492E+01 -0.46828506437E+02  0.49686329610E+02  0.00000000000E+00 0.  1.
</event>
<event>
12    1  0.1081556E+000  0.3526085E+03  0.7818608E-02  0.1061549E+00
          1   -1    0    0  502    0  0.00000000000E+00  0.00000000000E+00  0.65185981943E+03  0.65185981943E+03  0.00000000000E+00 0. -1.
         -1   -1    0    0    0  501 -0.00000000000E+00 -0.00000000000E+00 -0.19310721047E+03  0.19310721047E+03  0.00000000000E+00 0.  1.
          6    2    1    2  502    0 -0.26902131574E+03  0.15240912314E+03  0.18190622432E+03  0.39584825586E+03  0.16734681976E+03 0.  0.
         24    2    3    3    0    0 -0.51110784888E+02  0.43549990402E+02  0.79466515766E+02  0.13155430185E+03  0.80515173801E+02 0.  0.
         -6    2    1    2    0  501  0.26902131574E+03 -0.15240912314E+03  0.27684638464E+03  0.44911877404E+03  0.17164714786E+03 0.  0.
        -24    2    5    5    0    0  0.35353472921E+02 -0.40446353570E+02  0.70904718048E+02  0.11810460127E+03  0.77688108708E+02 0.  0.
          5    1    3    3  502    0 -0.21791053085E+03  0.10885913274E+03  0.10243970855E+03  0.26429395401E+03  0.47000000000E+01 0. -1.
        -11    1    4    4    0    0 -0.52685566212E+02  0.59387758368E+02  0.39786124777E+02  0.88800959769E+02  0.00000000000E+00 0.  1.
         12    1    4    4    0    0  0.15747813233E+01 -0.15837767966E+02  0.39680390989E+02  0.42753342085E+02  0.00000000000E+00 0. -1.
         -5    1    5    5    0  501  0.23366784282E+03 -0.11196276957E+03  0.20594166660E+03  0.33101417277E+03  0.47000000000E+01 0.  1.
         13    1    6    6    0    0  0.59347668343E+02 -0.19382751394E+02  0.44431053959E+02  0.76628684872E+02  0.00000000000E+00 0. -1.
        -14    1    6    6    0    0 -0.23994195422E+02 -0.21063602176E+02  0.26473664089E+02  0.41475916396E+02  0.00000000000E+00 0.  1.
</event>
<event>
12    1  0.1081556E+000  0.4926161E+03  0.7818608E-02  0.1015724E+00
         -1   -1    0    0    0  501 -0.00000000000E+00  0.00000000000E+00  0.17985498876E+03  0.17985498876E+03  0.00000000000E+00 0.  1.
          1   -1    0    0  502    0  0.00000000000E+00 -0.00000000000E+00 -0.14502580479E+04  0.14502580479E+04  0.00000000000E+00 0. -1.
          6    2    1    2  502    0 -0.42862086306E+03  0.17135243918E+03 -0.42030082899E+03  0.64767417353E+03  0.17248636334E+03 0.  0.
         24    2    3    3    0    0 -0.38010255528E+03  0.11726440198E+03 -0.29163686902E+03  0.49983626718E+03  0.80965042519E+02 0.  0.
         -6    2    1    2    0  501  0.42862086306E+03 -0.17135243918E+03 -0.85010223010E+03  0.98243886309E+03  0.17156577581E+03 0.  0.
        -24    2    5    5    0    0  0.13346745765E+03 -0.76011510905E+02 -0.39374061703E+03  0.43062962321E+03  0.82576551462E+02 0.  0.
          5    1    3    3  502    0 -0.48518307773E+02  0.54088037200E+02 -0.12866395997E+03  0.14783790635E+03  0.47000000000E+01 0. -1.
        -13    1    4    4    0    0 -0.33062271603E+03  0.12864529054E+03 -0.26222145658E+03  0.44115879615E+03  0.00000000000E+00 0.  1.
         14    1    4    4    0    0 -0.49479839255E+02 -0.11380888557E+02 -0.29415412443E+02  0.58677471028E+02  0.00000000000E+00 0. -1.
         -5    1    5    5    0  501  0.29515340540E+03 -0.95340928275E+02 -0.45636161308E+03  0.55180923988E+03  0.47000000000E+01 0.  1.
         13    1    6    6    0    0  0.84851791038E+02 -0.30283256574E+01 -0.16301824621E+03  0.18380409625E+03  0.00000000000E+00 0. -1.
        -14    1    6    6    0    0  0.48615666614E+02 -0.72983185248E+02 -0.23072237081E+03  0.24682552697E+03  0.00000000000E+00 0.  1.
</event>
<event>
12    1  0.1081556E+000  0.7009106E+03  0.7818608E-02  0.9715676E-01
         -2   -1    0    0    0  501 -0.00000000000E+00  0.00000000000E+00  0.27364186582E+03  0.27364186582E+03  0.00000000000E+00 0.  1.
          2   -1    0    0  502    0  0.00000000000E+00 -0.00000000000E+00 -0.23262716197E+04  0.23262716197E+04  0.00000000000E+00 0. -1.
          6    2    1    2  502    0 -0.61039982782E+03  0.29874202815E+03 -0.40516154248E+03  0.80950607084E+03  0.17120004101E+03 0.  0.
         24    2    3    3    0    0 -0.26774692632E+03  0.88827773888E+02 -0.12133548306E+03  0.31751590117E+03  0.80717148613E+02 0.  0.
         -6    2    1    2    0  501  0.61039982782E+03 -0.29874202815E+03 -0.16474682114E+04  0.17904074146E+04  0.17196643201E+03 0.  0.
        -24    2    5    5    0    0  0.49771857782E+03 -0.25939344077E+03 -0.14792900101E+04  0.15841275736E+04  0.78437845982E+02 0.  0.
          5    1    3    3  502    0 -0.34265290149E+03  0.20991425426E+03 -0.28382605941E+03  0.49199016966E+03  0.47000000000E+01 0. -1.
        -13    1    4    4    0    0 -0.11361950036E+03  0.73778088663E+02 -0.79614323418E+02  0.15713382107E+03  0.00000000000E+00 0.  1.
         14    1    4    4    0    0 -0.15412742596E+03  0.15049685225E+02 -0.41721159645E+02  0.16038208011E+03  0.00000000000E+00 0. -1.
         -5    1    5    5    0  501  0.11268125000E+03 -0.39348587382E+02 -0.16817820125E+03  0.20627984100E+03  0.47000000000E+01 0.  1.
         13    1    6    6    0    0  0.20191228241E+03 -0.69031683012E+02 -0.50261057737E+03  0.54603235759E+03  0.00000000000E+00 0. -1.
        -14    1    6    6    0    0  0.29580629541E+03 -0.19036175775E+03 -0.97667943276E+03  0.10380952161E+04  0.00000000000E+00 0.  1.
</event>
<event>
12    1  0.1081556E+000  0.1859418E+03  0.7818608E-02  0.1162173E+00
          2   -1    0    0  502    0  0.00000000000E+00  0.00000000000E+00  0.10073443748E+03  0.10073443748E+03  0.00000000000E+00 0.  1.
         -2   -1    0    0    0  501 -0.00000000000E+00 -0.00000000000E+00 -0.38146747931E+03  0.38146747931E+03  0.00000000000E+00 0. -1.
          6    2    1    2  502    0  0.55540046508E+02  0.46665529532E+02 -0.21849269403E+03  0.28870645490E+03  0.17421248905E+03 0.  0.
         24    2    3    3    0    0 -0.74343528068E+01  0.45967508884E+02 -0.41748652755E+02  0.10101839366E+03  0.79331484145E+02 0.  0.
         -6    2    1    2    0  501 -0.55540046508E+02 -0.46665529532E+02 -0.62240347793E+02  0.19349546190E+03  0.16823871275E+03 0.  0.
        -24    2    5    5    0    0 -0.26308862014E+02 -0.87330624825E+02 -0.74174791348E+02  0.14179794682E+03  0.79284070268E+02 0.  0.
          5    1    3    3  502    0  0.62974399315E+02  0.69802064806E+00 -0.17674404128E+03  0.18768806123E+03  0.47000000000E+01 0. -1.
        -13    1    4    4    0    0 -0.67710129498E+01  0.90723185088E+01  0.23484932966E+02  0.26070973436E+02  0.00000000000E+00 0.  1.
         14    1    4    4    0    0 -0.66333985702E+00  0.36895190375E+02 -0.65233585721E+02  0.74947420226E+02  0.00000000000E+00 0. -1.
         -5    1    5    5    0  501 -0.29231184494E+02  0.40665095293E+02  0.11934443555E+02  0.51697515076E+02  0.47000000000E+01 0.  1.
         11    1    6    6    0    0  0.21109456378E+02 -0.21632515883E+02  0.23928325527E+01  0.30319969320E+02  0.00000000000E+00 0. -1.
        -12    1    6    6    0    0 -0.47418318392E+02 -0.65698108942E+02 -0.76567623900E+02  0.11147797750E+03  0.00000000000E+00 0.  1.
</event>
<event>
12    1  0.1081556E+000  0.9168448E+03  0.7818608E-02  0.9404766E-01
          2   -1    0    0  502    0  0.00000000000E+00  0.00000000000E+00  0.18410551908E+04  0.18410551908E+04  0.00000000000E+00 0. -1.
         -2   -1    0    0    0  501 -0.00000000000E+00 -0.00000000000E+00 -0.52632027786E+03  0.52632027786E+03  0.00000000000E+00 0.  1.
          6    2    1    2  502    0  0.43942470879E+03  0.78622928534E+03  0.10883772157E+04  0.14232481034E+04  0.17268363086E+03 0.  0.
         24    2    3    3    0    0  0.81825443680E+02  0.22234470452E+03  0.33031600461E+03  0.41303924151E+03  0.73213258786E+02 0.  0.
         -6    2    1    2    0  501 -0.43942470879E+03 -0.78622928534E+03  0.22635769728E+03  0.94412736529E+03  0.16996502861E+03 0.  0.
        -24    2    5    5    0    0 -0.26683373311E+03 -0.38040301869E+03  0.16322218110E+03  0.49860431651E+03  0.77833709197E+02 0.  0.
          5    1    3    3  502    0  0.35759926511E+03  0.56388458082E+03  0.75806121106E+03  0.10102088619E+04  0.47000000000E+01 0. -1.
        -13    1    4    4    0    0  0.87177664847E+02  0.13876372251E+03  0.22881576049E+03  0.28144620833E+03  0.00000000000E+00 0.  1.
         14    1    4    4    0    0 -0.53522211666E+01  0.83580982013E+02  0.10150024412E+03  0.13159303318E+03  0.00000000000E+00 0. -1.
         -5    1    5    5    0  501 -0.17259097568E+03 -0.40582626665E+03  0.63135516187E+02  0.44552304878E+03  0.47000000000E+01 0. -1.
         13    1    6    6    0    0 -0.94191554884E+02 -0.18299539613E+03  0.10009616241E+03  0.22886372746E+03  0.00000000000E+00 0. -1.
        -14    1    6    6    0    0 -0.17264217822E+03 -0.19740762255E+03  0.63126018683E+02  0.26974058905E+03  0.00000000000E+00 0.  1.
</event>
<event>
12    1  0.1081556E+000  0.2664339E+03  0.7818608E-02  0.1103338E+00
         -2   -1    0    0    0  501 -0.00000000000E+00  0.00000000000E+00  0.67111854579E+02  0.67111854579E+02  0.00000000000E+00 0.  1.
          2   -1    0    0  502    0  0.00000000000E+00 -0.00000000000E+00 -0.13601551399E+04  0.13601551399E+04  0.00000000000E+00 0. -1.
          6    2    1    2  502    0 -0.18396677682E+03  0.83951786782E+02 -0.98545655406E+03  0.10211798570E+04  0.17547650260E+03 0.  0.
         24    2    3    3    0    0 -0.20258035228E+03  0.10288731554E+03 -0.88908663639E+03  0.92110853010E+03  0.79632144121E+02 0.  0.
         -6    2    1    2    0  501  0.18396677682E+03 -0.83951786782E+02 -0.30758673130E+03  0.40608713750E+03  0.17148028601E+03 0.  0.
        -24    2    5    5    0    0  0.13008127104E+03 -0.98117123841E+02 -0.14209829608E+03  0.23140795528E+03  0.82520354780E+02 0.  0.
          5    1    3    3  502    0  0.18613575457E+02 -0.18935528761E+02 -0.96369917671E+02  0.10007132693E+03  0.47000000000E+01 0. -1.
        -11    1    4    4    0    0 -0.43270789783E+02  0.29744873600E+02 -0.35822091667E+03  0.36204881424E+03  0.00000000000E+00 0.  1.
         12    1    4    4    0    0 -0.15930956250E+03  0.73142441943E+02 -0.53086571972E+03  0.55905971586E+03  0.00000000000E+00 0. -1.
         -5    1    5    5    0  501  0.53885505782E+02  0.14165337059E+02 -0.16548843522E+03  0.17467918221E+03  0.47000000000E+01 0.  1.
         11    1    6    6    0    0  0.10918277263E+03 -0.72026683354E+02 -0.14794166495E+03  0.19747267452E+03  0.00000000000E+00 0. -1.
        -12    1    6    6    0    0  0.20898498410E+02 -0.26090440487E+02  0.58433688707E+01  0.33935280761E+02  0.00000000000E+00 0.  1.
</event>
<event>
12    1  0.1081556E+000  0.5464429E+03  0.7818608E-02  0.1002321E+00
          2   -1    0    0  502    0  0.00000000000E+00  0.00000000000E+00  0.20694253728E+04  0.20694253728E+04  0.00000000000E+00 0. -1.
         -2   -1    0    0    0  501 -0.00000000000E+00 -0.00000000000E+00 -0.27631144064E+03  0.27631144064E+03  0.00000000000E+00 0.  1.
          6    2    1    2  502    0  0.45444842330E+03  0.24999501226E+03  0.85837539262E+02  0.55314274408E+03  0.17198237288E+03 0.  0.
         24    2    3    3    0    0  0.39497422440E+03  0.15209865724E+03  0.80555818086E+02  0.43837836267E+03  0.80917918610E+02 0.  0.
         -6    2    1    2    0  501 -0.45444842330E+03 -0.24999501226E+03  0.17072763929E+04  0.17925940694E+04  0.17198819774E+03 0.  0.
        -24    2    5    5    0    0 -0.40132583352E+03 -0.21404323490E+03  0.12839470422E+04  0.13644067634E+04  0.78796432218E+02 0.  0.
          5    1    3    3  502    0  0.59474198900E+02  0.97896355021E+02  0.52817211758E+01  0.11476438141E+03  0.47000000000E+01 0. -1.
        -13    1    4    4    0    0  0.24502144878E+03  0.10848225255E+03  0.13150102436E+02  0.26828498779E+03  0.00000000000E+00 0.  1.
         14    1    4    4    0    0  0.14995277563E+03  0.43616404696E+02  0.67405715650E+02  0.17009337488E+03  0.00000000000E+00 0. -1.
         -5    1    5    5    0  501 -0.53122589789E+02 -0.35951777366E+02  0.42332935068E+03  0.42818730596E+03  0.47000000000E+01 0.  1.
         13    1    6    6    0    0 -0.61567282501E+02 -0.14113712293E+02  0.25000481056E+03  0.25786068419E+03  0.00000000000E+00 0. -1.
        -14    1    6    6    0    0 -0.33975855101E+03 -0.19992952260E+03  0.10339422317E+04  0.11065460792E+04  0.00000000000E+00 0.  1.
</event>
<event>
12    1  0.1081556E+000  0.1864319E+03  0.7818608E-02  0.1161719E+00
         -1   -1    0    0    0  501 -0.00000000000E+00  0.00000000000E+00  0.51626037567E+03  0.51626037567E+03  0.00000000000E+00 0.  1.
          1   -1    0    0  502    0  0.00000000000E+00 -0.00000000000E+00 -0.68161235881E+02  0.68161235881E+02  0.00000000000E+00 0. -1.
          6    2    1    2  502    0 -0.68445701561E+02 -0.16278821779E+02  0.19008275169E+03  0.26527416218E+03  0.17114062793E+03 0.  0.
         24    2    3    3    0    0 -0.99733164848E+02  0.21834502148E+02  0.16551468368E+03  0.20998211225E+03  0.79208126453E+02 0.  0.
         -6    2    1    2    0  501  0.68445701561E+02  0.16278821779E+02  0.25801638810E+03  0.31914744937E+03  0.17416321027E+03 0.  0.
        -24    2    5    5    0    0  0.47404776941E+02 -0.66282637262E+01  0.42767755186E+02  0.10161235095E+03  0.78770820896E+02 0.  0.
          5    1    3    3  502    0  0.31287463287E+02 -0.38113323927E+02  0.24568068007E+02  0.55292049928E+02  0.47000000000E+01 0. -1.
        -11    1    4    4    0    0  0.22264229316E+01 -0.15886956761E+02  0.44518354584E+02  0.47320568985E+02  0.00000000000E+00 0.  1.
         12    1    4    4    0    0 -0.10195958778E+03  0.37721458908E+02  0.12099632910E+03  0.16266154327E+03  0.00000000000E+00 0. -1.
         -5    1    5    5    0  501  0.21040924620E+02  0.22907085505E+02  0.21524863291E+03  0.21753509842E+03  0.47000000000E+01 0.  1.
         13    1    6    6    0    0  0.65870257069E+02 -0.18701318743E+02  0.40198606029E+02  0.79401246941E+02  0.00000000000E+00 0. -1.
        -14    1    6    6    0    0 -0.18465480128E+02  0.12073055017E+02  0.25691491574E+01  0.22211104007E+02  0.00000000000E+00 0.  1.
</event>
<event>
12    1  0.1081556E+000  0.6519898E+03  0.7818608E-02  0.9803053E-01
         -2   -1    0    0    0  501 -0.00000000000E+00  0.00000000000E+00  0.11515704317E+03  0.11515704317E+03  0.00000000000E+00 0.  1.
          2   -1    0    0  502    0  0.00000000000E+00 -0.00000000000E+00 -0.37826226415E+04  0.37826226415E+04  0.00000000000E+00 0. -1.
          6    2    1    2  502    0  0.28511618570E+03 -0.56039879551E+03 -0.21359609467E+04  0.22332083412E+04  0.17190776519E+03 0.  0.
         24    2    3    3    0    0  0.23750391151E+03 -0.53111862506E+03 -0.18230751687E+04  0.19153343769E+04  0.80047504063E+02 0.  0.
         -6    2    1    2    0  501 -0.28511618570E+03  0.56039879551E+03 -0.15315046516E+04  0.16645713435E+04  0.17306995796E+03 0.  0.
        -24    2    5    5    0    0 -0.21315853051E+03  0.27184304023E+03 -0.82548309517E+03  0.89845721610E+03  0.80422826999E+02 0.  0.
          5    1    3    3  502    0  0.47612274185E+02 -0.29280170457E+02 -0.31288577809E+03  0.31787396428E+03  0.47000000000E+01 0. -1.
        -11    1    4    4    0    0  0.54392922183E+02 -0.21471281805E+03 -0.66272140858E+03  0.69875592993E+03  0.00000000000E+00 0.  1.
         12    1    4    4    0    0  0.18311098933E+03 -0.31640580701E+03 -0.11603537601E+04  0.12165784470E+04  0.00000000000E+00 0. -1.
         -5    1    5    5    0  501 -0.71957655192E+02  0.28855575528E+03 -0.70602155639E+03  0.76611412736E+03  0.47000000000E+01 0.  1.
         13    1    6    6    0    0 -0.13972482325E+03  0.21220371234E+03 -0.52160099183E+03  0.58019051737E+03  0.00000000000E+00 0. -1.
        -14    1    6    6    0    0 -0.73433707257E+02  0.59639327885E+02 -0.30388210334E+03  0.31826669874E+03  0.00000000000E+00 0.  1.
</event>
<event>
12    1  0.1081556E+000  0.4481000E+03  0.7818608E-02  0.1028290E+00
          4   -1    0    0  502    0  0.00000000000E+00  0.00000000000E+00  0.13978138665E+03  0.13978138665E+03  0.00000000000E+00 0. -1.
         -4   -1    0    0    0  501 -0.00000000000E+00 -0.00000000000E+00 -0.18679832284E+04  0.18679832284E+04  0.00000000000E+00 0.  1.
          6    2    1    2  502    0  0.40250761593E+03  0.96259534790E+02 -0.13468093975E+04  0.14194443673E+04  0.17218733905E+03 0.  0.
         24    2    3    3    0    0  0.28525665907E+03  0.38550576740E+02 -0.72446198041E+03  0.78350686385E+03  0.78615113916E+02 0.  0.
         -6    2    1    2    0  501 -0.40250761593E+03 -0.96259534790E+02 -0.38139244432E+03  0.58832024782E+03  0.17141248058E+03 0.  0.
        -24    2    5    5    0    0 -0.34923374919E+03 -0.27933434271E+02 -0.28525225350E+03  0.45881508507E+03  0.79987160453E+02 0.  0.
          5    1    3    3  502    0  0.11725095686E+03  0.57708958051E+02 -0.62234741707E+03  0.63593750342E+03  0.47000000000E+01 0. -1.
        -11    1    4    4    0    0  0.20159244039E+03  0.50826402674E+02 -0.43821447200E+03  0.48503067810E+03  0.00000000000E+00 0.  1.
         12    1    4    4    0    0  0.83664218683E+02 -0.12275825934E+02 -0.28624750841E+03  0.29847618575E+03  0.00000000000E+00 0. -1.
         -5    1    5    5    0  501 -0.53273866737E+02 -0.68326100520E+02 -0.96140190814E+02  0.12950516275E+03  0.47000000000E+01 0.  1.
         11    1    6    6    0    0 -0.31768656685E+03 -0.22725185922E+02 -0.28413979321E+03  0.42682152115E+03  0.00000000000E+00 0. -1.
        -12    1    6    6    0    0 -0.31547182340E+02 -0.52082483483E+01 -0.11124602926E+01  0.31993563920E+02  0.00000000000E+00 0.  1.
</event>
<event>
12    1  0.1081556E+000  0.2107741E+03  0.7818608E-02  0.1140954E+00
         -1   -1    0    0    0  501 -0.00000000000E+00  0.00000000000E+00  0.42434608862E+03  0.42434608862E+03  0.00000000000E+00 0.  1.
          1   -1    0    0  502    0  0.00000000000E+00 -0.00000000000E+00 -0.14988757123E+04  0.14988757123E+04  0.00000000000E+00 0. -1.
          6    2    1    2  502    0  0.91712022947E+02  0.53838647847E+02  0.38834855023E+03  0.44651858513E+03  0.19301439130E+03 0.  0.
         24    2    3    3    0    0  0.12111806973E+02  0.17386056821E+02  0.50026031150E+02  0.97020083430E+02  0.80382348536E+02 0.  0.
         -6    2    1    2    0  501 -0.91712022947E+02 -0.53838647847E+02 -0.14628781739E+04  0.14767032158E+04  0.17126044697E+03 0.  0.
        -24    2    5    5    0    0  0.12553269812E+01  0.19099184167E+02 -0.72525510106E+03  0.72966055096E+03  0.77738043005E+02 0.  0.
          5    1    3    3  502    0  0.79600215973E+02  0.36452591026E+02  0.33832251908E+03  0.34949850170E+03  0.47000000000E+01 0. -1.
        -11    1    4    4    0    0  0.18019435349E+02  0.47111835006E+02  0.19714244723E+02  0.54156038379E+02  0.00000000000E+00 0.  1.
         12    1    4    4    0    0 -0.59076283754E+01 -0.29725778185E+02  0.30311786427E+02  0.42864045051E+02  0.00000000000E+00 0. -1.
         -5    1    5    5    0  501 -0.92967349928E+02 -0.72937832014E+02 -0.73762307285E+03  0.74704266484E+03  0.47000000000E+01 0.  1.
         13    1    6    6    0    0 -0.28252499474E+02  0.35895732413E+02 -0.45263355357E+03  0.45493278751E+03  0.00000000000E+00 0. -1.
        -14    1    6    6    0    0  0.29507826455E+02 -0.16796548246E+02 -0.27262154749E+03  0.27472776345E+03  0.00000000000E+00 0.  1.
</event>
<event>
12    1  0.1565192E+000  0.1219727E+04  0.7818608E-02  0.9095763E-01
          1   -1    0    0  502    0  0.00000000000E+00  0.00000000000E+00  0.20213901091E+04  0.20213901091E+04  0.00000000000E+00 0. -1.
         -1   -1    0    0    0  501 -0.00000000000E+00 -0.00000000000E+00 -0.76478828523E+03  0.76478828523E+03  0.00000000000E+00 0.  1.
          6    2    1    2  502    0  0.11051339498E+04 -0.48637453319E+03  0.35803066689E+03  0.12712554895E+04  0.17327240919E+03 0.  0.
         24    2    3    3    0    0  0.66371972636E+03 -0.35549050978E+03  0.25931959688E+03  0.80035941868E+03  0.80194563647E+02 0.  0.
         -6    2    1    2    0  501 -0.11051339498E+04  0.48637453319E+03  0.89857115700E+03  0.15149229048E+04  0.17227898830E+03 0.  0.
        -24    2    5    5    0    0 -0.60794991499E+03  0.31925926034E+03  0.44326096686E+03  0.82033746145E+03  0.70311389334E+02 0.  0.
          5    1    3    3  502    0  0.44141422341E+03 -0.13088402341E+03  0.98711070019E+02  0.47089607087E+03  0.47000000000E+01 0. -1.
        -11    1    4    4    0    0  0.53156188168E+03 -0.24676715281E+03  0.19963467562E+03  0.61911716619E+03  0.00000000000E+00 0.  1.
         12    1    4    4    0    0  0.13215784468E+03 -0.10872335697E+03  0.59684921260E+02  0.18124225249E+03  0.00000000000E+00 0. -1.
         -5    1    5    5    0  501 -0.49718403479E+03  0.16711527285E+03  0.45531019014E+03  0.69458544335E+03  0.47000000000E+01 0.  1.
         11    1    6    6    0    0 -0.16074071855E+03  0.51241713984E+02  0.10022077246E+03  0.19623326702E+03  0.00000000000E+00 0. -1.
        -12    1    6    6    0    0 -0.44720919643E+03  0.26801754635E+03  0.34304019441E+03  0.62410419443E+03  0.00000000000E+00 0.  1.
</event>
<event>
12    1  0.1081556E+000  0.7753636E+03  0.7818608E-02  0.9596378E-01
         -1   -1    0    0    0  501 -0.00000000000E+00  0.00000000000E+00  0.12733121079E+04  0.12733121079E+04  0.00000000000E+00 0.  1.
          1   -1    0    0  502    0  0.00000000000E+00 -0.00000000000E+00 -0.56595182335E+03  0.56595182335E+03  0.00000000000E+00 0. -1.
          6    2    1    2  502    0  0.73905659926E+03  0.15864177809E+03  0.72803857891E+03  0.10635057121E+04  0.17214051443E+03 0.  0.
         24    2    3    3    0    0  0.56324244891E+03  0.12534456907E+03  0.46517623346E+03  0.74548366535E+03  0.80022808462E+02 0.  0.
         -6    2    1    2    0  501 -0.73905659926E+03 -0.15864177809E+03 -0.20678294353E+02  0.77575821913E+03  0.17320898367E+03 0.  0.
        -24    2    5    5    0    0 -0.17836146291E+03 -0.34788001786E+02  0.22406070674E+02  0.19991349497E+03  0.80251834550E+02 0.  0.
          5    1    3    3  502    0  0.17581415035E+03  0.33297209012E+02  0.26286234544E+03  0.31802204679E+03  0.47000000000E+01 0. -1.
        -11    1    4    4    0    0  0.30981944389E+03  0.10068195615E+03  0.22909740739E+03  0.39825942070E+03  0.00000000000E+00 0.  1.
         12    1    4    4    0    0  0.25342300502E+03  0.24662612924E+02  0.23607882608E+03  0.34722424465E+03  0.00000000000E+00 0. -1.
         -5    1    5    5    0  501 -0.56069513635E+03 -0.12385377630E+03 -0.43084365028E+02  0.57584472416E+03  0.47000000000E+01 0.  1.
         11    1    6    6    0    0 -0.15519249934E+03 -0.49319546023E+02 -0.25917019923E+01  0.16286143309E+03  0.00000000000E+00 0. -1.
        -12    1    6    6    0    0 -0.23168963571E+02  0.14531544237E+02  0.24997772667E+02  0.37052061875E+02  0.00000000000E+00 0.  1.
</event>
<event>
12    1  0.1081556E+000  0.8866626E+03  0.7818608E-02  0.9442409E-01
          1   -1    0    0  502    0  0.00000000000E+00  0.00000000000E+00  0.30065279712E+04  0.30065279712E+04  0.00000000000E+00 0. -1.
         -1   -1    0    0    0  501 -0.00000000000E+00 -0.00000000000E+00 -0.12083069778E+04  0.12083069778E+04  0.00000000000E+00 0.  1.
          6    2    1    2  502    0  0.83189366541E+03  0.25396572101E+03 -0.96641692684E+03  0.13114561271E+04  0.17149297036E+03 0.  0.
         24    2    3    3    0    0  0.60437579809E+03  0.24369819429E+03 -0.67685659967E+03  0.94303099887E+03  0.80707453815E+02 0.  0.
         -6    2    1    2    0  501 -0.83189366541E+03 -0.25396572101E+03  0.27646379202E+04  0.29033788218E+04  0.17274285885E+03 0.  0.
        -24    2    5    5    0    0 -0.45798692891E+03 -0.91758755959E+02  0.16444450757E+04  0.17113337530E+04  0.79321567323E+02 0.  0.
          5    1    3    3  502    0  0.22751786732E+03  0.10267526727E+02 -0.28956032718E+03  0.36842512825E+03  0.47000000000E+01 0. -1.
        -13    1    4    4    0    0  0.37653722119E+03  0.14421181182E+03 -0.47292536370E+03  0.62147866032E+03  0.00000000000E+00 0.  1.
         14    1    4    4    0    0  0.22783857690E+03  0.99486382468E+02 -0.20393123597E+03  0.32155233855E+03  0.00000000000E+00 0. -1.
         -5    1    5    5    0  501 -0.37390673649E+03 -0.16220696505E+03  0.11201928445E+04  0.11920450688E+04  0.47000000000E+01 0.  1.
         11    1    6    6    0    0 -0.36666844210E+03 -0.71845331944E+02  0.11862333261E+04  0.12436868585E+04  0.00000000000E+00 0. -1.
        -12    1    6    6    0    0 -0.91318486815E+02 -0.19913424015E+02  0.45821174960E+03  0.46764689452E+03  0.00000000000E+00 0.  1.
</event>
<event>
12    1  0.1081556E+000  0.8067991E+03  0.7818608E-02  0.9550228E-01
         -1   -1    0    0    0  501 -0.00000000000E+00  0.00000000000E+00  0.32578417391E+03  0.32578417391E+03  0.00000000000E+00 0.  1.
          1   -1    0    0  502    0  0.00000000000E+00 -0.00000000000E+00 -0.27159013742E+04  0.27159013742E+04  0.00000000000E+00 0. -1.
          6    2    1    2  502    0  0.28350998470E+03 -0.73530882750E+03 -0.41321424335E+03  0.90650762325E+03  0.17306957236E+03 0.  0.
         24    2    3    3    0    0  0.90646055519E+02 -0.41703801284E+03 -0.20728623526E+03  0.48115924702E+03  0.80057642548E+02 0.  0.
         -6    2    1    2    0  501 -0.28350998470E+03  0.73530882750E+03 -0.19769029569E+04  0.21351779248E+04  0.17257603068E+03 0.  0.
        -24    2    5    5    0    0 -0.20062687407E+03  0.65926147909E+03 -0.16563753910E+04  0.17954533015E+04  0.72085236320E+02 0.  0.
          5    1    3    3  502    0  0.19286392918E+03 -0.31827081466E+03 -0.20592800809E+03  0.42534837623E+03  0.47000000000E+01 0. -1.
        -13    1    4    4    0    0  0.84909596775E+02 -0.41943322192E+03 -0.20332363181E+03  0.47378725872E+03  0.00000000000E+00 0.  1.
         14    1    4    4    0    0  0.57364587436E+01  0.23952090751E+01 -0.39626034541E+01  0.73719883048E+01  0.00000000000E+00 0. -1.
         -5    1    5    5    0  501 -0.82883110635E+02  0.76047348411E+02 -0.32052756587E+03  0.33972462335E+03  0.47000000000E+01 0.  1.
         11    1    6    6    0    0 -0.87105307238E+02  0.35983618576E+03 -0.81295927320E+03  0.89329289430E+03  0.00000000000E+00 0. -1.
        -12    1    6    6    0    0 -0.11352156683E+03  0.29942529333E+03 -0.84341611784E+03  0.90216040717E+03  0.00000000000E+00 0.  1.
</event>
<event>
12    1  0.1081556E+000  0.3109494E+03  0.7818608E-02  0.1079892E+00
          1   -1    0    0  502    0  0.00000000000E+00  0.00000000000E+00  0.68817461400E+03  0.68817461400E+03  0.00000000000E+00 0. -1.
         -1   -1    0    0    0  501 -0.00000000000E+00 -0.00000000000E+00 -0.16375386273E+03  0.16375386273E+03  0.00000000000E+00 0.  1.
          6    2    1    2  502    0  0.25345639488E+03  0.48627804303E+02  0.10210671035E+03  0.32782106045E+03  0.17445933600E+03 0.  0.
         24    2    3    3    0    0  0.22074219106E+03  0.13469510793E+01  0.12530134197E+03  0.26564567023E+03  0.78347090715E+02 0.  0.
         -6    2    1    2    0  501 -0.25345639488E+03 -0.48627804303E+02  0.42231404092E+03  0.52410741628E+03  0.17243731377E+03 0.  0.
        -24    2    5    5    0    0 -0.23771352258E+03 -0.72439932456E+02  0.42071194255E+03  0.49513307945E+03  0.80018529933E+02 0.  0.
          5    1    3    3  502    0  0.32714203827E+02  0.47280853224E+02 -0.23194631613E+02  0.62175390222E+02  0.47000000000E+01 0. -1.
        -11    1    4    4    0    0  0.92152808437E+02 -0.38116086167E+02  0.52543390016E+02  0.11271993596E+03  0.00000000000E+00 0.  1.
         12    1    4    4    0    0  0.12858938262E+03  0.39463037246E+02  0.72757951950E+02  0.15292573427E+03  0.00000000000E+00 0. -1.
         -5    1    5    5    0  501 -0.15742872301E+02  0.23812128153E+02  0.16020983769E+01  0.28974336828E+02  0.47000000000E+01 0.  1.
         13    1    6    6    0    0 -0.67962469814E+02 -0.18748912999E+02  0.19691585605E+03  0.20915609818E+03  0.00000000000E+00 0. -1.
        -14    1    6    6    0    0 -0.16975105277E+03 -0.53691019457E+02  0.22379608650E+03  0.28597698128E+03  0.00000000000E+00 0.  1.
</event>
<event>
12    1  0.1081556E+000  0.2710506E+03  0.7818608E-02  0.1100680E+00
          2   -1    0    0  502    0  0.00000000000E+00  0.00000000000E+00  0.55702963260E+02  0.55702963260E+02  0.00000000000E+00 0. -1.
         -2   -1    0    0    0  501 -0.00000000000E+00 -0.00000000000E+00 -0.25310550682E+04  0.25310550682E+04  0.00000000000E+00 0.  1.
          6    2    1    2  502    0  0.15747579164E+02 -0.20809457814E+03 -0.21313323531E+04  0.21484248793E+04  0.17204802467E+03 0.  0.
         24    2    3    3    0    0  0.61996333440E+02 -0.95085400856E+02 -0.14193833545E+04  0.14260652126E+04  0.78282212173E+02 0.  0.
         -6    2    1    2    0  501 -0.15747579164E+02  0.20809457814E+03 -0.34401975180E+03  0.43833315215E+03  0.17388220998E+03 0.  0.
        -24    2    5    5    0    0 -0.60719542850E+02  0.13151877967E+03 -0.29170285322E+03  0.33515622496E+03  0.79089115935E+02 0.  0.
          5    1    3    3  502    0 -0.46248754276E+02 -0.11300917728E+03 -0.71194899864E+03  0.72235966670E+03  0.47000000000E+01 0. -1.
        -11    1    4    4    0    0  0.57869216117E+02 -0.10767193380E+03 -0.13420759838E+04  0.13476312693E+04  0.00000000000E+00 0.  1.
         12    1    4    4    0    0  0.41271173229E+01  0.12586532940E+02 -0.77307370680E+02  0.78433943356E+02  0.00000000000E+00 0. -1.
         -5    1    5    5    0  501  0.44971963686E+02  0.76575798465E+02 -0.52316898576E+02  0.10317692719E+03  0.47000000000E+01 0.  1.
         11    1    6    6    0    0 -0.16234993873E+02  0.11634967093E+03 -0.22046059790E+03  0.24980731811E+03  0.00000000000E+00 0. -1.
        -12    1    6    6    0    0 -0.44484548977E+02  0.15169108741E+02 -0.71242255322E+02  0.85348906853E+02  0.00000000000E+00 0.  1.
</event>
<event>
12    1  0.1081556E+000  0.1897223E+03  0.7818608E-02  0.1158712E+00
          1   -1    0    0  502    0  0.00000000000E+00  0.00000000000E+00  0.98008764932E+02  0.98008764932E+02  0.00000000000E+00 0. -1.
         -1   -1    0    0    0  501 -0.00000000000E+00 -0.00000000000E+00 -0.42802683889E+03  0.42802683889E+03  0.00000000000E+00 0.  1.
          6    2    1    2  502    0  0.62444107726E+02 -0.49636301651E+02 -0.26373687846E+03  0.32459593357E+03  0.17158773266E+03 0.  0.
         24    2    3    3    0    0  0.67761779336E+02 -0.92479785636E+02 -0.22035499043E+03  0.26321254852E+03  0.87065230713E+02 0.  0.
         -6    2    1    2    0  501 -0.62444107726E+02  0.49636301651E+02 -0.66281195494E+02  0.20143967025E+03  0.17268964892E+03 0.  0.
        -24    2    5    5    0    0 -0.41428826584E+01  0.79583469377E+02 -0.74961617125E+02  0.13515765596E+03  0.79357771180E+02 0.  0.
          5    1    3    3  502    0 -0.53176716103E+01  0.42843483985E+02 -0.43381888029E+02  0.61383385050E+02  0.47000000000E+01 0. -1.
        -11    1    4    4    0    0  0.77509972174E+02 -0.67453758900E+02 -0.11379599099E+03  0.15332101272E+03  0.00000000000E+00 0.  1.
         12    1    4    4    0    0 -0.97481928380E+01 -0.25026026736E+02 -0.10655899945E+03  0.10989153580E+03  0.00000000000E+00 0. -1.
         -5    1    5    5    0  501 -0.58301225067E+02 -0.29947167726E+02  0.86804216319E+01  0.66282014294E+02  0.47000000000E+01 0.  1.
         13    1    6    6    0    0 -0.11714596618E+02 -0.81696256670E+01  0.60288880551E+01  0.15502323975E+02  0.00000000000E+00 0. -1.
        -14    1    6    6    0    0  0.75717139591E+01  0.87753095044E+02 -0.80990505181E+02  0.11965533198E+03  0.00000000000E+00 0.  1.
</event>
<event>
12    1  0.1081556E+000  0.2095121E+03  0.7818608E-02  0.1141953E+00
         -2   -1    0    0    0  501 -0.00000000000E+00  0.00000000000E+00  0.58386902455E+02  0.58386902455E+02  0.00000000000E+00 0.  1.
          2   -1    0    0  502    0  0.00000000000E+00 -0.00000000000E+00 -0.76613750729E+03  0.76613750729E+03  0.00000000000E+00 0. -1.
          6    2    1    2  502    0  0.10975799444E+03  0.50052818957E+02 -0.29856953536E+03  0.36511895297E+03  0.17209294101E+03 0.  0.
         24    2    3    3    0    0  0.94276963767E+02 -0.11820545267E+02 -0.10920609237E+03  0.16524754668E+03  0.79705143419E+02 0.  0.
         -6    2    1    2    0  501 -0.10975799444E+03 -0.50052818957E+02 -0.40918106948E+03  0.45940545677E+03  0.17050549569E+03 0.  0.
        -24    2    5    5    0    0 -0.28673620005E+02  0.15238796826E+02 -0.28499086236E+03  0.29728522850E+03  0.78130135311E+02 0.  0.
          5    1    3    3  502    0  0.15481030676E+02  0.61873364224E+02 -0.18936344299E+03  0.19987140629E+03  0.47000000000E+01 0. -1.
        -13    1    4    4    0    0  0.24185084858E+02  0.12145390961E+02  0.65257173460E+01  0.27839070352E+02  0.00000000000E+00 0.  1.
         14    1    4    4    0    0  0.70091878909E+02 -0.23965936228E+02 -0.11573180971E+03  0.13740847633E+03  0.00000000000E+00 0. -1.
         -5    1    5    5    0  501 -0.81084374439E+02 -0.65291615784E+02 -0.12419020711E+03  0.16212022826E+03  0.47000000000E+01 0.  1.
         13    1    6    6    0    0 -0.25833224218E+02  0.23451691084E+02 -0.28636882280E+03  0.28848646409E+03  0.00000000000E+00 0. -1.
        -14    1    6    6    0    0 -0.28403957869E+01 -0.82128942573E+01  0.13779604393E+01  0.87987644178E+01  0.00000000000E+00 0.  1.
</event>
<event>
12    1  0.1081556E+000  0.2588041E+03  0.7818608E-02  0.1107864E+00
          2   -1    0    0  502    0  0.00000000000E+00  0.00000000000E+00  0.31141207793E+03  0.31141207793E+03  0.00000000000E+00 0. -1.
         -2   -1    0    0    0  501 -0.00000000000E+00 -0.00000000000E+00 -0.50633387908E+03  0.50633387908E+03  0.00000000000E+00 0.  1.
          6    2    1    2  502    0 -0.75982716016E+02 -0.17767307504E+03 -0.40751042538E+03  0.48257484830E+03  0.17167598169E+03 0.  0.
         24    2    3    3    0    0  0.96720311055E+01 -0.13957605590E+03 -0.21623842550E+03  0.26951338648E+03  0.79393861639E+02 0.  0.
         -6    2    1    2    0  501  0.75982716016E+02  0.17767307504E+03  0.21258862423E+03  0.33517110870E+03  0.17264024511E+03 0.  0.
        -24    2    5    5    0    0  0.51476390912E+02  0.96909796445E+02  0.21011966366E+03  0.25060484530E+03  0.81309212060E+02 0.  0.
          5    1    3    3  502    0 -0.85654747122E+02 -0.38097019138E+02 -0.19127199988E+03  0.21306146182E+03  0.47000000000E+01 0. -1.
        -13    1    4    4    0    0 -0.12998013060E+02 -0.32056704346E+02 -0.11504565566E+03  0.12013360696E+03  0.00000000000E+00 0.  1.
         14    1    4    4    0    0  0.22670044166E+02 -0.10751935155E+03 -0.10119276984E+03  0.14937977952E+03  0.00000000000E+00 0. -1.
         -5    1    5    5    0  501  0.24506325105E+02  0.80763278592E+02  0.24689605721E+01  0.84566263400E+02  0.47000000000E+01 0.  1.
         11    1    6    6    0    0  0.45407109080E+02  0.16200123922E+02  0.41685191889E+02  0.63733074561E+02  0.00000000000E+00 0. -1.
        -12    1    6    6    0    0  0.60692818315E+01  0.80709672523E+02  0.16843447177E+03  0.18687177074E+03  0.00000000000E+00 0.  1.
</event>
<event>
12    1  0.1081556E+000  0.3304496E+03  0.7818608E-02  0.1070938E+00
          2   -1    0    0  502    0  0.00000000000E+00  0.00000000000E+00  0.56309093730E+03  0.56309093730E+03  0.00000000000E+00 0. -1.
         -2   -1    0    0    0  501 -0.00000000000E+00 -0.00000000000E+00 -0.72580321064E+03  0.72580321064E+03  0.00000000000E+00 0.  1.
          6    2    1    2  502    0  0.14851163464E+03  0.23941768642E+03 -0.63305917874E+03  0.71430613657E+03  0.17347276083E+03 0.  0.
         24    2    3    3    0    0  0.14491731348E+03  0.16003649652E+03 -0.56269440645E+03  0.60806309616E+03  0.80641341111E+02 0.  0.
         -6    2    1    2    0  501 -0.14851163464E+03 -0.23941768642E+03  0.47034690541E+03  0.57458801138E+03  0.17189717041E+03 0.  0.
        -24    2    5    5    0    0 -0.91273391979E+02 -0.92617352766E+02  0.33228767802E+03  0.36504327951E+03  0.77023949760E+02 0.  0.
          5    1    3    3  502    0  0.35943211577E+01  0.79381189903E+02 -0.70364772296E+02  0.10624304041E+03  0.47000000000E+01 0. -1.
        -11    1    4    4    0    0  0.75924940161E+02  0.11592739778E+03 -0.26167005891E+03  0.29609960794E+03  0.00000000000E+00 0.  1.
         12    1    4    4    0    0  0.68992373323E+02  0.44109098742E+02 -0.30102434754E+03  0.31196348822E+03  0.00000000000E+00 0. -1.
         -5    1    5    5    0  501 -0.57238242663E+02 -0.14680033366E+03  0.13805922739E+03  0.20954473187E+03  0.47000000000E+01 0.  1.
         13    1    6    6    0    0 -0.39894002728E+02 -0.53139502391E+02  0.77217085336E+02  0.10187156834E+03  0.00000000000E+00 0. -1.
        -14    1    6    6    0    0 -0.51379389251E+02 -0.39477850374E+02  0.25507059268E+03  0.26317171117E+03  0.00000000000E+00 0.  1.
</event>
<event>
12    1  0.1081556E+000  0.4940842E+03  0.7818608E-02  0.1015335E+00
         -2   -1    0    0    0  501 -0.00000000000E+00  0.00000000000E+00  0.86223180510E+03  0.86223180510E+03  0.00000000000E+00 0.  1.
          2   -1    0    0  502    0  0.00000000000E+00 -0.00000000000E+00 -0.18557561801E+04  0.18557561801E+04  0.00000000000E+00 0. -1.
          6    2    1    2  502    0 -0.30109557849E+03 -0.35190604599E+03  0.75428268376E+03  0.90167517249E+03  0.17198644444E+03 0.  0.
         24    2    3    3    0    0 -0.26709720694E+03 -0.36027681729E+03  0.72206936895E+03  0.85386568879E+03  0.81007023687E+02 0.  0.
         -6    2    1    2    0  501  0.30109557849E+03  0.35190604599E+03 -0.17478070587E+04  0.18163128127E+04  0.17223909648E+03 0.  0.
        -24    2    5    5    0    0  0.30013508665E+03  0.35456229268E+03 -0.17465849353E+04  0.18106948258E+04  0.11073087311E+03 0.  0.
          5    1    3    3  502    0 -0.33998371555E+02  0.83707712976E+01  0.32213314806E+02  0.47809483696E+02  0.47000000000E+01 0. -1.
        -11    1    4    4    0    0 -0.49029608663E+02 -0.31598395264E+02  0.63624397309E+02  0.86315844674E+02  0.00000000000E+00 0.  1.
         12    1    4    4    0    0 -0.21806759827E+03 -0.32867842203E+03  0.65844497164E+03  0.76754984412E+03  0.00000000000E+00 0. -1.
         -5    1    5    5    0  501  0.96049184409E+00 -0.26562466908E+01 -0.12221234252E+01  0.56179868932E+01  0.47000000000E+01 0. -1.
         13    1    6    6    0    0  0.97893486794E+02  0.19518814148E+03 -0.87806986525E+03  0.90481392208E+03  0.00000000000E+00 0. -1.
        -14    1    6    6    0    0  0.20224159985E+03  0.15937415121E+03 -0.86851507006E+03  0.90588090371E+03  0.00000000000E+00 0.  1.
</event>
<event>
12    1  0.1081556E+000  0.2457217E+03  0.7818608E-02  0.1116039E+00
         -1   -1    0    0    0  501 -0.00000000000E+00  0.00000000000E+00  0.19036119054E+03  0.19036119054E+03  0.00000000000E+00 0.  1.
          1   -1    0    0  502    0  0.00000000000E+00 -0.00000000000E+00 -0.56936192427E+03  0.56936192427E+03  0.00000000000E+00 0. -1.
          6    2    1    2  502    0 -0.16011465607E+03 -0.71891511205E+02  0.62976465470E+02  0.25440053143E+03  0.17305635706E+03 0.  0.
         24    2    3    3    0    0 -0.75299756276E+02 -0.60364634249E+01  0.91651277266E+02  0.14315850081E+03  0.79924386423E+02 0.  0.
         -6    2    1    2    0  501  0.16011465607E+03  0.71891511205E+02 -0.44197719920E+03  0.50532258337E+03  0.17088585719E+03 0.  0.
        -24    2    5    5    0    0  0.11401225856E+03  0.74809948276E+02 -0.42886859027E+03  0.45707453721E+03  0.79959623415E+02 0.  0.
          5    1    3    3  502    0 -0.84814899792E+02 -0.65855047780E+02 -0.28674811796E+02  0.11124203062E+03  0.47000000000E+01 0. -1.
        -13    1    4    4    0    0  0.13734104437E+01  0.17419032727E+02  0.49667081182E+02  0.52651001041E+02  0.00000000000E+00 0.  1.
         14    1    4    4    0    0 -0.76673166720E+02 -0.23455496152E+02  0.41984196083E+02  0.90507499774E+02  0.00000000000E+00 0. -1.
         -5    1    5    5    0  501  0.46102397510E+02 -0.29184370713E+01 -0.13108608923E+02  0.48248046168E+02  0.47000000000E+01 0.  1.
         13    1    6    6    0    0  0.22816090287E+01 -0.11973846035E+01 -0.11893126528E+03  0.11895917506E+03  0.00000000000E+00 0. -1.
        -14    1    6    6    0    0  0.11173064953E+03  0.76007332879E+02 -0.30993732499E+03  0.33811536215E+03  0.00000000000E+00 0.  1.
</event>
<event>
12    1  0.1081556E+000  0.9384008E+03  0.7818608E-02  0.9378812E-01
          2   -1    0    0  502    0  0.00000000000E+00  0.00000000000E+00  0.28915221370E+04  0.28915221370E+04  0.00000000000E+00 0. -1.
         -2   -1    0    0    0  501 -0.00000000000E+00 -0.00000000000E+00 -0.39003204825E+03  0.39003204825E+03  0.00000000000E+00 0.  1.
          6    2    1    2  502    0 -0.69827402243E+03 -0.60284124803E+03  0.48249620646E+03  0.10551013317E+04  0.17155771699E+03 0.  0.
         24    2    3    3    0    0 -0.44552479909E+03 -0.41473008651E+03  0.38772211189E+03  0.72605392179E+03  0.79576818516E+02 0.  0.
         -6    2    1    2    0  501  0.69827402243E+03  0.60284124803E+03  0.20189938822E+04  0.22264528535E+04  0.17248719212E+03 0.  0.
        -24    2    5    5    0    0  0.38712341021E+03  0.39371155933E+03  0.10992546969E+04  0.12332297219E+04  0.87300237369E+02 0.  0.
          5    1    3    3  502    0 -0.25274922335E+03 -0.18811116153E+03  0.94774094570E+02  0.32904740995E+03  0.47000000000E+01 0. -1.
        -13    1    4    4    0    0 -0.12670184025E+03 -0.74196656269E+02  0.79940404745E+02  0.16717944980E+03  0.00000000000E+00 0.  1.
         14    1    4    4    0    0 -0.31882295883E+03 -0.34053343024E+03  0.30778170715E+03  0.55887447199E+03  0.00000000000E+00 0. -1.
         -5    1    5    5    0  501  0.31115061222E+03  0.20912968871E+03  0.91973918531E+03  0.99322313162E+03  0.47000000000E+01 0.  1.
         11    1    6    6    0    0  0.78742539445E+02  0.66716386961E+02  0.14036352981E+03  0.17422222679E+03  0.00000000000E+00 0. -1.
        -12    1    6    6    0    0  0.30838087076E+03  0.32699517237E+03  0.95889116712E+03  0.10590074951E+04  0.00000000000E+00 0.  1.
</event>
<event>
12    1  0.1081556E+000  0.4759728E+03  0.7818608E-02  0.1020248E+00
          1   -1    0    0  502    0  0.00000000000E+00  0.00000000000E+00  0.60596710690E+03  0.60596710690E+03  0.00000000000E+00 0. -1.
         -1   -1    0    0    0  501 -0.00000000000E+00 -0.00000000000E+00 -0.37469994270E+03  0.37469994270E+03  0.00000000000E+00 0.  1.
          6    2    1    2  502    0  0.40099969392E+03 -0.19049113382E+03  0.92651185213E+02  0.48551349344E+03  0.17335363740E+03 0.  0.
         24    2    3    3    0    0  0.14579027863E+03 -0.49098043188E+02 -0.16462609650E+02  0.17398217565E+03  0.79582389636E+02 0.  0.
         -6    2    1    2    0  501 -0.40099969392E+03  0.19049113382E+03  0.13861597899E+03  0.49515355616E+03  0.16992653694E+03 0.  0.
        -24    2    5    5    0    0 -0.24046600267E+03  0.86152675406E+02  0.16905570927E+02  0.26823265945E+03  0.80104802286E+02 0.  0.
          5    1    3    3  502    0  0.25520941529E+03 -0.14139309063E+03  0.10911379486E+03  0.31153131778E+03  0.47000000000E+01 0. -1.
        -13    1    4    4    0    0  0.65489563169E+02 -0.59007529209E+02 -0.27456281110E+02  0.92328862009E+02  0.00000000000E+00 0.  1.
         14    1    4    4    0    0  0.80300715462E+02  0.99094860204E+01  0.10993671460E+02  0.81653313644E+02  0.00000000000E+00 0. -1.
         -5    1    5    5    0  501 -0.16053369125E+03  0.10433845841E+03  0.12171040806E+03  0.22692089671E+03  0.47000000000E+01 0.  1.
         11    1    6    6    0    0 -0.10200406472E+03  0.75833910812E-01  0.24903214892E+02  0.10500002420E+03  0.00000000000E+00 0. -1.
        -12    1    6    6    0    0 -0.13846193795E+03  0.86076841495E+02 -0.79976439644E+01  0.16323263525E+03  0.00000000000E+00 0.  1.
</event>
<event>
12    1  0.1081556E+000  0.4401222E+03  0.7818608E-02  0.1030709E+00
         -1   -1    0    0    0  501 -0.00000000000E+00  0.00000000000E+00  0.98081569674E+03  0.98081569674E+03  0.00000000000E+00 0.  1.
          1   -1    0    0  502    0  0.00000000000E+00 -0.00000000000E+00 -0.18928623540E+04  0.18928623540E+04  0.00000000000E+00 0. -1.
          6    2    1    2  502    0  0.34120368402E+03  0.21882036465E+03  0.90378197125E+03  0.10052965875E+04  0.17174711423E+03 0.  0.
         24    2    3    3    0    0  0.12244254918E+03  0.30692680627E+02  0.36036000060E+03  0.39000967245E+03  0.79460657408E+02 0.  0.
         -6    2    1    2    0  501 -0.34120368402E+03 -0.21882036465E+03 -0.18158286285E+04  0.18683814632E+04  0.17121150131E+03 0.  0.
        -24    2    5    5    0    0 -0.21850135451E+03 -0.81455831180E+02 -0.12229451217E+04  0.12475289692E+04  0.79723672615E+02 0.  0.
          5    1    3    3  502    0  0.21876113484E+03  0.18812768403E+03  0.54342197065E+03  0.61528691502E+03  0.47000000000E+01 0. -1.
        -13    1    4    4    0    0  0.61836790444E+02  0.39139799700E+02  0.10885939283E+03  0.13117194814E+03  0.00000000000E+00 0.  1.
         14    1    4    4    0    0  0.60605758739E+02 -0.84471190734E+01  0.25150060777E+03  0.25883772430E+03  0.00000000000E+00 0. -1.
         -5    1    5    5    0  501 -0.12270232951E+03 -0.13736453347E+03 -0.59288350674E+03  0.62085249399E+03  0.47000000000E+01 0.  1.
         11    1    6    6    0    0 -0.14325338764E+03 -0.85290165873E+02 -0.94284553691E+03  0.95747253326E+03  0.00000000000E+00 0. -1.
        -12    1    6    6    0    0 -0.75247966871E+02  0.38343346933E+01 -0.28009958481E+03  0.29005643598E+03  0.00000000000E+00 0.  1.
</event>
<event>
12    1  0.1081556E+000  0.2406794E+03  0.7818608E-02  0.1119341E+00
         -1   -1    0    0    0  501 -0.00000000000E+00  0.00000000000E+00  0.20759184692E+03  0.20759184692E+03  0.00000000000E+00 0.  1.
          1   -1    0    0  502    0  0.00000000000E+00 -0.00000000000E+00 -0.25493186426E+04  0.25493186426E+04  0.00000000000E+00 0. -1.
          6    2    1    2  502    0  0.47975412474E+02 -0.16155438793E+03  0.12975532586E+03  0.27377511848E+03  0.17238013356E+03 0.  0.
         24    2    3    3    0    0  0.29149124756E+02 -0.10160673442E+03  0.15688174902E+03  0.20517422122E+03  0.79441663673E+02 0.  0.
         -6    2    1    2    0  501 -0.47975412474E+02  0.16155438793E+03 -0.24714821215E+04  0.24831353710E+04  0.17127735810E+03 0.  0.
        -24    2    5    5    0    0 -0.94236065391E+02  0.13601070658E+03 -0.17214073053E+04  0.17311866709E+04  0.79905134453E+02 0.  0.
          5    1    3    3  502    0  0.18826287718E+02 -0.59947653513E+02 -0.27126423155E+02  0.68600897255E+02  0.47000000000E+01 0. -1.
        -13    1    4    4    0    0  0.55652305823E+02 -0.82661126774E+02  0.11784658616E+03  0.15433035635E+03  0.00000000000E+00 0.  1.
         14    1    4    4    0    0 -0.26503181066E+02 -0.18945607647E+02  0.39035162858E+02  0.50843864872E+02  0.00000000000E+00 0. -1.
         -5    1    5    5    0  501  0.46260652916E+02  0.25543681355E+02 -0.75007481620E+03  0.75194870009E+03  0.47000000000E+01 0.  1.
         13    1    6    6    0    0 -0.53110462192E+02  0.12901866949E+03 -0.14333301096E+04  0.14401047675E+04  0.00000000000E+00 0. -1.
        -14    1    6    6    0    0 -0.41125603199E+02  0.69920370926E+01 -0.28807719569E+03  0.29108190342E+03  0.00000000000E+00 0.  1.
</event>
<event>
12    1  0.1081556E+000  0.3839700E+03  0.7818608E-02  0.1049476E+00
          1   -1    0    0  502    0  0.00000000000E+00  0.00000000000E+00  0.34340909048E+03  0.34340909048E+03  0.00000000000E+00 0. -1.
         -1   -1    0    0    0  501 -0.00000000000E+00 -0.00000000000E+00 -0.13876277205E+04  0.13876277205E+04  0.00000000000E+00 0.  1.
          6    2    1    2  502    0 -0.16174569351E+03  0.30373464802E+03 -0.12416482783E+04  0.12998525247E+04  0.17178397277E+03 0.  0.
         24    2    3    3    0    0 -0.10758904221E+02  0.11604757669E+03 -0.53119273535E+03  0.54965747291E+03  0.79842478447E+02 0.  0.
         -6    2    1    2    0  501  0.16174569351E+03 -0.30373464802E+03  0.19742964828E+03  0.43118428624E+03  0.16889350759E+03 0.  0.
        -24    2    5    5    0    0  0.13923734671E+03 -0.13355235920E+03  0.86184457460E+02  0.22657192204E+03  0.81754533707E+02 0.  0.
          5    1    3    3  502    0 -0.15098678929E+03  0.18768707133E+03 -0.71045554295E+03  0.75019505184E+03  0.47000000000E+01 0. -1.
        -11    1    4    4    0    0 -0.14404572401E+01  0.11655422860E+03 -0.52642955871E+03  0.53917997311E+03  0.00000000000E+00 0.  1.
         12    1    4    4    0    0 -0.93184469811E+01 -0.50665191276E+00 -0.47631766349E+01  0.10477499795E+02  0.00000000000E+00 0. -1.
         -5    1    5    5    0  501  0.22508346798E+02 -0.17018228882E+03  0.11124519082E+03  0.20461236420E+03  0.47000000000E+01 0.  1.
         13    1    6    6    0    0  0.11290965947E+03 -0.14241468387E+03  0.73749736465E+02  0.19613657745E+03  0.00000000000E+00 0. -1.
        -14    1    6    6    0    0  0.26327687237E+02  0.88623246759E+01  0.12434720995E+02  0.30435344587E+02  0.00000000000E+00 0.  1.
</event>
<event>
12    1  0.1081556E+000  0.2543559E+03  0.7818608E-02  0.1110583E+00
         -2   -1    0    0    0  501 -0.00000000000E+00  0.00000000000E+00  0.83254001131E+02  0.83254001131E+02  0.00000000000E+00 0.  1.
          2   -1    0    0  502    0  0.00000000000E+00 -0.00000000000E+00 -0.11185061961E+04  0.11185061961E+04  0.00000000000E+00 0. -1.
          6    2    1    2  502    0  0.87424596127E+02 -0.16487302959E+03 -0.18458817297E+03  0.31366552203E+03  0.17171805443E+03 0.  0.
         24    2    3    3    0    0  0.89099071550E+02 -0.90861222595E+02 -0.46796723103E+02  0.15717550606E+03  0.79497170322E+02 0.  0.
         -6    2    1    2    0  501 -0.87424596127E+02  0.16487302959E+03 -0.85066402202E+03  0.88809467521E+03  0.17394452534E+03 0.  0.
        -24    2    5    5    0    0 -0.27717637457E+02  0.62421545831E+02 -0.61841385848E+03  0.62728160824E+03  0.79886161956E+02 0.  0.
          5    1    3    3  502    0 -0.16744754232E+01 -0.74011807000E+02 -0.13779144986E+03  0.15649001597E+03  0.47000000000E+01 0. -1.
        -13    1    4    4    0    0  0.99053987148E+02 -0.94153506635E+02 -0.51014992597E+02  0.14587359134E+03  0.00000000000E+00 0.  1.
         14    1    4    4    0    0 -0.99549155972E+01  0.32922840401E+01  0.42182694934E+01  0.11301914717E+02  0.00000000000E+00 0. -1.
         -5    1    5    5    0  501 -0.59706958670E+02  0.10245148376E+03 -0.23225016354E+03  0.26081306697E+03  0.47000000000E+01 0.  1.
         13    1    6    6    0    0 -0.28017162472E+02  0.66546065659E+02 -0.29039521238E+03  0.29923689549E+03  0.00000000000E+00 0. -1.
        -14    1    6    6    0    0  0.29952501535E+00 -0.41245198273E+01 -0.32801864610E+03  0.32804471276E+03  0.00000000000E+00 0.  1.
</event>
<event>
12    1  0.1433954E+000  0.4116840E+03  0.7818608E-02  0.1039807E+00
         -2   -1    0    0    0  501 -0.00000000000E+00  0.00000000000E+00  0.61384493245E+03  0.61384493245E+03  0.00000000000E+00 0.  1.
          2   -1    0    0  502    0  0.00000000000E+00 -0.00000000000E+00 -0.23755697669E+04  0.23755697669E+04  0.00000000000E+00 0. -1.
          6    2    1    2  502    0  0.37262725629E+03 -0.23295502135E+02  0.52457674621E+03  0.66614596202E+03  0.17080962359E+03 0.  0.
         24    2    3    3    0    0  0.27613734978E+03 -0.47568550565E+02  0.28865744599E+03  0.41006103636E+03  0.79450169728E+02 0.  0.
         -6    2    1    2    0  501 -0.37262725629E+03  0.23295502135E+02 -0.22863015806E+04  0.23232687373E+04  0.17609359879E+03 0.  0.
        -24    2    5    5    0    0 -0.35401064326E+03 -0.18253540201E+02 -0.21119186370E+04  0.21429789643E+04  0.80633647137E+02 0.  0.
          5    1    3    3  502    0  0.96489906512E+02  0.24273048430E+02  0.23591930022E+03  0.25608492566E+03  0.47000000000E+01 0. -1.
        -11    1    4    4    0    0  0.18622510437E+03  0.26831252634E+01  0.16228624113E+03  0.24702998344E+03  0.00000000000E+00 0.  1.
         12    1    4    4    0    0  0.89912245406E+02 -0.50251675828E+02  0.12637120486E+03  0.16303105292E+03  0.00000000000E+00 0. -1.
         -5    1    5    5    0  501 -0.18616613029E+02  0.41549042336E+02 -0.17438294364E+03  0.18028977295E+03  0.47000000000E+01 0.  1.
         13    1    6    6    0    0 -0.10338018097E+03  0.15614688416E+02 -0.45415131468E+03  0.46603078969E+03  0.00000000000E+00 0. -1.
        -14    1    6    6    0    0 -0.25063046229E+03 -0.33868228617E+02 -0.16577673223E+04  0.16769481746E+04  0.00000000000E+00 0.  1.
</event>
<event>
12    1  0.1328360E+000  0.3199585E+03  0.7818608E-02  0.1075668E+00
          2   -1    0    0  502    0  0.00000000000E+00  0.00000000000E+00  0.13042477942E+04  0.13042477942E+04  0.00000000000E+00 0. -1.
         -2   -1    0    0    0  501 -0.00000000000E+00 -0.00000000000E+00 -0.24648275473E+04  0.24648275473E+04  0.00000000000E+00 0.  1.
          6    2    1    2  502    0 -0.26954370907E+03 -0.25823283094E+02 -0.24345920473E+04  0.24555579923E+04  0.17089752392E+03 0.  0.
         24    2    3    3    0    0 -0.18071090413E+03 -0.11577358458E+02 -0.20914016027E+04  0.21007397503E+04  0.79726836842E+02 0.  0.
         -6    2    1    2    0  501  0.26954370907E+03  0.25823283094E+02  0.12740122941E+04  0.13135173493E+04  0.16999955357E+03 0.  0.
        -24    2    5    5    0    0  0.90749892522E+02  0.21380115324E+02  0.31169154829E+03  0.33470670444E+03  0.78640348406E+02 0.  0.
          5    1    3    3  502    0 -0.88832804936E+02 -0.14245924635E+02 -0.34319044456E+03  0.35481824198E+03  0.47000000000E+01 0. -1.
        -13    1    4    4    0    0 -0.10850835738E+03  0.25201195505E+02 -0.96031392133E+03  0.96675332499E+03  0.00000000000E+00 0.  1.
         14    1    4    4    0    0 -0.72202546748E+02 -0.36778553964E+02 -0.11310876814E+04  0.11339864253E+04  0.00000000000E+00 0. -1.
         -5    1    5    5    0  501  0.17879381655E+03  0.44431677700E+01  0.96232074585E+03  0.97881064485E+03  0.47000000000E+01 0.  1.
         11    1    6    6    0    0  0.36001720532E+02 -0.13389204578E+02  0.21417735519E+03  0.21759442584E+03  0.00000000000E+00 0. -1.
        -12    1    6    6    0    0  0.54748171990E+02  0.34769319902E+02  0.97514193096E+02  0.11711227860E+03  0.00000000000E+00 0.  1.
</event>
<event>
12    1  0.1081556E+000  0.2745461E+03  0.7818608E-02  0.1098706E+00
          2   -1    0    0  502    0  0.00000000000E+00  0.00000000000E+00  0.12315496884E+04  0.12315496884E+04  0.00000000000E+00 0. -1.
         -2   -1    0    0    0  501 -0.00000000000E+00 -0.00000000000E+00 -0.65622676762E+02  0.65622676762E+02  0.00000000000E+00 0.  1.
          6    2    1    2  502    0  0.69583096657E+02  0.20184498681E+03  0.41075329032E+03  0.49295071424E+03  0.16940760053E+03 0.  0.
         24    2    3    3    0    0  0.39651859399E+02  0.45884499207E+02  0.23644895645E+03  0.25710406180E+03  0.80726280531E+02 0.  0.
         -6    2    1    2    0  501 -0.69583096657E+02 -0.20184498681E+03  0.75517372128E+03  0.80422165089E+03  0.17578938649E+03 0.  0.
        -24    2    5    5    0    0 -0.80811257261E+02 -0.14601963923E+03  0.35664983619E+03  0.40162269658E+03  0.79053718520E+02 0.  0.
          5    1    3    3  502    0  0.29931237258E+02  0.15596048761E+03  0.17430433387E+03  0.23584665243E+03  0.47000000000E+01 0. -1.
        -13    1    4    4    0    0  0.42710783646E+02  0.75631396639E+01  0.47668980579E+02  0.64449544845E+02  0.00000000000E+00 0.  1.
         14    1    4    4    0    0 -0.30589242476E+01  0.38321359543E+02  0.18877997587E+03  0.19265451696E+03  0.00000000000E+00 0. -1.
         -5    1    5    5    0  501  0.11228160605E+02 -0.55825347579E+02  0.39852388508E+03  0.40259895430E+03  0.47000000000E+01 0.  1.
         13    1    6    6    0    0 -0.32878808136E+02 -0.10817686097E+03  0.28981416143E+03  0.31108760412E+03  0.00000000000E+00 0. -1.
        -14    1    6    6    0    0 -0.47932449125E+02 -0.37842778262E+02  0.66835674769E+02  0.90535092464E+02  0.00000000000E+00 0.  1.
</event>
<event>
12    1  0.1081556E+000  0.4161226E+03  0.7818608E-02  0.1038336E+00
          1   -1    0    0  502    0  0.00000000000E+00  0.00000000000E+00  0.12782020394E+03  0.12782020394E+03  0.00000000000E+00 0. -1.
         -1   -1    0    0    0  501 -0.00000000000E+00 -0.00000000000E+00 -0.15847730389E+04  0.15847730389E+04  0.00000000000E+00 0.  1.
          6    2    1    2  502    0 -0.20528945638E+03 -0.31835903840E+03 -0.10547551976E+04  0.11338751371E+04  0.17224419155E+03 0.  0.
         24    2    3    3    0    0 -0.13364275433E+03 -0.13417729498E+03 -0.67353151779E+03  0.70444557531E+03  0.82066624421E+02 0.  0.
         -6    2    1    2    0  501  0.20528945638E+03  0.31835903840E+03 -0.40219763740E+03  0.57871810575E+03  0.17220763097E+03 0.  0.
        -24    2    5    5    0    0  0.51931759066E+02  0.66218685309E+02 -0.15328225388E+03  0.19261669532E+03  0.80770787286E+02 0.  0.
          5    1    3    3  502    0 -0.71646702048E+02 -0.18418174342E+03 -0.38122367981E+03  0.42942956183E+03  0.47000000000E+01 0. -1.
        -13    1    4    4    0    0 -0.20886886999E+01 -0.50021549691E+02 -0.17571018372E+03  0.18270354872E+03  0.00000000000E+00 0.  1.
         14    1    4    4    0    0 -0.13155406563E+03 -0.84155745292E+02 -0.49782133407E+03  0.52174202658E+03  0.00000000000E+00 0. -1.
         -5    1    5    5    0  501  0.15335769731E+03  0.25214035309E+03 -0.24891538352E+03  0.38610141043E+03  0.47000000000E+01 0.  1.
         13    1    6    6    0    0  0.50102341458E+02  0.77109512873E+02 -0.15614265337E+03  0.18120885684E+03  0.00000000000E+00 0. -1.
        -14    1    6    6    0    0  0.18294176074E+01 -0.10890827563E+02  0.28603994845E+01  0.11407838490E+02  0.00000000000E+00 0.  1.
</event>
<event>
12    1  0.1081556E+000  0.1768403E+03  0.7818608E-02  0.1170897E+00
          2   -1    0    0  502    0  0.00000000000E+00  0.00000000000E+00  0.19717718198E+03  0.19717718198E+03  0.00000000000E+00 0. -1.
         -2   -1    0    0    0  501 -0.00000000000E+00 -0.00000000000E+00 -0.78797754701E+03  0.78797754701E+03  0.00000000000E+00 0.  1.
          6    2    1    2  502    0  0.26996315738E+02  0.44117462831E+02 -0.73659558158E+03  0.75823200847E+03  0.17224278294E+03 0.  0.
         24    2    3    3    0    0 -0.27149035272E+02 -0.28345256101E+02 -0.36841313617E+03  0.37907113526E+03  0.80163352091E+02 0.  0.
         -6    2    1    2    0  501 -0.26996315738E+02 -0.44117462831E+02  0.14579521655E+03  0.22692272052E+03  0.16601965043E+03 0.  0.
        -24    2    5    5    0    0  0.45673411510E+02 -0.34002851490E+02  0.69590246245E+02  0.12103371203E+03  0.81019149874E+02 0.  0.
          5    1    3    3  502    0  0.54145351011E+02  0.72462718932E+02 -0.36818244541E+03  0.37916087321E+03  0.47000000000E+01 0. -1.
        -13    1    4    4    0    0 -0.45874604465E+02  0.46512686544E+00 -0.12324408881E+03  0.13150589760E+03  0.00000000000E+00 0.  1.
         14    1    4    4    0    0  0.18725569192E+02 -0.28810382967E+02 -0.24516904737E+03  0.24756523766E+03  0.00000000000E+00 0. -1.
         -5    1    5    5    0  501 -0.72669727248E+02 -0.10114611341E+02  0.76204970302E+02  0.10588900849E+03  0.47000000000E+01 0.  1.
         11    1    6    6    0    0  0.70561627311E+01 -0.54740862561E+02  0.38801135259E+02  0.67467618631E+02  0.00000000000E+00 0. -1.
        -12    1    6    6    0    0  0.38617248779E+02  0.20738011071E+02  0.30789110986E+02  0.53566093396E+02  0.00000000000E+00 0.  1.
</event>
<event>
12    1  0.1081556E+000  0.2103385E+03  0.7818608E-02  0.1141298E+00
          2   -1    0    0  502    0  0.00000000000E+00  0.00000000000E+00  0.84151886132E+03  0.84151886132E+03  0.00000000000E+00 0. -1.
         -2   -1    0    0    0  501 -0.00000000000E+00 -0.00000000000E+00 -0.72781104798E+02  0.72781104798E+02  0.00000000000E+00 0.  1.
          6    2    1    2  502    0  0.11541854977E+03  0.38359589026E+02  0.14397810002E+03  0.25520047862E+03  0.17206013861E+03 0.  0.
         24    2    3    3    0    0  0.13469935521E+03  0.52067891781E+02  0.15736260923E+03  0.22761602449E+03  0.78683430082E+02 0.  0.
         -6    2    1    2    0  501 -0.11541854977E+03 -0.38359589026E+02  0.62475965651E+03  0.65909948750E+03  0.17115667188E+03 0.  0.
        -24    2    5    5    0    0 -0.12455578479E+03 -0.21104763601E+02  0.62177158171E+03  0.63879587563E+03  0.74166814134E+02 0.  0.
          5    1    3    3  502    0 -0.19280805442E+02 -0.13708302755E+02 -0.13384509212E+02  0.27584454132E+02  0.47000000000E+01 0. -1.
        -13    1    4    4    0    0  0.57830120967E+02 -0.14430858369E+02  0.37322241799E+02  0.70324407550E+02  0.00000000000E+00 0.  1.
         14    1    4    4    0    0  0.76869234246E+02  0.66498750150E+02  0.12004036743E+03  0.15729161694E+03  0.00000000000E+00 0. -1.
         -5    1    5    5    0  501  0.91372350230E+01 -0.17254825425E+02  0.29880747925E+01  0.20303611877E+02  0.47000000000E+01 0.  1.
         11    1    6    6    0    0 -0.29743708776E+02  0.12209143957E+02  0.29945432695E+03  0.30117543946E+03  0.00000000000E+00 0. -1.
        -12    1    6    6    0    0 -0.94812076018E+02 -0.33313907558E+02  0.32231725477E+03  0.33762043616E+03  0.00000000000E+00 0.  1.
</event>
<event>
12    1  0.1081556E+000  0.3380264E+03  0.7818608E-02  0.1067640E+00
          1   -1    0    0  502    0  0.00000000000E+00  0.00000000000E+00  0.14321643744E+04  0.14321643744E+04  0.00000000000E+00 0. -1.
         -1   -1    0    0    0  501 -0.00000000000E+00 -0.00000000000E+00 -0.17963680487E+03  0.17963680487E+03  0.00000000000E+00 0.  1.
          6    2    1    2  502    0 -0.26704664830E+03  0.11520727572E+03  0.25522633984E+02  0.33912186235E+03  0.17252711071E+03 0.  0.
         24    2    3    3    0    0 -0.89248554824E+02 -0.80292017867E+01 -0.14138608415E+01  0.12106898760E+03  0.81399804282E+02 0.  0.
         -6    2    1    2    0  501  0.26704664830E+03 -0.11520727572E+03  0.12270049355E+04  0.12726793169E+04  0.17200262527E+03 0.  0.
        -24    2    5    5    0    0  0.18316485875E+03 -0.14614061667E+03  0.93980566050E+03  0.97184956475E+03  0.79689721246E+02 0.  0.
          5    1    3    3  502    0 -0.17779809348E+03  0.12323647751E+03  0.26936494825E+02  0.21805287475E+03  0.47000000000E+01 0. -1.
        -13    1    4    4    0    0 -0.68987875237E+02  0.25521417783E+02 -0.22028136200E+02  0.76784819332E+02  0.00000000000E+00 0.  1.
         14    1    4    4    0    0 -0.20260679587E+02 -0.33550619570E+02  0.20614275359E+02  0.44284168270E+02  0.00000000000E+00 0. -1.
         -5    1    5    5    0  501  0.83881789552E+02  0.30933340952E+02  0.28719927504E+03  0.30082975216E+03  0.47000000000E+01 0.  1.
         11    1    6    6    0    0  0.65828017361E+02 -0.29511920165E+02  0.42602135936E+03  0.43208619502E+03  0.00000000000E+00 0. -1.
        -12    1    6    6    0    0  0.11733684139E+03 -0.11662869651E+03  0.51378430115E+03  0.53976336973E+03  0.00000000000E+00 0.  1.
</event>
<event>
12    1  0.1081556E+000  0.3534575E+03  0.7818608E-02  0.1061205E+00
         -2   -1    0    0    0  501 -0.00000000000E+00  0.00000000000E+00  0.19225944836E+03  0.19225944836E+03  0.00000000000E+00 0.  1.
          2   -1    0    0  502    0  0.00000000000E+00 -0.00000000000E+00 -0.14529365575E+04  0.14529365575E+04  0.00000000000E+00 0. -1.
          6    2    1    2  502    0  0.30144679678E+03  0.69923439095E+02 -0.19004118325E+02  0.35428038174E+03  0.17144670820E+03 0.  0.
         24    2    3    3    0    0  0.25430785187E+03  0.85409713620E+02  0.31803041294E+02  0.28310902308E+03  0.84687559941E+02 0.  0.
         -6    2    1    2    0  501 -0.30144679678E+03 -0.69923439095E+02 -0.12416729908E+04  0.12909156241E+04  0.17015250174E+03 0.  0.
        -24    2    5    5    0    0 -0.29420160870E+03 -0.23384446580E+02 -0.10864017005E+04  0.11285899201E+04  0.79656350029E+02 0.  0.
          5    1    3    3  502    0  0.47138944907E+02 -0.15486274525E+02 -0.50807159619E+02  0.71171358665E+02  0.47000000000E+01 0. -1.
        -11    1    4    4    0    0  0.49610614310E+02 -0.16050464580E+02 -0.18830319812E+01  0.52176395764E+02  0.00000000000E+00 0.  1.
         12    1    4    4    0    0  0.20469723756E+03  0.10146017820E+03  0.33686073275E+02  0.23093262732E+03  0.00000000000E+00 0. -1.
         -5    1    5    5    0  501 -0.72451880832E+01 -0.46538992515E+02 -0.15527129032E+03  0.16232570398E+03  0.47000000000E+01 0.  1.
         11    1    6    6    0    0 -0.20544900763E+03 -0.11399436975E+02 -0.87746623979E+03  0.90126924050E+03  0.00000000000E+00 0. -1.
        -12    1    6    6    0    0 -0.88752601067E+02 -0.11985009605E+02 -0.20893546068E+03  0.22732067961E+03  0.00000000000E+00 0.  1.
</event>
<event>
12    1  0.1702772E+000  0.1029903E+04  0.7818608E-02  0.9276342E-01
         -2   -1    0    0    0  501 -0.00000000000E+00  0.00000000000E+00  0.89403741343E+03  0.89403741343E+03  0.00000000000E+00 0.  1.
          2   -1    0    0  502    0  0.00000000000E+00 -0.00000000000E+00 -0.19241866455E+04  0.19241866455E+04  0.00000000000E+00 0. -1.
          6    2    1    2  502    0  0.97817582760E+03  0.27199766114E+03  0.35751921048E+03  0.10900098133E+04  0.17172865172E+03 0.  0.
         24    2    3    3    0    0  0.58632455862E+03  0.21169124155E+03  0.26801381316E+03  0.68354014973E+03  0.82498863314E+02 0.  0.
         -6    2    1    2    0  501 -0.97817582760E+03 -0.27199766114E+03 -0.13876684425E+04  0.17282142456E+04  0.17404049833E+03 0.  0.
        -24    2    5    5    0    0 -0.90397906495E+03 -0.28901227233E+03 -0.13067410497E+04  0.16170117750E+04  0.80303585443E+02 0.  0.
          5    1    3    3  502    0  0.39185126897E+03  0.60306419591E+02  0.89505397315E+02  0.40646966355E+03  0.47000000000E+01 0. -1.
        -13    1    4    4    0    0  0.47721023088E+03  0.13816209293E+03  0.22195682237E+03  0.54413527672E+03  0.00000000000E+00 0.  1.
         14    1    4    4    0    0  0.10911432774E+03  0.73529148621E+02  0.46056990791E+02  0.13940487300E+03  0.00000000000E+00 0. -1.
         -5    1    5    5    0  501 -0.74196762650E+02  0.17014611193E+02 -0.80927392760E+02  0.11120247066E+03  0.47000000000E+01 0.  1.
         11    1    6    6    0    0 -0.40804664923E+03 -0.89606782788E+02 -0.55871101000E+03  0.69763130389E+03  0.00000000000E+00 0. -1.
        -12    1    6    6    0    0 -0.49593241572E+03 -0.19940548954E+03 -0.74803003974E+03  0.91938047106E+03  0.00000000000E+00 0.  1.
</event>
<event>
12    1  0.1081556E+000  0.2778136E+03  0.7818608E-02  0.1096889E+00
         -1   -1    0    0    0  501 -0.00000000000E+00  0.00000000000E+00  0.64124874969E+02  0.64124874969E+02  0.00000000000E+00 0.  1.
          1   -1    0    0  502    0  0.00000000000E+00 -0.00000000000E+00 -0.16709904499E+04  0.16709904499E+04  0.00000000000E+00 0. -1.
          6    2    1    2  502    0  0.16322793375E+03  0.14455181108E+03 -0.34499125092E+03  0.44306139820E+03  0.17246986670E+03 0.  0.
         24    2    3    3    0    0  0.15581738348E+03  0.17232809972E+03 -0.32705929888E+03  0.40885491679E+03  0.78857637923E+02 0.  0.
         -6    2    1    2    0  501 -0.16322793375E+03 -0.14455181108E+03 -0.12618743240E+04  0.12920539266E+04  0.17186609726E+03 0.  0.
        -24    2    5    5    0    0 -0.84481118015E+02 -0.13326470472E+03 -0.10651567627E+04  0.10798079640E+04  0.80806986595E+02 0.  0.
          5    1    3    3  502    0  0.74105502657E+01 -0.27776288641E+02 -0.17931952049E+02  0.34206481406E+02  0.47000000000E+01 0. -1.
        -13    1    4    4    0    0  0.52558834471E+02  0.11611521957E+02 -0.82973159568E+02  0.98903001632E+02  0.00000000000E+00 0.  1.
         14    1    4    4    0    0  0.10325854901E+03  0.16071657776E+03 -0.24408613931E+03  0.30995191516E+03  0.00000000000E+00 0. -1.
         -5    1    5    5    0  501 -0.78746815730E+02 -0.11287106359E+02 -0.19671756126E+03  0.21224596266E+03  0.47000000000E+01 0.  1.
         11    1    6    6    0    0 -0.19900250928E+02 -0.10286875601E+03 -0.69185183491E+03  0.69974063939E+03  0.00000000000E+00 0. -1.
        -12    1    6    6    0    0 -0.64580867088E+02 -0.30395948711E+02 -0.37330492779E+03  0.38006732457E+03  0.00000000000E+00 0.  1.
</event>
<event>
12    1  0.1081556E+000  0.7682130E+03  0.7818608E-02  0.9607202E-01
         -2   -1    0    0    0  501 -0.00000000000E+00  0.00000000000E+00  0.61112871109E+03  0.61112871109E+03  0.00000000000E+00 0.  1.
          2   -1    0    0  502    0  0.00000000000E+00 -0.00000000000E+00 -0.17746567302E+04  0.17746567302E+04  0.00000000000E+00 0. -1.
          6    2    1    2  502    0 -0.45843041462E+03  0.59218753258E+03  0.22388563860E+03  0.79959942374E+03  0.16849314668E+03 0.  0.
         24    2    3    3    0    0 -0.44402288014E+03  0.52368064289E+03  0.17292680388E+03  0.71288342855E+03  0.83074480903E+02 0.  0.
         -6    2    1    2    0  501  0.45843041462E+03 -0.59218753258E+03 -0.13874136578E+04  0.15861860176E+04  0.17385311587E+03 0.  0.
        -24    2    5    5    0    0  0.18967524956E+03 -0.18759476135E+03 -0.59162613002E+03  0.65386390128E+03  0.79674518448E+02 0.  0.
          5    1    3    3  502    0 -0.14407534475E+02  0.68506889695E+02  0.50958834720E+02  0.86715995188E+02  0.47000000000E+01 0. -1.
        -11    1    4    4    0    0 -0.21255244430E+03  0.24510528813E+03  0.12436646606E+03  0.34745094867E+03  0.00000000000E+00 0.  1.
         12    1    4    4    0    0 -0.23147043584E+03  0.27857535475E+03  0.48560337820E+02  0.36543247988E+03  0.00000000000E+00 0. -1.
         -5    1    5    5    0  501  0.26875516506E+03 -0.40459277123E+03 -0.79578752773E+03  0.93232211631E+03  0.47000000000E+01 0.  1.
         13    1    6    6    0    0  0.14721455940E+03 -0.18336314677E+03 -0.51537094063E+03  0.56648157652E+03  0.00000000000E+00 0. -1.
        -14    1    6    6    0    0  0.42460690160E+02 -0.42316145799E+01 -0.76255189393E+02  0.87382324759E+02  0.00000000000E+00 0.  1.
</event>
<event>
12    1  0.1081556E+000  0.1117488E+04  0.7818608E-02  0.9188313E-01
          2   -1    0    0  502    0  0.00000000000E+00  0.00000000000E+00  0.80522449265E+03  0.80522449265E+03  0.00000000000E+00 0. -1.
         -2   -1    0    0    0  501 -0.00000000000E+00 -0.00000000000E+00 -0.17170742979E+04  0.17170742979E+04  0.00000000000E+00 0.  1.
          6    2    1    2  502    0  0.11043096748E+04  0.45895289206E+01 -0.84830894186E+03  0.14029745354E+04  0.17084661123E+03 0.  0.
         24    2    3    3    0    0  0.54734517437E+03  0.19204221423E+02 -0.34566612662E+03  0.65257801778E+03  0.80109026755E+02 0.  0.
         -6    2    1    2    0  501 -0.11043096748E+04 -0.45895289206E+01 -0.63540863400E+02  0.11193242552E+04  0.17125543888E+03 0.  0.
        -24    2    5    5    0    0 -0.25101479304E+03 -0.35471472454E+01  0.34177269351E+02  0.26043883488E+03  0.60326547982E+02 0.  0.
          5    1    3    3  502    0  0.55696450038E+03 -0.14614692503E+02 -0.50264281524E+03  0.75039651761E+03  0.47000000000E+01 0. -1.
        -13    1    4    4    0    0  0.13873948862E+03  0.39520377898E+02 -0.83692245052E+02  0.16677798971E+03  0.00000000000E+00 0.  1.
         14    1    4    4    0    0  0.40860568576E+03 -0.20316156475E+02 -0.26197388157E+03  0.48580002807E+03  0.00000000000E+00 0. -1.
         -5    1    5    5    0  501 -0.85329488172E+03 -0.10423816752E+01 -0.97718132751E+02  0.85888542029E+03  0.47000000000E+01 0.  1.
         11    1    6    6    0    0 -0.19983411859E+03 -0.20418903216E+02  0.93154797173E+01  0.20109048890E+03  0.00000000000E+00 0. -1.
        -12    1    6    6    0    0 -0.51180674450E+02  0.16871755971E+02  0.24861789634E+02  0.59348345979E+02  0.00000000000E+00 0.  1.
</event>
<event>
12    1  0.1081556E+000  0.2052780E+03  0.7818608E-02  0.1145361E+00
          1   -1    0    0  502    0  0.00000000000E+00  0.00000000000E+00  0.69051208381E+03  0.69051208381E+03  0.00000000000E+00 0. -1.
         -1   -1    0    0    0  501 -0.00000000000E+00 -0.00000000000E+00 -0.30222545515E+03  0.30222545515E+03  0.00000000000E+00 0.  1.
          6    2    1    2  502    0  0.39625180775E+01  0.11199497528E+03 -0.24931240119E+03  0.32287028929E+03  0.17184287673E+03 0.  0.
         24    2    3    3    0    0 -0.19497629092E+02  0.11193958541E+03 -0.26341094804E+03  0.29509907044E+03  0.69191802304E+02 0.  0.
         -6    2    1    2    0  501 -0.39625180775E+01 -0.11199497528E+03  0.63759902984E+03  0.66986724967E+03  0.17213667038E+03 0.  0.
        -24    2    5    5    0    0 -0.31363358089E+02 -0.13875173199E+03  0.46809780360E+03  0.49602972277E+03  0.81818266729E+02 0.  0.
          5    1    3    3  502    0  0.23460147169E+02  0.55389865134E-01  0.14098546847E+02  0.27771218850E+02  0.47000000000E+01 0. -1.
        -13    1    4    4    0    0 -0.35044591569E+02  0.75465965910E+02 -0.22501391435E+03  0.23990518348E+03  0.00000000000E+00 0.  1.
         14    1    4    4    0    0  0.15546962478E+02  0.36473619501E+02 -0.38397033686E+02  0.55193886959E+02  0.00000000000E+00 0. -1.
         -5    1    5    5    0  501  0.27400840011E+02  0.26756756716E+02  0.16950122624E+03  0.17383752691E+03  0.47000000000E+01 0.  1.
         11    1    6    6    0    0  0.20346396318E+02 -0.18857571874E+02  0.14346729703E+03  0.14612477263E+03  0.00000000000E+00 0. -1.
        -12    1    6    6    0    0 -0.51709754406E+02 -0.11989416012E+03  0.32463050657E+03  0.34990495013E+03  0.00000000000E+00 0.  1.
</event>
<event>
12    1  0.1081556E+000  0.5882894E+03  0.7818608E-02  0.9930004E-01
         -2   -1    0    0    0  501 -0.00000000000E+00  0.00000000000E+00  0.59815017218E+03  0.59815017218E+03  0.00000000000E+00 0.  1.
          2   -1    0    0  502    0  0.00000000000E+00 -0.00000000000E+00 -0.71273754332E+03  0.71273754332E+03  0.00000000000E+00 0. -1.
          6    2    1    2  502    0 -0.29913163935E+03  0.47640099224E+03  0.22708108462E+03  0.63035350183E+03  0.17129528660E+03 0.  0.
         24    2    3    3    0    0 -0.99879561899E+02  0.21854115166E+03  0.15369818660E+03  0.29628729960E+03  0.80167758396E+02 0.  0.
         -6    2    1    2    0  501  0.29913163935E+03 -0.47640099224E+03 -0.34166845576E+03  0.68053421368E+03  0.17306599684E+03 0.  0.
        -24    2    5    5    0    0  0.14683547166E+03 -0.21548725855E+03 -0.90033106731E+02  0.28732620512E+03  0.80342849726E+02 0.  0.
          5    1    3    3  502    0 -0.19925207745E+03  0.25785984057E+03  0.73382898025E+02  0.33406620223E+03  0.47000000000E+01 0. -1.
        -11    1    4    4    0    0  0.13083050248E+02  0.15847473856E+02  0.18955839694E+02  0.27957691069E+02  0.00000000000E+00 0.  1.
         12    1    4    4    0    0 -0.11296261215E+03  0.20269367781E+03  0.13474234690E+03  0.26832960853E+03  0.00000000000E+00 0. -1.
         -5    1    5    5    0  501  0.15229616769E+03 -0.26091373369E+03 -0.25163534903E+03  0.39320800856E+03  0.47000000000E+01 0.  1.
         11    1    6    6    0    0  0.14583484076E+03 -0.21308701165E+03 -0.10009417218E+03  0.27693450240E+03  0.00000000000E+00 0. -1.
        -12    1    6    6    0    0  0.10006309064E+01 -0.24002468963E+01  0.10061065449E+02  0.10391702717E+02  0.00000000000E+00 0.  1.
</event>
<event>
12    1  0.1081556E+000  0.3807397E+03  0.7818608E-02  0.1050661E+00
         -2   -1    0    0    0  501 -0.00000000000E+00  0.00000000000E+00  0.54385545790E+03  0.54385545790E+03  0.00000000000E+00 0.  1.
          2   -1    0    0  502    0  0.00000000000E+00 -0.00000000000E+00 -0.40868468565E+03  0.40868468565E+03  0.00000000000E+00 0. -1.
          6    2    1    2  502    0 -0.31375024149E+03  0.13278353806E+03  0.34854142995E+03  0.51670049031E+03  0.17154470635E+03 0.  0.
         24    2    3    3    0    0 -0.31884856153E+03  0.11791172028E+03  0.35571683927E+03  0.49879126558E+03  0.81796564187E+02 0.  0.
         -6    2    1    2    0  501  0.31375024149E+03 -0.13278353806E+03 -0.21337065769E+03  0.43583965324E+03  0.16839977363E+03 0.  0.
        -24    2    5    5    0    0  0.17668348100E+03 -0.87826201778E+02 -0.19790978073E+03  0.29068598421E+03  0.79997287011E+02 0.  0.
          5    1    3    3  502    0  0.50983200346E+01  0.14871817788E+02 -0.71754093207E+01  0.17909224730E+02  0.47000000000E+01 0. -1.
        -13    1    4    4    0    0 -0.14111091681E+03  0.22301221730E+02  0.18959547213E+03  0.23739435205E+03  0.00000000000E+00 0.  1.
         14    1    4    4    0    0 -0.17773764472E+03  0.95610498546E+02  0.16612136713E+03  0.26139691352E+03  0.00000000000E+00 0. -1.
         -5    1    5    5    0  501  0.13706676049E+03 -0.44957336287E+02 -0.15460876961E+02  0.14515366904E+03  0.47000000000E+01 0.  1.
         11    1    6    6    0    0  0.71561031652E+02 -0.70505497143E+02 -0.13019978175E+03  0.16445056871E+03  0.00000000000E+00 0. -1.
        -12    1    6    6    0    0  0.10512244935E+03 -0.17320704635E+02 -0.67709998978E+02  0.12623541550E+03  0.00000000000E+00 0.  1.
</event>
<event>
12    1  0.1081556E+000  0.7419320E+03  0.7818608E-02  0.9648093E-01
         -2   -1    0    0    0  501 -0.00000000000E+00  0.00000000000E+00  0.11723603373E+04  0.11723603373E+04  0.00000000000E+00 0.  1.
          2   -1    0    0  502    0  0.00000000000E+00 -0.00000000000E+00 -0.13348968994E+04  0.13348968994E+04  0.00000000000E+00 0. -1.
          6    2    1    2  502    0  0.65393594577E+03  0.30589273702E+03  0.92807875940E+03  0.11883259990E+04  0.17200554823E+03 0.  0.
         24    2    3    3    0    0  0.26993637499E+03  0.67175650955E+02  0.33630030106E+03  0.44356741313E+03  0.79220848723E+02 0.  0.
         -6    2    1    2    0  501 -0.65393594577E+03 -0.30589273702E+03 -0.10906153215E+04  0.13189312377E+04  0.17010362338E+03 0.  0.
        -24    2    5    5    0    0 -0.51191395679E+03 -0.17251615561E+03 -0.77833159256E+03  0.95082422181E+03  0.80305103843E+02 0.  0.
          5    1    3    3  502    0  0.38399957077E+03  0.23871708607E+03  0.59177845834E+03  0.74475858591E+03  0.47000000000E+01 0. -1.
        -11    1    4    4    0    0  0.21514008376E+03  0.26606686279E+02  0.28584571720E+03  0.35874913998E+03  0.00000000000E+00 0.  1.
         12    1    4    4    0    0  0.54796291228E+02  0.40568964675E+02  0.50454583861E+02  0.84818273147E+02  0.00000000000E+00 0. -1.
         -5    1    5    5    0  501 -0.14202198898E+03 -0.13337658141E+03 -0.31228372890E+03  0.36810701590E+03  0.47000000000E+01 0.  1.
         11    1    6    6    0    0 -0.26708592040E+03 -0.69631247564E+02 -0.33527136693E+03  0.43426983432E+03  0.00000000000E+00 0. -1.
        -12    1    6    6    0    0 -0.24482803639E+03 -0.10288490805E+03 -0.44306022563E+03  0.51655438750E+03  0.00000000000E+00 0.  1.
</event>
<event>
12    1  0.1081556E+000  0.7930820E+03  0.7818608E-02  0.9570085E-01
         -2   -1    0    0    0  501 -0.00000000000E+00  0.00000000000E+00  0.18694291492E+03  0.18694291492E+03  0.00000000000E+00 0.  1.
          2   -1    0    0  502    0  0.00000000000E+00 -0.00000000000E+00 -0.34072223646E+04  0.34072223646E+04  0.00000000000E+00 0. -1.
          6    2    1    2  502    0 -0.49491460290E+03 -0.59532230879E+03 -0.14089344291E+04  0.16167867171E+04  0.17191261560E+03 0.  0.
         24    2    3    3    0    0 -0.34634329093E+03 -0.36408099100E+03 -0.10275357313E+04  0.11466452081E+04  0.80354905753E+02 0.  0.
         -6    2    1    2    0  501  0.49491460290E+03  0.59532230879E+03 -0.18113450205E+04  0.19773785624E+04  0.17235451900E+03 0.  0.
        -24    2    5    5    0    0  0.43456080086E+03  0.49429678970E+03 -0.13932394810E+04  0.15430019181E+04  0.81032474647E+02 0.  0.
          5    1    3    3  502    0 -0.14857131197E+03 -0.23124131779E+03 -0.38139869784E+03  0.47014150902E+03  0.47000000000E+01 0. -1.
        -13    1    4    4    0    0 -0.59107596505E+02 -0.69251246308E+02 -0.12465980557E+03  0.15436809970E+03  0.00000000000E+00 0.  1.
         14    1    4    4    0    0 -0.28723569443E+03 -0.29482974470E+03 -0.90287592573E+03  0.99227710836E+03  0.00000000000E+00 0. -1.
         -5    1    5    5    0  501  0.60353802035E+02  0.10102551909E+03 -0.41810553958E+03  0.43437664435E+03  0.47000000000E+01 0.  1.
         13    1    6    6    0    0  0.34663789868E+03  0.40933312558E+03 -0.11985928283E+04  0.13131398282E+04  0.00000000000E+00 0. -1.
        -14    1    6    6    0    0  0.87922902184E+02  0.84963664116E+02 -0.19464665268E+03  0.22986208985E+03  0.00000000000E+00 0.  1.
</event>
<event>
12    1  0.1081556E+000  0.2346591E+03  0.7818608E-02  0.1123403E+00
          2   -1    0    0  502    0  0.00000000000E+00  0.00000000000E+00  0.11992296599E+04  0.11992296599E+04  0.00000000000E+00 0. -1.
         -2   -1    0    0    0  501 -0.00000000000E+00 -0.00000000000E+00 -0.45975789456E+02  0.45975789456E+02  0.00000000000E+00 0.  1.
          6    2    1    2  502    0 -0.13626696839E+03 -0.85330189717E+02  0.59766126390E+03  0.64189739784E+03  0.17024498535E+03 0.  0.
         24    2    3    3    0    0 -0.90732065250E+02 -0.94816551906E+02  0.26770707908E+03  0.30864783288E+03  0.79836823384E+02 0.  0.
         -6    2    1    2    0  501  0.13626696839E+03  0.85330189717E+02  0.55559260659E+03  0.60330805156E+03  0.17160283397E+03 0.  0.
        -24    2    5    5    0    0  0.53374779821E+02  0.55269293393E+02  0.45993573110E+03  0.47312702282E+03  0.80029626216E+02 0.  0.
          5    1    3    3  502    0 -0.45534903142E+02  0.94863621890E+01  0.32995418481E+03  0.33324956496E+03  0.47000000000E+01 0. -1.
        -13    1    4    4    0    0 -0.15816958654E+02 -0.70714020108E+02  0.10106067055E+03  0.12435396236E+03  0.00000000000E+00 0.  1.
         14    1    4    4    0    0 -0.74915106596E+02 -0.24102531798E+02  0.16664640853E+03  0.18429387052E+03  0.00000000000E+00 0. -1.
         -5    1    5    5    0  501  0.82892188571E+02  0.30060896323E+02  0.95656875490E+02  0.13018102873E+03  0.47000000000E+01 0.  1.
         13    1    6    6    0    0  0.63250970875E+02  0.14364346652E+02  0.21387183937E+03  0.22349090238E+03  0.00000000000E+00 0. -1.
        -14    1    6    6    0    0 -0.98761910539E+01  0.40904946741E+02  0.24606389172E+03  0.24963612044E+03  0.00000000000E+00 0.  1.
</event>
<event>
12    1  0.1081556E+000  0.7772550E+03  0.7818608E-02  0.9593536E-01
         -2   -1    0    0    0  501 -0.00000000000E+00  0.00000000000E+00  0.20978855325E+04  0.20978855325E+04  0.00000000000E+00 0.  1.
          2   -1    0    0  502    0  0.00000000000E+00 -0.00000000000E+00 -0.23011020693E+04  0.23011020693E+04  0.00000000000E+00 0. -1.
          6    2    1    2  502    0 -0.26987115756E+03  0.70798672721E+03  0.19556559168E+04  0.21045589413E+04  0.17465000632E+03 0.  0.
         24    2    3    3    0    0 -0.20363029998E+03  0.59839289794E+03  0.14674790332E+04  0.15998437559E+04  0.80411262176E+02 0.  0.
         -6    2    1    2    0  501  0.26987115756E+03 -0.70798672721E+03 -0.21588724536E+04  0.22944286606E+04  0.17203766952E+03 0.  0.
        -24    2    5    5    0    0  0.21545778628E+03 -0.59871393348E+03 -0.19463394609E+04  0.20492884529E+04  0.80407923755E+02 0.  0.
          5    1    3    3  502    0 -0.66240857583E+02  0.10959382927E+03  0.48817688367E+03  0.50471518540E+03  0.47000000000E+01 0. -1.
        -13    1    4    4    0    0 -0.11704899460E+02  0.12854925646E+03  0.32561326917E+03  0.35026549511E+03  0.00000000000E+00 0.  1.
         14    1    4    4    0    0 -0.19192540052E+03  0.46984364148E+03  0.11418657640E+04  0.12495782608E+04  0.00000000000E+00 0. -1.
         -5    1    5    5    0  501  0.54413371276E+02 -0.10927279373E+03 -0.21253299273E+03  0.24514020768E+03  0.47000000000E+01 0.  1.
         11    1    6    6    0    0  0.12172274730E+03 -0.22345716503E+03 -0.75330424311E+03  0.79512062890E+03  0.00000000000E+00 0. -1.
        -12    1    6    6    0    0  0.93735038987E+02 -0.37525676845E+03 -0.11930352178E+04  0.12541678240E+04  0.00000000000E+00 0.  1.
</event>
<event>
12    1  0.1091264E+000  0.6943287E+03  0.7818608E-02  0.9726980E-01
         -2   -1    0    0    0  501 -0.00000000000E+00  0.00000000000E+00  0.68078132455E+03  0.68078132455E+03  0.00000000000E+00 0.  1.
          2   -1    0    0  502    0  0.00000000000E+00 -0.00000000000E+00 -0.71464533229E+03  0.71464533229E+03  0.00000000000E+00 0. -1.
          6    2    1    2  502    0 -0.24149023741E+02  0.67285326822E+03  0.49602050222E+02  0.69629488930E+03  0.17044504562E+03 0.  0.
         24    2    3    3    0    0  0.29345547100E+02  0.41752151336E+03 -0.17483137059E+02  0.42689094259E+03  0.82126984189E+02 0.  0.
         -6    2    1    2    0  501  0.24149023741E+02 -0.67285326822E+03 -0.83466057966E+02  0.69913176754E+03  0.16883112758E+03 0.  0.
        -24    2    5    5    0    0 -0.49655452738E+01 -0.27815455256E+03 -0.91096014004E+02  0.30325926217E+03  0.79202806616E+02 0.  0.
          5    1    3    3  502    0 -0.53494570840E+02  0.25533175486E+03  0.67085187281E+02  0.26940394671E+03  0.47000000000E+01 0. -1.
        -13    1    4    4    0    0 -0.15522108489E+02  0.29884717144E+03 -0.37127643059E+01  0.29927303980E+03  0.00000000000E+00 0.  1.
         14    1    4    4    0    0  0.44867655589E+02  0.11867434192E+03 -0.13770372753E+02  0.12761790279E+03  0.00000000000E+00 0. -1.
         -5    1    5    5    0  501  0.29114569015E+02 -0.39469871567E+03  0.76299560380E+01  0.39587250537E+03  0.47000000000E+01 0.  1.
         11    1    6    6    0    0  0.94156666572E+00 -0.13554408466E+03 -0.31032187198E+01  0.13558287281E+03  0.00000000000E+00 0. -1.
        -12    1    6    6    0    0 -0.59071119395E+01 -0.14261046790E+03 -0.87992795284E+02  0.16767638936E+03  0.00000000000E+00 0.  1.
</event>
<event>
12    1  0.1081556E+000  0.4760161E+03  0.7818608E-02  0.1020236E+00
          1   -1    0    0  502    0  0.00000000000E+00  0.00000000000E+00  0.86745368446E+03  0.86745368446E+03  0.00000000000E+00 0. -1.
         -1   -1    0    0    0  501 -0.00000000000E+00 -0.00000000000E+00 -0.36355330020E+03  0.36355330020E+03  0.00000000000E+00 0.  1.
          6    2    1    2  502    0 -0.40945029277E+03  0.17018827042E+03 -0.74545768317E+02  0.48199177158E+03  0.17362432623E+03 0.  0.
         24    2    3    3    0    0 -0.26505071813E+03  0.18243326452E+03 -0.58031946065E+02  0.33606037207E+03  0.77685827077E+02 0.  0.
         -6    2    1    2    0  501  0.40945029277E+03 -0.17018827042E+03  0.57844615258E+03  0.74901521308E+03  0.17265644603E+03 0.  0.
        -24    2    5    5    0    0  0.24277888566E+03 -0.13350682447E+03  0.45428392398E+03  0.53791515284E+03  0.78823654842E+02 0.  0.
          5    1    3    3  502    0 -0.14439957465E+03 -0.12244994102E+02 -0.16513822252E+02  0.14593139951E+03  0.47000000000E+01 0. -1.
        -13    1    4    4    0    0 -0.21675840328E+02  0.27420362471E+02 -0.30163999437E+02  0.46169093494E+02  0.00000000000E+00 0.  1.
         14    1    4    4    0    0 -0.24337487780E+03  0.15501290205E+03 -0.27867946628E+02  0.28989127858E+03  0.00000000000E+00 0. -1.
         -5    1    5    5    0  501  0.16667140711E+03 -0.36681445951E+02  0.12416222860E+03  0.21110006025E+03  0.47000000000E+01 0.  1.
         13    1    6    6    0    0  0.14582972578E+03 -0.11028458279E+03  0.24121557257E+03  0.30267796513E+03  0.00000000000E+00 0. -1.
        -14    1    6    6    0    0  0.96949159886E+02 -0.23222241677E+02  0.21306835141E+03  0.23523718771E+03  0.00000000000E+00 0.  1.
</event>
<event>
12    1  0.1081556E+000  0.2232854E+03  0.7818608E-02  0.1131457E+00
          1   -1    0    0  502    0  0.00000000000E+00  0.00000000000E+00  0.78893278777E+03  0.78893278777E+03  0.00000000000E+00 0. -1.
         -1   -1    0    0    0  501 -0.00000000000E+00 -0.00000000000E+00 -0.15925656817E+03  0.15925656817E+03  0.00000000000E+00 0.  1.
          6    2    1    2  502    0 -0.14020155018E+03 -0.32138218138E+02 -0.52909294498E+02  0.23026453148E+03  0.17185174213E+03 0.  0.
         24    2    3    3    0    0 -0.82579305815E+02 -0.20377624337E+02 -0.10049641947E+03  0.15446704421E+03  0.80783340467E+02 0.  0.
         -6    2    1    2    0  501  0.14020155018E+03  0.32138218138E+02  0.68258551410E+03  0.71792482446E+03  0.16971661609E+03 0.  0.
        -24    2    5    5    0    0  0.53535002355E+02  0.36072585865E+02  0.17233507737E+03  0.20033022639E+03  0.79155497516E+02 0.  0.
          5    1    3    3  502    0 -0.57622244368E+02 -0.11760593801E+02  0.47587124977E+02  0.75797487267E+02  0.47000000000E+01 0. -1.
        -13    1    4    4    0    0 -0.20963616962E+02  0.25541622739E+02 -0.75986136783E+01  0.33905554974E+02  0.00000000000E+00 0.  1.
         14    1    4    4    0    0 -0.61615688853E+02 -0.45919247076E+02 -0.92897805797E+02  0.12056148924E+03  0.00000000000E+00 0. -1.
         -5    1    5    5    0  501  0.86666547828E+02 -0.39343677275E+01  0.51025043674E+03  0.51759459807E+03  0.47000000000E+01 0.  1.
         11    1    6    6    0    0 -0.11582184268E+02  0.42368904030E+01  0.89139695976E+02  0.89988797255E+02  0.00000000000E+00 0. -1.
        -12    1    6    6    0    0  0.65117186623E+02  0.31835695462E+02  0.83195381389E+02  0.11034142914E+03  0.00000000000E+00 0.  1.
</event>
<event>
12    1  0.1081556E+000  0.1331926E+04  0.7818608E-02  0.9004623E-01
          1   -1    0    0  502    0  0.00000000000E+00  0.00000000000E+00  0.29720383921E+04  0.29720383921E+04  0.00000000000E+00 0. -1.
         -1   -1    0    0    0  501 -0.00000000000E+00 -0.00000000000E+00 -0.69553423879E+03  0.69553423879E+03  0.00000000000E+00 0.  1.
          6    2    1    2  502    0 -0.77358317514E+03 -0.10704210033E+04  0.44777486517E+03  0.14052630404E+04  0.17329117027E+03 0.  0.
         24    2    3    3    0    0 -0.74015711117E+03 -0.99872085139E+03  0.38492279688E+03  0.13041161867E+04  0.85308736479E+02 0.  0.
         -6    2    1    2    0  501  0.77358317514E+03  0.10704210033E+04  0.18287292881E+04  0.22623095905E+04  0.17193551299E+03 0.  0.
        -24    2    5    5    0    0  0.27335349612E+03  0.40779605399E+03  0.77283692549E+03  0.91909243500E+03  0.80213684514E+02 0.  0.
          5    1    3    3  502    0 -0.33426063976E+02 -0.71700151932E+02  0.62852068290E+02  0.10114685377E+03  0.47000000000E+01 0. -1.
        -11    1    4    4    0    0 -0.40390304311E+03 -0.61371105401E+03  0.23673781006E+03  0.77189618263E+03  0.00000000000E+00 0.  1.
         12    1    4    4    0    0 -0.33625406805E+03 -0.38500979738E+03  0.14818498681E+03  0.53222000402E+03  0.00000000000E+00 0. -1.
         -5    1    5    5    0  501  0.50022967902E+03  0.66262494933E+03  0.10558923627E+04  0.13432171555E+04  0.47000000000E+01 0.  1.
         13    1    6    6    0    0  0.46079159262E+02  0.28940854890E+02  0.10655885584E+03  0.11964803282E+03  0.00000000000E+00 0. -1.
        -14    1    6    6    0    0  0.22727433686E+03  0.37885519910E+03  0.66627806965E+03  0.79944440218E+03  0.00000000000E+00 0.  1.
</event>
<event>
12    1  0.1081556E+000  0.2385766E+03  0.7818608E-02  0.1120745E+00
          1   -1    0    0  502    0  0.00000000000E+00  0.00000000000E+00  0.59627757270E+03  0.59627757270E+03  0.00000000000E+00 0. -1.
         -1   -1    0    0    0  501 -0.00000000000E+00 -0.00000000000E+00 -0.64293082576E+03  0.64293082576E+03  0.00000000000E+00 0.  1.
          6    2    1    2  502    0  0.11664394861E+03  0.11913408722E+03 -0.59510543172E+03  0.64172501022E+03  0.17280559136E+03 0.  0.
         24    2    3    3    0    0  0.18672676775E+02  0.80178407048E+01 -0.14948681636E+03  0.17210470541E+03  0.82829745447E+02 0.  0.
         -6    2    1    2    0  501 -0.11664394861E+03 -0.11913408722E+03  0.54845217865E+03  0.59748338824E+03  0.16848698902E+03 0.  0.
        -24    2    5    5    0    0 -0.74455424958E+02 -0.13297312864E+03  0.51090748271E+03  0.53914742344E+03  0.80174965368E+02 0.  0.
          5    1    3    3  502    0  0.97971271832E+02  0.11111624651E+03 -0.44561861535E+03  0.46962030481E+03  0.47000000000E+01 0. -1.
        -13    1    4    4    0    0  0.46229001317E+02  0.22342064663E+02 -0.70368878018E+02  0.87109513887E+02  0.00000000000E+00 0.  1.
         14    1    4    4    0    0 -0.27556324542E+02 -0.14324223958E+02 -0.79117938345E+02  0.84995191524E+02  0.00000000000E+00 0. -1.
         -5    1    5    5    0  501 -0.42188523649E+02  0.13839041425E+02  0.37544695945E+02  0.58335964797E+02  0.47000000000E+01 0.  1.
         11    1    6    6    0    0 -0.34346297770E+02 -0.41116188877E+02  0.31032876068E+03  0.31491927357E+03  0.00000000000E+00 0. -1.
        -12    1    6    6    0    0 -0.40109127188E+02 -0.91856939765E+02  0.20057872203E+03  0.22422814987E+03  0.00000000000E+00 0.  1.
</event>
<event>
12    1  0.1081556E+000  0.8244019E+03  0.7818608E-02  0.9525353E-01
          2   -1    0    0  502    0  0.00000000000E+00  0.00000000000E+00  0.20028531225E+04  0.20028531225E+04  0.00000000000E+00 0. -1.
         -2   -1    0    0    0  501 -0.00000000000E+00 -0.00000000000E+00 -0.40713896398E+03  0.40713896398E+03  0.00000000000E+00 0.  1.
          6    2    1    2  502    0  0.17410118547E+02  0.80605727183E+03  0.30617069344E+03  0.87948948181E+03  0.17242336672E+03 0.  0.
         24    2    3    3    0    0  0.52311056854E+02  0.54092803092E+03  0.14880744593E+03  0.56917210951E+03  0.80459014296E+02 0.  0.
         -6    2    1    2    0  501 -0.17410118547E+02 -0.80605727183E+03  0.12895434651E+04  0.15305026047E+04  0.17171032834E+03 0.  0.
        -24    2    5    5    0    0 -0.64193539200E+02 -0.58183467378E+03  0.85194949008E+03  0.10365643101E+04  0.77428916724E+02 0.  0.
          5    1    3    3  502    0 -0.34900938307E+02  0.26512924092E+03  0.15736324751E+03  0.31031737230E+03  0.47000000000E+01 0. -1.
        -13    1    4    4    0    0  0.28459277356E+02  0.77813866091E+02  0.24306775102E+01  0.82890508605E+02  0.00000000000E+00 0.  1.
         14    1    4    4    0    0  0.23851779498E+02  0.46311416483E+03  0.14637676842E+03  0.48628160091E+03  0.00000000000E+00 0. -1.
         -5    1    5    5    0  501  0.46783420653E+02 -0.22422259805E+03  0.43759397503E+03  0.49393829464E+03  0.47000000000E+01 0.  1.
         11    1    6    6    0    0 -0.50683092606E+02 -0.44156616998E+03  0.70127041230E+03  0.83025878467E+03  0.00000000000E+00 0. -1.
        -12    1    6    6    0    0 -0.13510446594E+02 -0.14026850380E+03  0.15067907778E+03  0.20630552539E+03  0.00000000000E+00 0.  1.
</event>
<event>
12    1  0.1081556E+000  0.6541169E+03  0.7818608E-02  0.9799085E-01
         -2   -1    0    0    0  501 -0.00000000000E+00  0.00000000000E+00  0.66372607987E+03  0.66372607987E+03  0.00000000000E+00 0.  1.
          2   -1    0    0  502    0  0.00000000000E+00 -0.00000000000E+00 -0.74056921023E+03  0.74056921023E+03  0.00000000000E+00 0. -1.
          6    2    1    2  502    0  0.36357320073E+03 -0.51597728532E+03  0.21426783284E+03  0.68851691335E+03  0.17241462966E+03 0.  0.
         24    2    3    3    0    0  0.32495169465E+03 -0.41532752395E+03  0.11822284396E+03  0.54405679745E+03  0.62694513407E+02 0.  0.
         -6    2    1    2    0  501 -0.36357320073E+03  0.51597728532E+03 -0.29111096320E+03  0.71577837675E+03  0.17080708556E+03 0.  0.
        -24    2    5    5    0    0 -0.28817010524E+03  0.32572292806E+03 -0.14840513210E+03  0.46624001999E+03  0.78855802502E+02 0.  0.
          5    1    3    3  502    0  0.38621506079E+02 -0.10064976137E+03  0.96044988885E+02  0.14446011590E+03  0.47000000000E+01 0. -1.
        -13    1    4    4    0    0  0.22763008135E+03 -0.31468325617E+03  0.62532827115E+02  0.39338449400E+03  0.00000000000E+00 0.  1.
         14    1    4    4    0    0  0.97321613296E+02 -0.10064426778E+03  0.55690016841E+02  0.15067230345E+03  0.00000000000E+00 0. -1.
         -5    1    5    5    0  501 -0.75403095489E+02  0.19025435726E+03 -0.14270583111E+03  0.24953835676E+03  0.47000000000E+01 0.  1.
         13    1    6    6    0    0 -0.73034014485E+02  0.56436629885E+02 -0.61077051468E+02  0.11067730879E+03  0.00000000000E+00 0. -1.
        -14    1    6    6    0    0 -0.21513609076E+03  0.26928629817E+03 -0.87328080630E+02  0.35556271120E+03  0.00000000000E+00 0.  1.
</event>
<event>
12    1  0.1081556E+000  0.3089937E+03  0.7818608E-02  0.1080829E+00
         -2   -1    0    0    0  501 -0.00000000000E+00  0.00000000000E+00  0.42358554085E+03  0.42358554085E+03  0.00000000000E+00 0.  1.
          2   -1    0    0  502    0  0.00000000000E+00 -0.00000000000E+00 -0.22656275040E+03  0.22656275040E+03  0.00000000000E+00 0. -1.
          6    2    1    2  502    0  0.24551118167E+03 -0.71758033814E+02  0.75255769478E+02  0.31805803418E+03  0.17341432040E+03 0.  0.
         24    2    3    3    0    0  0.67034297803E+02 -0.72888852768E+02  0.87570090337E+01  0.12753388356E+03  0.79886321162E+02 0.  0.
         -6    2    1    2    0  501 -0.24551118167E+03  0.71758033814E+02  0.12176702097E+03  0.33209025708E+03  0.17329678504E+03 0.  0.
        -24    2    5    5    0    0 -0.46337918641E+02 -0.61709544299E+01  0.55090671723E+02  0.10801272258E+03  0.80289991570E+02 0.  0.
          5    1    3    3  502    0  0.17847688387E+03  0.11308189537E+01  0.66498760444E+02  0.19052415062E+03  0.47000000000E+01 0. -1.
        -13    1    4    4    0    0  0.72453957072E+02 -0.36276069695E+02 -0.16545434629E+02  0.82699942775E+02  0.00000000000E+00 0.  1.
         14    1    4    4    0    0 -0.54196592692E+01 -0.36612783073E+02  0.25302443663E+02  0.44833940784E+02  0.00000000000E+00 0. -1.
         -5    1    5    5    0  501 -0.19917326303E+03  0.77928988244E+02  0.66676349251E+02  0.22407753449E+03  0.47000000000E+01 0.  1.
         13    1    6    6    0    0 -0.30835304070E+02 -0.37315560152E+02  0.73823878223E+01  0.48966995584E+02  0.00000000000E+00 0. -1.
        -14    1    6    6    0    0 -0.15502614571E+02  0.31144605722E+02  0.47708283901E+02  0.59045726999E+02  0.00000000000E+00 0.  1.
</event>
<event>
12    1  0.1081556E+000  0.1817407E+03  0.7818608E-02  0.1166129E+00
          2   -1    0    0  502    0  0.00000000000E+00  0.00000000000E+00  0.13188644451E+04  0.13188644451E+04  0.00000000000E+00 0. -1.
         -2   -1    0    0    0  501 -0.00000000000E+00 -0.00000000000E+00 -0.26163239287E+02  0.26163239287E+02  0.00000000000E+00 0.  1.
          6    2    1    2  502    0  0.76015349264E+00  0.59371674419E+02  0.50863130090E+03  0.54026088374E+03  0.17219305645E+03 0.  0.
         24    2    3    3    0    0 -0.55221445667E+02  0.39883337137E+02  0.23537828942E+03  0.26061283169E+03  0.88746945112E+02 0.  0.
         -6    2    1    2    0  501 -0.76015349264E+00 -0.59371674419E+02  0.78406990495E+03  0.80476680068E+03  0.17134297207E+03 0.  0.
        -24    2    5    5    0    0  0.29485956941E+02  0.24059093784E+02  0.30361501111E+03  0.31616213912E+03  0.79549742905E+02 0.  0.
          5    1    3    3  502    0  0.55981599160E+02  0.19488337282E+02  0.27325301148E+03  0.27964805206E+03  0.47000000000E+01 0. -1.
        -13    1    4    4    0    0 -0.52011263601E+02  0.14755270283E+01  0.53248478018E+02  0.74449641588E+02  0.00000000000E+00 0.  1.
         14    1    4    4    0    0 -0.32101820658E+01  0.38407810109E+02  0.18212981140E+03  0.18616319010E+03  0.00000000000E+00 0. -1.
         -5    1    5    5    0  501 -0.30246110434E+02 -0.83430768203E+02  0.48045489384E+03  0.48860466156E+03  0.47000000000E+01 0.  1.
         11    1    6    6    0    0  0.79225855581E+01 -0.13758344288E+01  0.26508325344E+03  0.26520518761E+03  0.00000000000E+00 0. -1.
        -12    1    6    6    0    0  0.21563371383E+02  0.25434928213E+02  0.38531757669E+02  0.50956951515E+02  0.00000000000E+00 0.  1.
</event>
<event>
12    1  0.1081556E+000  0.3741230E+03  0.7818608E-02  0.1053128E+00
          3   -1    0    0  502    0  0.00000000000E+00  0.00000000000E+00  0.59038828002E+03  0.59038828002E+03  0.00000000000E+00 0. -1.
         -3   -1    0    0    0  501 -0.00000000000E+00 -0.00000000000E+00 -0.31343219956E+03  0.31343219956E+03  0.00000000000E+00 0.  1.
          6    2    1    2  502    0  0.30288318694E+03 -0.13711680125E+03  0.36132896497E+03  0.51962134602E+03  0.17002493996E+03 0.  0.
         24    2    3    3    0    0  0.11355038998E+03 -0.12185560826E+02  0.90759543539E+02  0.16651424521E+03  0.80296451701E+02 0.  0.
         -6    2    1    2    0  501 -0.30288318694E+03  0.13711680125E+03 -0.84372884512E+02  0.38419913356E+03  0.17306342326E+03 0.  0.
        -24    2    5    5    0    0 -0.25183400789E+03  0.75892903981E+02 -0.10115040106E+02  0.27515463927E+03  0.80172695305E+02 0.  0.
          5    1    3    3  502    0  0.18933279695E+03 -0.12493124042E+03  0.27056942143E+03  0.35310710082E+03  0.47000000000E+01 0. -1.
        -11    1    4    4    0    0  0.76098542049E+02 -0.29081222450E+02  0.18731473927E+02  0.83591708421E+02  0.00000000000E+00 0.  1.
         12    1    4    4    0    0  0.37451847936E+02  0.16895661623E+02  0.72028069611E+02  0.82922536789E+02  0.00000000000E+00 0. -1.
         -5    1    5    5    0  501 -0.51049179053E+02  0.61223897266E+02 -0.74257844406E+02  0.10904449429E+03  0.47000000000E+01 0.  1.
         13    1    6    6    0    0 -0.11696351004E+03 -0.52848845620E+01  0.36326509253E+01  0.11713918575E+03  0.00000000000E+00 0. -1.
        -14    1    6    6    0    0 -0.13487049785E+03  0.81177788543E+02 -0.13747691031E+02  0.15801545352E+03  0.00000000000E+00 0.  1.
</event>
<event>
12    1  0.1081556E+000  0.2885571E+03  0.7818608E-02  0.1091105E+00
         -2   -1    0    0    0  501 -0.00000000000E+00  0.00000000000E+00  0.36763300836E+03  0.36763300836E+03  0.00000000000E+00 0.  1.
          2   -1    0    0  502    0  0.00000000000E+00 -0.00000000000E+00 -0.26385321760E+03  0.26385321760E+03  0.00000000000E+00 0. -1.
          6    2    1    2  502    0 -0.18886412900E+03  0.13472277236E+03  0.17071824353E+03  0.33534496714E+03  0.17173131251E+03 0.  0.
         24    2    3    3    0    0 -0.40742917527E+02  0.80151750138E+02  0.10241944275E+03  0.16328478597E+03  0.89932700944E+02 0.  0.
         -6    2    1    2    0  501  0.18886412900E+03 -0.13472277236E+03 -0.66938452771E+02  0.29614125883E+03  0.17146137789E+03 0.  0.
        -24    2    5    5    0    0  0.16666659555E+03 -0.13334934622E+03 -0.10572584890E+03  0.25118384688E+03  0.79721813821E+02 0.  0.
          5    1    3    3  502    0 -0.14812121147E+03  0.54571022225E+02  0.68298800786E+02  0.17206018116E+03  0.47000000000E+01 0. -1.
        -13    1    4    4    0    0 -0.51299033189E+02  0.81637829646E+02  0.47764740047E+02  0.10760016927E+03  0.00000000000E+00 0.  1.
         14    1    4    4    0    0  0.10556115662E+02 -0.14860795079E+01  0.54654702699E+02  0.55684616702E+02  0.00000000000E+00 0. -1.
         -5    1    5    5    0  501  0.22197533446E+02 -0.13734261409E+01  0.38787396129E+02  0.44957411946E+02  0.47000000000E+01 0.  1.
         13    1    6    6    0    0  0.33261318497E+02  0.61157665717E+01 -0.75469409245E+01  0.34650746403E+02  0.00000000000E+00 0. -1.
        -14    1    6    6    0    0  0.13340527705E+03 -0.13946511279E+03 -0.98178907975E+02  0.21653310048E+03  0.00000000000E+00 0.  1.
</event>
<event>
12    1  0.1081556E+000  0.2035073E+03  0.7818608E-02  0.1146813E+00
          2   -1    0    0  502    0  0.00000000000E+00  0.00000000000E+00  0.11469855705E+04  0.11469855705E+04  0.00000000000E+00 0. -1.
         -2   -1    0    0    0  501 -0.00000000000E+00 -0.00000000000E+00 -0.92324157756E+02  0.92324157756E+02  0.00000000000E+00 0.  1.
          6    2    1    2  502    0 -0.99646156478E+02  0.43245575641E+02  0.44972910932E+02  0.20954217747E+03  0.17345265955E+03 0.  0.
         24    2    3    3    0    0 -0.47845721544E+02  0.42549119552E+02 -0.38816229208E+02  0.11091925865E+03  0.81833621727E+02 0.  0.
         -6    2    1    2    0  501  0.99646156478E+02 -0.43245575641E+02  0.10096885018E+04  0.10297675508E+04  0.17073605844E+03 0.  0.
        -24    2    5    5    0    0  0.12552128187E+03 -0.57102047989E+02  0.94908449867E+03  0.96226600164E+03  0.78601757065E+02 0.  0.
          5    1    3    3  502    0 -0.51800434935E+02  0.69645608998E+00  0.83789140140E+02  0.98622918817E+02  0.47000000000E+01 0. -1.
        -11    1    4    4    0    0 -0.54745291492E+02 -0.34198817255E+01 -0.33150542091E+02  0.64091348656E+02  0.00000000000E+00 0.  1.
         12    1    4    4    0    0  0.68995699489E+01  0.45969001277E+02 -0.56656871163E+01  0.46827909994E+02  0.00000000000E+00 0. -1.
         -5    1    5    5    0  501 -0.25875125392E+02  0.13856472348E+02  0.60604003114E+02  0.67501549119E+02  0.47000000000E+01 0.  1.
         11    1    6    6    0    0  0.94364845761E+02 -0.13958506819E+01  0.52718644161E+03  0.53556719161E+03  0.00000000000E+00 0. -1.
        -12    1    6    6    0    0  0.31156436110E+02 -0.55706197307E+02  0.42189805706E+03  0.42669881003E+03  0.00000000000E+00 0.  1.
</event>
<event>
12    1  0.1081556E+000  0.3996533E+03  0.7818608E-02  0.1043900E+00
         -1   -1    0    0    0  501 -0.00000000000E+00  0.00000000000E+00  0.20050074156E+03  0.20050074156E+03  0.00000000000E+00 0.  1.
          1   -1    0    0  502    0  0.00000000000E+00 -0.00000000000E+00 -0.80236392976E+03  0.80236392976E+03  0.00000000000E+00 0. -1.
          6    2    1    2  502    0  0.12055242097E+03  0.33967627374E+03 -0.25835625563E+03  0.47572333316E+03  0.17219720599E+03 0.  0.
         24    2    3    3    0    0  0.56487156277E+02  0.10014835261E+03 -0.39518384774E+02  0.14498161088E+03  0.78977676612E+02 0.  0.
         -6    2    1    2    0  501 -0.12055242097E+03 -0.33967627374E+03 -0.34350693258E+03  0.52714133816E+03  0.17311302818E+03 0.  0.
        -24    2    5    5    0    0 -0.14282431791E+03 -0.21907324489E+03 -0.20423286182E+03  0.34150598392E+03  0.80767585005E+02 0.  0.
          5    1    3    3  502    0  0.64065264690E+02  0.23952792113E+03 -0.21883787086E+03  0.33074172229E+03  0.47000000000E+01 0. -1.
        -13    1    4    4    0    0  0.24296792168E+02  0.94783643003E+02 -0.51056353205E+02  0.11036767776E+03  0.00000000000E+00 0.  1.
         14    1    4    4    0    0  0.32190364110E+02  0.53647096068E+01  0.11537968432E+02  0.34613933122E+02  0.00000000000E+00 0. -1.
         -5    1    5    5    0  501  0.22271896944E+02 -0.12060302885E+03 -0.13927407075E+03  0.18563535424E+03  0.47000000000E+01 0.  1.
         13    1    6    6    0    0 -0.30933233486E+02 -0.12045019074E+03 -0.99314202928E+02  0.15914906310E+03  0.00000000000E+00 0. -1.
        -14    1    6    6    0    0 -0.11189108443E+03 -0.98623054151E+02 -0.10491865890E+03  0.18235692081E+03  0.00000000000E+00 0.  1.
</event>
<event>
12    1  0.1081556E+000  0.5500935E+03  0.7818608E-02  0.1001472E+00
         -1   -1    0    0    0  501 -0.00000000000E+00  0.00000000000E+00  0.19666435574E+03  0.19666435574E+03  0.00000000000E+00 0.  1.
          1   -1    0    0  502    0  0.00000000000E+00 -0.00000000000E+00 -0.17782349430E+04  0.17782349430E+04  0.00000000000E+00 0. -1.
          6    2    1    2  502    0 -0.52190158605E+03  0.11935837526E+02 -0.42890303626E+03  0.69788690726E+03  0.17482731784E+03 0.  0.
         24    2    3    3    0    0 -0.46277759713E+03  0.29122947487E+02 -0.42798412945E+03  0.63612950119E+03  0.80492712342E+02 0.  0.
         -6    2    1    2    0  501  0.52190158605E+03 -0.11935837526E+02 -0.11526675510E+04  0.12770123915E+04  0.17203033203E+03 0.  0.
        -24    2    5    5    0    0  0.49192116724E+03  0.18914755541E+02 -0.98949964505E+03  0.11082035051E+04  0.81616532085E+02 0.  0.
          5    1    3    3  502    0 -0.59123988920E+02 -0.17187109962E+02 -0.91890680969E+00  0.61757406069E+02  0.47000000000E+01 0. -1.
        -11    1    4    4    0    0 -0.18715017814E+03  0.51460837151E+02 -0.17631374674E+03  0.26222117425E+03  0.00000000000E+00 0.  1.
         12    1    4    4    0    0 -0.27562741899E+03 -0.22337889664E+02 -0.25167038271E+03  0.37390832693E+03  0.00000000000E+00 0. -1.
         -5    1    5    5    0  501  0.29980418810E+02 -0.30850593067E+02 -0.16316790598E+03  0.16880888645E+03  0.47000000000E+01 0.  1.
         13    1    6    6    0    0  0.24663115105E+03  0.49597232755E+02 -0.51605222866E+03  0.57410514096E+03  0.00000000000E+00 0. -1.
        -14    1    6    6    0    0  0.24529001619E+03 -0.30682477213E+02 -0.47344741639E+03  0.53409836410E+03  0.00000000000E+00 0.  1.
</event>
<event>
12    1  0.1081556E+000  0.7851891E+03  0.7818608E-02  0.9581706E-01
         -1   -1    0    0    0  501 -0.00000000000E+00  0.00000000000E+00  0.38510693226E+03  0.38510693226E+03  0.00000000000E+00 0.  1.
          1   -1    0    0  502    0  0.00000000000E+00 -0.00000000000E+00 -0.16063996470E+04  0.16063996470E+04  0.00000000000E+00 0. -1.
          6    2    1    2  502    0 -0.36370396352E+03  0.67363075562E+03 -0.66900549467E+03  0.10316998995E+04  0.17543478168E+03 0.  0.
         24    2    3    3    0    0 -0.21405815074E+03  0.46519054360E+03 -0.52354769718E+03  0.73670625185E+03  0.80067325080E+02 0.  0.
         -6    2    1    2    0  501  0.36370396352E+03 -0.67363075562E+03 -0.55228722010E+03  0.95980667985E+03  0.17363387109E+03 0.  0.
        -24    2    5    5    0    0  0.29024902801E+03 -0.49873656506E+03 -0.33739120425E+03  0.67312568454E+03  0.79263502890E+02 0.  0.
          5    1    3    3  502    0 -0.14964581278E+03  0.20844021203E+03 -0.14545779749E+03  0.29499364760E+03  0.47000000000E+01 0. -1.
        -11    1    4    4    0    0 -0.16565558981E+03  0.29460353203E+03 -0.30485994018E+03  0.45516216742E+03  0.00000000000E+00 0.  1.
         12    1    4    4    0    0 -0.48402560932E+02  0.17058701157E+03 -0.21868775700E+03  0.28154408444E+03  0.00000000000E+00 0. -1.
         -5    1    5    5    0  501  0.73454935512E+02 -0.17489419056E+03 -0.21489601584E+03  0.28668099530E+03  0.47000000000E+01 0.  1.
         13    1    6    6    0    0  0.27926012092E+03 -0.47277456347E+03 -0.33826073965E+03  0.64492040671E+03  0.00000000000E+00 0. -1.
        -14    1    6    6    0    0  0.10988907087E+02 -0.25962001591E+02  0.86953539968E+00  0.28205277829E+02  0.00000000000E+00 0.  1.
</event>
<event>
12    1  0.1081556E+000  0.2886003E+03  0.7818608E-02  0.1091082E+00
         -2   -1    0    0    0  501 -0.00000000000E+00  0.00000000000E+00  0.16649332502E+03  0.16649332502E+03  0.00000000000E+00 0.  1.
          2   -1    0    0  502    0  0.00000000000E+00 -0.00000000000E+00 -0.78173442758E+03  0.78173442758E+03  0.00000000000E+00 0. -1.
          6    2    1    2  502    0  0.85369744719E+02  0.21825164267E+03 -0.23302282828E+02  0.28979470220E+03  0.16886740419E+03 0.  0.
         24    2    3    3    0    0 -0.18613552904E+02  0.12080410355E+03 -0.46246717699E+01  0.14599104363E+03  0.79698817083E+02 0.  0.
         -6    2    1    2    0  501 -0.85369744719E+02 -0.21825164267E+03 -0.59193881974E+03  0.65843305039E+03  0.16799030538E+03 0.  0.
        -24    2    5    5    0    0 -0.60564598632E+02 -0.93078876434E+02 -0.43536428373E+03  0.45639050041E+03  0.80115425925E+02 0.  0.
          5    1    3    3  502    0  0.10398329762E+03  0.97447539116E+02 -0.18677611058E+02  0.14380365857E+03  0.47000000000E+01 0. -1.
        -13    1    4    4    0    0  0.19856154022E+02  0.94484428031E+02 -0.16360587277E+02  0.97924679264E+02  0.00000000000E+00 0.  1.
         14    1    4    4    0    0 -0.38469706926E+02  0.26319675519E+02  0.11735915507E+02  0.48066364364E+02  0.00000000000E+00 0. -1.
         -5    1    5    5    0  501 -0.24805146086E+02 -0.12517276623E+03 -0.15657453601E+03  0.20204254998E+03  0.47000000000E+01 0.  1.
         13    1    6    6    0    0  0.91928894481E+01 -0.31028414452E+02 -0.20960024761E+03  0.21208379362E+03  0.00000000000E+00 0. -1.
        -14    1    6    6    0    0 -0.69757488080E+02 -0.62050461982E+02 -0.22576403612E+03  0.24430670679E+03  0.00000000000E+00 0.  1.
</event>
<event>
12    1  0.1388981E+000  0.1773763E+03  0.7818608E-02  0.1170367E+00
          1   -1    0    0  502    0  0.00000000000E+00  0.00000000000E+00  0.30018744351E+04  0.30018744351E+04  0.00000000000E+00 0. -1.
         -1   -1    0    0    0  501 -0.00000000000E+00 -0.00000000000E+00 -0.15688369875E+03  0.15688369875E+03  0.00000000000E+00 0.  1.
          6    2    1    2  502    0  0.26307807653E+02 -0.36492961566E+02 -0.10287992809E+03  0.20559314343E+03  0.17222201960E+03 0.  0.
         24    2    3    3    0    0  0.69226286952E+01  0.42705640739E+02 -0.82923021241E+02  0.12151834399E+03  0.77580834845E+02 0.  0.
         -6    2    1    2    0  501 -0.26307807653E+02  0.36492961566E+02  0.29478706644E+04  0.29531649904E+04  0.17093323072E+03 0.  0.
        -24    2    5    5    0    0 -0.37106946787E+01 -0.19607315777E+02  0.24771864849E+04  0.24785877496E+04  0.80908191182E+02 0.  0.
          5    1    3    3  502    0  0.19385178958E+02 -0.79198602305E+02 -0.19956906850E+02  0.84074799442E+02  0.47000000000E+01 0. -1.
        -11    1    4    4    0    0  0.13122542268E+02  0.15084899371E+02 -0.90118777107E+02  0.92310071454E+02  0.00000000000E+00 0.  1.
         12    1    4    4    0    0 -0.61999135723E+01  0.27620741368E+02  0.71957558658E+01  0.29208272536E+02  0.00000000000E+00 0. -1.
         -5    1    5    5    0  501 -0.22597112974E+02  0.56100277342E+02  0.47068417951E+03  0.47457724079E+03  0.47000000000E+01 0.  1.
         13    1    6    6    0    0 -0.18957783556E+01  0.31786255433E+02  0.90039459115E+03  0.90095747945E+03  0.00000000000E+00 0. -1.
        -14    1    6    6    0    0 -0.18149163231E+01 -0.51393571210E+02  0.15767918937E+04  0.15776302701E+04  0.00000000000E+00 0.  1.
</event>
<event>
12    1  0.1081556E+000  0.2193661E+03  0.7818608E-02  0.1134357E+00
         -3   -1    0    0    0  501 -0.00000000000E+00  0.00000000000E+00  0.19364977098E+03  0.19364977098E+03  0.00000000000E+00 0.  1.
          3   -1    0    0  502    0  0.00000000000E+00 -0.00000000000E+00 -0.16488802898E+04  0.16488802898E+04  0.00000000000E+00 0. -1.
          6    2    1    2  502    0 -0.28071911460E+02  0.13281455920E+03  0.12205027814E+03  0.24988496992E+03  0.17064140309E+03 0.  0.
         24    2    3    3    0    0  0.94638741775E+01  0.58075709055E+02 -0.28840552047E+01  0.99467189810E+02  0.80143940367E+02 0.  0.
         -6    2    1    2    0  501  0.28071911460E+02 -0.13281455920E+03 -0.15772807969E+04  0.15926450908E+04  0.17399980929E+03 0.  0.
        -24    2    5    5    0    0  0.19201233447E+02 -0.14247489889E+03 -0.15662830975E+04  0.15748954293E+04  0.79906742957E+02 0.  0.
          5    1    3    3  502    0 -0.37535785638E+02  0.74738850145E+02  0.12493433334E+03  0.15041778011E+03  0.47000000000E+01 0. -1.
        -13    1    4    4    0    0  0.10974721599E+02  0.60705866337E+02  0.28487127628E+02  0.67949710539E+02  0.00000000000E+00 0.  1.
         14    1    4    4    0    0 -0.15108474217E+01 -0.26301572816E+01 -0.31371182833E+02  0.31517479271E+02  0.00000000000E+00 0. -1.
         -5    1    5    5    0  501  0.88706780129E+01  0.96603396876E+01 -0.10997699428E+02  0.17749661518E+02  0.47000000000E+01 0.  1.
         13    1    6    6    0    0  0.62871420060E+01 -0.17530207150E+02 -0.62389843481E+03  0.62417633188E+03  0.00000000000E+00 0. -1.
        -14    1    6    6    0    0  0.12914091442E+02 -0.12494469174E+03 -0.94238466270E+03  0.95071909744E+03  0.00000000000E+00 0.  1.
</event>
<event>
12    1  0.1081556E+000  0.2657023E+03  0.7818608E-02  0.1103765E+00
          2   -1    0    0  502    0  0.00000000000E+00  0.00000000000E+00  0.44794266243E+03  0.44794266243E+03  0.00000000000E+00 0. -1.
         -2   -1    0    0    0  501 -0.00000000000E+00 -0.00000000000E+00 -0.33725253480E+03  0.33725253480E+03  0.00000000000E+00 0.  1.
          6    2    1    2  502    0 -0.50886186678E+02 -0.19772464471E+03 -0.23133998969E+03  0.35110926057E+03  0.16755620820E+03 0.  0.
         24    2    3    3    0    0  0.10819011284E+02 -0.10595035820E+03 -0.18414018198E+03  0.23077654279E+03  0.89485622730E+02 0.  0.
         -6    2    1    2    0  501  0.50886186678E+02  0.19772464471E+03  0.34203011733E+03  0.43408593666E+03  0.17251539098E+03 0.  0.
        -24    2    5    5    0    0  0.99516373395E+01  0.20809332070E+03  0.26903243832E+03  0.34962353134E+03  0.80351077114E+02 0.  0.
          5    1    3    3  502    0 -0.61705197962E+02 -0.91774286515E+02 -0.47199807718E+02  0.12033271778E+03  0.47000000000E+01 0. -1.
        -11    1    4    4    0    0  0.17094855537E+02 -0.11767465556E+03 -0.13515271631E+03  0.18001615309E+03  0.00000000000E+00 0.  1.
         12    1    4    4    0    0 -0.62758442535E+01  0.11724297365E+02 -0.48987465666E+02  0.50760389697E+02  0.00000000000E+00 0. -1.
         -5    1    5    5    0  501  0.40934549338E+02 -0.10368675989E+02  0.72997679008E+02  0.84462405317E+02  0.47000000000E+01 0.  1.
         11    1    6    6    0    0  0.33654569226E+02  0.14772418357E+03  0.22491126175E+03  0.27118285363E+03  0.00000000000E+00 0. -1.
        -12    1    6    6    0    0 -0.23702931887E+02  0.60369137135E+02  0.44121176576E+02  0.78440677718E+02  0.00000000000E+00 0.  1.
</event>
<event>
12    1  0.1081556E+000  0.6448602E+03  0.7818608E-02  0.9816472E-01
         -2   -1    0    0    0  501 -0.00000000000E+00  0.00000000000E+00  0.25172047620E+03  0.25172047620E+03  0.00000000000E+00 0.  1.
          2   -1    0    0  502    0  0.00000000000E+00 -0.00000000000E+00 -0.18831758177E+04  0.18831758177E+04  0.00000000000E+00 0. -1.
          6    2    1    2  502    0 -0.57621395729E+03 -0.23268916757E+03 -0.11897368174E+04  0.13532691475E+04  0.17232793682E+03 0.  0.
         24    2    3    3    0    0 -0.51235554061E+03 -0.22173066263E+03 -0.94966059903E+03  0.11045591421E+04  0.80764832918E+02 0.  0.
         -6    2    1    2    0  501  0.57621395729E+03  0.23268916757E+03 -0.44171852416E+03  0.78162714637E+03  0.17221779259E+03 0.  0.
        -24    2    5    5    0    0  0.55638557766E+03  0.25163124039E+03 -0.42972627511E+03  0.75133076377E+03  0.83366977271E+02 0.  0.
          5    1    3    3  502    0 -0.63858416681E+02 -0.10958504935E+02 -0.24007621832E+03  0.24871000546E+03  0.47000000000E+01 0. -1.
        -11    1    4    4    0    0 -0.36099639460E+03 -0.11711270989E+03 -0.61587072263E+03  0.72341587674E+03  0.00000000000E+00 0.  1.
         12    1    4    4    0    0 -0.15135914601E+03 -0.10461795274E+03 -0.33378987640E+03  0.38114326533E+03  0.00000000000E+00 0. -1.
         -5    1    5    5    0  501  0.19828379631E+02 -0.18942072823E+02 -0.11992249044E+02  0.30296382602E+02  0.47000000000E+01 0.  1.
         13    1    6    6    0    0  0.64023456202E+02  0.19823964157E+02 -0.80346037318E+02  0.10463019742E+03  0.00000000000E+00 0. -1.
        -14    1    6    6    0    0  0.49236212146E+03  0.23180727624E+03 -0.34938023779E+03  0.64670056635E+03  0.00000000000E+00 0.  1.
</event>
<event>
12    1  0.1081556E+000  0.1126220E+04  0.7818608E-02  0.9180006E-01
          1   -1    0    0  502    0  0.00000000000E+00  0.00000000000E+00  0.27303390698E+04  0.27303390698E+04  0.00000000000E+00 0. -1.
         -1   -1    0    0    0  501 -0.00000000000E+00 -0.00000000000E+00 -0.59545211349E+03  0.59545211349E+03  0.00000000000E+00 0.  1.
          6    2    1    2  502    0 -0.84487077576E+03  0.72458096406E+03  0.28777988769E+03  0.11624344407E+04  0.17208243331E+03 0.  0.
         24    2    3    3    0    0 -0.68843081702E+03  0.65945113873E+03  0.24813754755E+03  0.98833975386E+03  0.80189976680E+02 0.  0.
         -6    2    1    2    0  501  0.84487077576E+03 -0.72458096406E+03  0.18471070686E+04  0.21633567426E+04  0.17170810033E+03 0.  0.
        -24    2    5    5    0    0  0.73594984082E+03 -0.67314835166E+03  0.17117654080E+04  0.19821150841E+04  0.62358022948E+02 0.  0.
          5    1    3    3  502    0 -0.15643995874E+03  0.65129825323E+02  0.39642340142E+02  0.17409468680E+03  0.47000000000E+01 0. -1.
        -13    1    4    4    0    0 -0.24112991273E+03  0.18024676271E+03  0.71315276946E+02  0.30938390230E+03  0.00000000000E+00 0.  1.
         14    1    4    4    0    0 -0.44730090429E+03  0.47920437603E+03  0.17682227060E+03  0.67895585155E+03  0.00000000000E+00 0. -1.
         -5    1    5    5    0  501  0.10892093494E+03 -0.51432612396E+02  0.13534166057E+03  0.18124165849E+03  0.47000000000E+01 0.  1.
         11    1    6    6    0    0  0.18002673533E+03 -0.17409362917E+03  0.48316893000E+03  0.54421542800E+03  0.00000000000E+00 0. -1.
        -12    1    6    6    0    0  0.55592310549E+03 -0.49905472249E+03  0.12285964780E+04  0.14378996561E+04  0.00000000000E+00 0.  1.
</event>
<event>
12    1  0.1118948E+000  0.3549827E+03  0.7818608E-02  0.1060588E+00
         -1   -1    0    0    0  501 -0.00000000000E+00  0.00000000000E+00  0.17543712293E+03  0.17543712293E+03  0.00000000000E+00 0.  1.
          1   -1    0    0  502    0  0.00000000000E+00 -0.00000000000E+00 -0.98755097066E+03  0.98755097066E+03  0.00000000000E+00 0. -1.
          6    2    1    2  502    0  0.29081517633E+03 -0.11359654584E+03 -0.10401652305E+03  0.37174357091E+03  0.17290518626E+03 0.  0.
         24    2    3    3    0    0  0.22360507663E+03 -0.77495352938E+02 -0.90324256222E+01  0.24982325925E+03  0.79531856067E+02 0.  0.
         -6    2    1    2    0  501 -0.29081517633E+03  0.11359654584E+03 -0.70809732468E+03  0.79124452268E+03  0.16488914894E+03 0.  0.
        -24    2    5    5    0    0 -0.10998368510E+03  0.53977810209E+02 -0.43150721838E+03  0.45541927234E+03  0.78728769360E+02 0.  0.
          5    1    3    3  502    0  0.67210099701E+02 -0.36101192900E+02 -0.94984097424E+02  0.12192031165E+03  0.47000000000E+01 0. -1.
        -13    1    4    4    0    0  0.83431607530E+02 -0.13941630202E+02 -0.38800671070E+02  0.93062851145E+02  0.00000000000E+00 0.  1.
         14    1    4    4    0    0  0.14017346910E+03 -0.63553722735E+02  0.29768245448E+02  0.15676040811E+03  0.00000000000E+00 0. -1.
         -5    1    5    5    0  501 -0.18083149123E+03  0.59618735629E+02 -0.27659010631E+03  0.33582525034E+03  0.47000000000E+01 0.  1.
         11    1    6    6    0    0 -0.11112965914E+03  0.37841554315E+02 -0.28806698533E+03  0.31106972275E+03  0.00000000000E+00 0. -1.
        -12    1    6    6    0    0  0.11459740434E+01  0.16136255894E+02 -0.14344023305E+03  0.14434954959E+03  0.00000000000E+00 0.  1.
</event>
<event>
12    1  0.1081556E+000  0.3262644E+03  0.7818608E-02  0.1072802E+00
         -2   -1    0    0    0  501 -0.00000000000E+00  0.00000000000E+00  0.46158096615E+03  0.46158096615E+03  0.00000000000E+00 0.  1.
          2   -1    0    0  502    0  0.00000000000E+00 -0.00000000000E+00 -0.92769649109E+03  0.92769649109E+03  0.00000000000E+00 0. -1.
          6    2    1    2  502    0  0.25531005318E+03  0.10932521822E+03  0.36903421098E+03  0.49275674933E+03  0.17171994220E+03 0.  0.
         24    2    3    3    0    0  0.35876345801E+02  0.34923776865E+02  0.10955961900E+03  0.14485463624E+03  0.80453546521E+02 0.  0.
         -6    2    1    2    0  501 -0.25531005318E+03 -0.10932521822E+03 -0.83514973593E+03  0.89652070791E+03  0.17070170386E+03 0.  0.
        -24    2    5    5    0    0 -0.26090623063E+03 -0.92234032585E+02 -0.82815703867E+03  0.87666085787E+03  0.78172892225E+02 0.  0.
          5    1    3    3  502    0  0.21943370737E+03  0.74401441354E+02  0.25947459198E+03  0.34790211309E+03  0.47000000000E+01 0. -1.
        -11    1    4    4    0    0  0.14994086872E+02 -0.18263394390E+02  0.28388898180E+01  0.23799863679E+02  0.00000000000E+00 0.  1.
         12    1    4    4    0    0  0.20882258929E+02  0.53187171254E+02  0.10672072918E+03  0.12105477256E+03  0.00000000000E+00 0. -1.
         -5    1    5    5    0  501  0.55961774587E+01 -0.17091185634E+02 -0.69926972568E+01  0.19859850036E+02  0.47000000000E+01 0.  1.
         11    1    6    6    0    0 -0.21262916349E+01  0.76761885719E+01 -0.47962812716E+02  0.48619711957E+02  0.00000000000E+00 0. -1.
        -12    1    6    6    0    0 -0.25877993900E+03 -0.99910221157E+02 -0.78019422595E+03  0.82804114592E+03  0.00000000000E+00 0.  1.
</event>
<event>
12    1  0.1081556E+000  0.6776046E+03  0.7818608E-02  0.9756317E-01
          2   -1    0    0  502    0  0.00000000000E+00  0.00000000000E+00  0.20830412816E+04  0.20830412816E+04  0.00000000000E+00 0. -1.
         -2   -1    0    0    0  501 -0.00000000000E+00 -0.00000000000E+00 -0.30191816356E+03  0.30191816356E+03  0.00000000000E+00 0.  1.
          6    2    1    2  502    0  0.47865115724E+03 -0.44742167545E+03  0.27117224524E+03  0.73000468395E+03  0.17343403936E+03 0.  0.
         24    2    3    3    0    0  0.25261057307E+03 -0.16675590376E+03  0.16521999802E+03  0.35435113374E+03  0.81531866012E+02 0.  0.
         -6    2    1    2    0  501 -0.47865115724E+03  0.44742167545E+03  0.15099508729E+04  0.16549547613E+04  0.17213522999E+03 0.  0.
        -24    2    5    5    0    0 -0.24308849571E+03  0.26808029937E+03  0.68937241530E+03  0.78258775611E+03  0.79058240414E+02 0.  0.
          5    1    3    3  502    0  0.22604058417E+03 -0.28066577169E+03  0.10595224722E+03  0.37565355020E+03  0.47000000000E+01 0. -1.
        -11    1    4    4    0    0  0.29463984317E+02 -0.41011611647E+02  0.18166139793E+01  0.50530968209E+02  0.00000000000E+00 0.  1.
         12    1    4    4    0    0  0.22314658875E+03 -0.12574429211E+03  0.16340338404E+03  0.30382016553E+03  0.00000000000E+00 0. -1.
         -5    1    5    5    0  501 -0.23556266153E+03  0.17934137608E+03  0.82057845755E+03  0.87236700515E+03  0.47000000000E+01 0.  1.
         11    1    6    6    0    0 -0.85329715174E+02  0.13981574332E+03  0.36004270323E+03  0.39555069273E+03  0.00000000000E+00 0. -1.
        -12    1    6    6    0    0 -0.15775878053E+03  0.12826455604E+03  0.32932971207E+03  0.38703706338E+03  0.00000000000E+00 0.  1.
</event>
<event>
12    1  0.1081556E+000  0.3951434E+03  0.7818608E-02  0.1045474E+00
         -2   -1    0    0    0  501 -0.00000000000E+00  0.00000000000E+00  0.25333048055E+03  0.25333048055E+03  0.00000000000E+00 0.  1.
          2   -1    0    0  502    0  0.00000000000E+00 -0.00000000000E+00 -0.66713877596E+03  0.66713877596E+03  0.00000000000E+00 0. -1.
          6    2    1    2  502    0 -0.12223327020E+03 -0.33186777727E+03 -0.33396543540E+03  0.51747356925E+03  0.17654684619E+03 0.  0.
         24    2    3    3    0    0 -0.12378923629E+03 -0.26034338902E+03 -0.33101876390E+03  0.44571751015E+03  0.77383600143E+02 0.  0.
         -6    2    1    2    0  501  0.12223327020E+03  0.33186777727E+03 -0.79842860014E+02  0.40299568725E+03  0.17593591934E+03 0.  0.
        -24    2    5    5    0    0  0.86543552205E+02  0.17457383348E+03  0.21218413846E+02  0.21259975295E+03  0.82356688286E+02 0.  0.
          5    1    3    3  502    0  0.15559660906E+01 -0.71524388251E+02 -0.29466714959E+01  0.71756059104E+02  0.47000000000E+01 0. -1.
        -11    1    4    4    0    0 -0.53393915976E+02 -0.12867815725E+03 -0.21693659385E+03  0.25781866529E+03  0.00000000000E+00 0.  1.
         12    1    4    4    0    0 -0.70395320319E+02 -0.13166523176E+03 -0.11408217005E+03  0.18789884486E+03  0.00000000000E+00 0. -1.
         -5    1    5    5    0  501  0.35689718000E+02  0.15729394379E+03 -0.10106127386E+03  0.19039593430E+03  0.47000000000E+01 0.  1.
         13    1    6    6    0    0  0.47438039741E+01  0.82311023242E+02 -0.15614063992E+02  0.83913093244E+02  0.00000000000E+00 0. -1.
        -14    1    6    6    0    0  0.81799748230E+02  0.92262810237E+02  0.36832477838E+02  0.12868665971E+03  0.00000000000E+00 0.  1.
</event>
<event>
12    1  0.1081556E+000  0.1029933E+04  0.7818608E-02  0.9276310E-01
         -1   -1    0    0    0  501 -0.00000000000E+00  0.00000000000E+00  0.13104676437E+04  0.13104676437E+04  0.00000000000E+00 0.  1.
          1   -1    0    0  502    0  0.00000000000E+00 -0.00000000000E+00 -0.82743766449E+03  0.82743766449E+03  0.00000000000E+00 0. -1.
          6    2    1    2  502    0  0.99310041747E+03  0.21264590645E+03  0.83905017088E+02  0.10332705639E+04  0.17070818866E+03 0.  0.
         24    2    3    3    0    0  0.37505130484E+03  0.42925228231E+02 -0.43627800874E+01  0.38627511707E+03  0.81751915785E+02 0.  0.
         -6    2    1    2    0  501 -0.99310041747E+03 -0.21264590645E+03  0.39912496213E+03  0.11046347443E+04  0.17161136949E+03 0.  0.
        -24    2    5    5    0    0 -0.79589940523E+03 -0.12433594035E+03  0.27226334694E+03  0.85402977873E+03  0.79525112818E+02 0.  0.
          5    1    3    3  502    0  0.61804911263E+03  0.16972067822E+03  0.88267797175E+02  0.64699544686E+03  0.47000000000E+01 0. -1.
        -11    1    4    4    0    0  0.32504401453E+03  0.65128481799E+02 -0.54509619202E+01  0.33154945862E+03  0.00000000000E+00 0.  1.
         12    1    4    4    0    0  0.50007290305E+02 -0.22203253568E+02  0.10881818328E+01  0.54725658446E+02  0.00000000000E+00 0. -1.
         -5    1    5    5    0  501 -0.19720101224E+03 -0.88309966108E+02  0.12686161519E+03  0.25060496553E+03  0.47000000000E+01 0.  1.
         11    1    6    6    0    0 -0.49418107037E+03 -0.38085698888E+02  0.16948740312E+03  0.52382385454E+03  0.00000000000E+00 0. -1.
        -12    1    6    6    0    0 -0.30171833486E+03 -0.86250241458E+02  0.10277594381E+03  0.33020592419E+03  0.00000000000E+00 0.  1.
</event>
<event>
12    1  0.1081556E+000  0.1659428E+04  0.7818608E-02  0.8784848E-01
          2   -1    0    0  502    0  0.00000000000E+00  0.00000000000E+00  0.13122273082E+04  0.13122273082E+04  0.00000000000E+00 0. -1.
         -2   -1    0    0    0  501 -0.00000000000E+00 -0.00000000000E+00 -0.21728999052E+04  0.21728999052E+04  0.00000000000E+00 0.  1.
          6    2    1    2  502    0  0.14414534983E+04  0.80445975919E+03 -0.75273146925E+03  0.18219541746E+04  0.16723832519E+03 0.  0.
         24    2    3    3    0    0  0.12258268199E+04  0.66775977163E+03 -0.58074318563E+03  0.15140843795E+04  0.81451552524E+02 0.  0.
         -6    2    1    2    0  501 -0.14414534983E+04 -0.80445975919E+03 -0.10794112778E+03  0.16631730388E+04  0.17189990672E+03 0.  0.
        -24    2    5    5    0    0 -0.55063271049E+03 -0.36483813802E+03 -0.14953004961E+02  0.66542671491E+03  0.79157259604E+02 0.  0.
          5    1    3    3  502    0  0.21562667843E+03  0.13669998755E+03 -0.17198828362E+03  0.30786979513E+03  0.47000000000E+01 0. -1.
        -13    1    4    4    0    0  0.72621295486E+03  0.38516371237E+03 -0.38404567190E+03  0.90731880794E+03  0.00000000000E+00 0.  1.
         14    1    4    4    0    0  0.49961386505E+03  0.28259605926E+03 -0.19669751373E+03  0.60676557151E+03  0.00000000000E+00 0. -1.
         -5    1    5    5    0  501 -0.89082078786E+03 -0.43962162117E+03 -0.92988122819E+02  0.99774632390E+03  0.47000000000E+01 0.  1.
         13    1    6    6    0    0 -0.45483535200E+03 -0.28320686389E+03 -0.39277723261E+02  0.53723743795E+03  0.00000000000E+00 0. -1.
        -14    1    6    6    0    0 -0.95797358486E+02 -0.81631274127E+02  0.24324718301E+02  0.12818927697E+03  0.00000000000E+00 0.  1.
</event>
<event>
12    1  0.1081556E+000  0.4200351E+03  0.7818608E-02  0.1037055E+00
          2   -1    0    0  502    0  0.00000000000E+00  0.00000000000E+00  0.19440575747E+04  0.19440575747E+04  0.00000000000E+00 0. -1.
         -2   -1    0    0    0  501 -0.00000000000E+00 -0.00000000000E+00 -0.11153340937E+03  0.11153340937E+03  0.00000000000E+00 0.  1.
          6    2    1    2  502    0  0.25014893465E+03  0.29052203157E+03  0.47261417395E+03  0.63228875581E+03  0.17160236876E+03 0.  0.
         24    2    3    3    0    0  0.19466581420E+03  0.14209917252E+03  0.34541307514E+03  0.42904030863E+03  0.81721722297E+02 0.  0.
         -6    2    1    2    0  501 -0.25014893465E+03 -0.29052203157E+03  0.13599099914E+04  0.14233022283E+04  0.17162898354E+03 0.  0.
        -24    2    5    5    0    0 -0.20802380334E+03 -0.29355347872E+03  0.11082874587E+04  0.11681165992E+04  0.82144692132E+02 0.  0.
          5    1    3    3  502    0  0.55483120442E+02  0.14842285905E+03  0.12720109881E+03  0.20324844718E+03  0.47000000000E+01 0. -1.
        -13    1    4    4    0    0  0.11464514680E+03  0.84088057146E+02  0.13268362068E+03  0.19447173120E+03  0.00000000000E+00 0.  1.
         14    1    4    4    0    0  0.80020667404E+02  0.58011115373E+02  0.21272945447E+03  0.23456857743E+03  0.00000000000E+00 0. -1.
         -5    1    5    5    0  501 -0.42125131306E+02  0.30314471518E+01  0.25162253268E+03  0.25518562912E+03  0.47000000000E+01 0.  1.
         13    1    6    6    0    0 -0.92145276182E+02 -0.14043553373E+03  0.64722979277E+03  0.66866979572E+03  0.00000000000E+00 0. -1.
        -14    1    6    6    0    0 -0.11587852716E+03 -0.15311794499E+03  0.46105766596E+03  0.49944680345E+03  0.00000000000E+00 0.  1.
</event>
<event>
12    1  0.1081556E+000  0.6184273E+03  0.7818608E-02  0.9867896E-01
          2   -1    0    0  502    0  0.00000000000E+00  0.00000000000E+00  0.32296938454E+04  0.32296938454E+04  0.00000000000E+00 0. -1.
         -2   -1    0    0    0  501 -0.00000000000E+00 -0.00000000000E+00 -0.45234805452E+03  0.45234805452E+03  0.00000000000E+00 0.  1.
          6    2    1    2  502    0 -0.22598776294E+03 -0.55015532011E+03 -0.19351739534E+03  0.64735701869E+03  0.16697539369E+03 0.  0.
         24    2    3    3    0    0 -0.13951494520E+03 -0.40791120332E+03 -0.79752518519E+02  0.44567540285E+03  0.80063292246E+02 0.  0.
         -6    2    1    2    0  501  0.22598776294E+03  0.55015532011E+03  0.29708631862E+04  0.30346848812E+04  0.17188051638E+03 0.  0.
        -24    2    5    5    0    0  0.10607893484E+03  0.41334307400E+03  0.19577579152E+04  0.20053646697E+04  0.81031886580E+02 0.  0.
          5    1    3    3  502    0 -0.86472817740E+02 -0.14224411679E+03 -0.11376487682E+03  0.20168161584E+03  0.47000000000E+01 0. -1.
        -11    1    4    4    0    0 -0.12014164946E+03 -0.23831992553E+03 -0.34706634316E+02  0.26913742457E+03  0.00000000000E+00 0.  1.
         12    1    4    4    0    0 -0.19373295741E+02 -0.16959127779E+03 -0.45045884203E+02  0.17653797828E+03  0.00000000000E+00 0. -1.
         -5    1    5    5    0  501  0.11990882810E+03  0.13681224611E+03  0.10131052709E+04  0.10293202115E+04  0.47000000000E+01 0.  1.
         13    1    6    6    0    0  0.10069253198E+03  0.27272204701E+03  0.12056589331E+04  0.12402135960E+04  0.00000000000E+00 0. -1.
        -14    1    6    6    0    0  0.53864028526E+01  0.14062102699E+03  0.75209898218E+03  0.76515107368E+03  0.00000000000E+00 0.  1.
</event>
<event>
12    1  0.1081556E+000  0.4908837E+03  0.7818608E-02  0.1016186E+00
          2   -1    0    0  502    0  0.00000000000E+00  0.00000000000E+00  0.54955649599E+03  0.54955649599E+03  0.00000000000E+00 0. -1.
         -2   -1    0    0    0  501 -0.00000000000E+00 -0.00000000000E+00 -0.44318556178E+03  0.44318556178E+03  0.00000000000E+00 0.  1.
          6    2    1    2  502    0 -0.45551230580E+03 -0.61301925435E+02  0.19949446203E+01  0.49073389753E+03  0.17194880511E+03 0.  0.
         24    2    3    3    0    0 -0.35320341318E+03 -0.10851735080E+03 -0.15369214583E+01  0.37790229743E+03  0.79240884459E+02 0.  0.
         -6    2    1    2    0  501  0.45551230580E+03  0.61301925435E+02  0.10437598959E+03  0.50200816024E+03  0.17282493727E+03 0.  0.
        -24    2    5    5    0    0  0.41170362696E+03  0.94633514043E+02  0.11506640203E+03  0.44573587524E+03  0.83575206621E+02 0.  0.
          5    1    3    3  502    0 -0.10230889262E+03  0.47215425366E+02  0.35318660786E+01  0.11283160010E+03  0.47000000000E+01 0. -1.
        -11    1    4    4    0    0 -0.22617268683E+03 -0.65080185085E+02  0.36972950484E+02  0.23823625632E+03  0.00000000000E+00 0.  1.
         12    1    4    4    0    0 -0.12703072635E+03 -0.43437165716E+02 -0.38509871942E+02  0.13966604111E+03  0.00000000000E+00 0. -1.
         -5    1    5    5    0  501  0.43808678839E+02 -0.33331588609E+02 -0.10690412445E+02  0.56272284999E+02  0.47000000000E+01 0.  1.
         11    1    6    6    0    0  0.17703835257E+03  0.73053584348E+02  0.79704409589E+02  0.20744203377E+03  0.00000000000E+00 0. -1.
        -12    1    6    6    0    0  0.23466527439E+03  0.21579929696E+02  0.35361992444E+02  0.23829384147E+03  0.00000000000E+00 0.  1.
</event>
<event>
12    1  0.1081556E+000  0.1811520E+03  0.7818608E-02  0.1166693E+00
          2   -1    0    0  502    0  0.00000000000E+00  0.00000000000E+00  0.15867562454E+04  0.15867562454E+04  0.00000000000E+00 0. -1.
         -2   -1    0    0    0  501 -0.00000000000E+00 -0.00000000000E+00 -0.20891364107E+02  0.20891364107E+02  0.00000000000E+00 0.  1.
          6    2    1    2  502    0  0.21083075830E+02 -0.50858539346E+02  0.86615294698E+03  0.88502087536E+03  0.17323375867E+03 0.  0.
         24    2    3    3    0    0  0.57788679236E+02  0.25869991755E+02  0.40517379348E+03  0.41623687524E+03  0.71263914173E+02 0.  0.
         -6    2    1    2    0  501 -0.21083075830E+02  0.50858539346E+02  0.69971193433E+03  0.72262673417E+03  0.17193463519E+03 0.  0.
        -24    2    5    5    0    0 -0.17386957974E+02  0.10103347159E+03  0.51872080597E+03  0.53471435124E+03  0.79612148483E+02 0.  0.
          5    1    3    3  502    0 -0.36705603406E+02 -0.76728531102E+02  0.46097915350E+03  0.46878400012E+03  0.47000000000E+01 0. -1.
        -13    1    4    4    0    0 -0.68963581516E+01 -0.96690368581E+01  0.14942013910E+02  0.19087006292E+02  0.00000000000E+00 0.  1.
         14    1    4    4    0    0  0.64685037388E+02  0.35539028614E+02  0.39023177957E+03  0.39714986895E+03  0.00000000000E+00 0. -1.
         -5    1    5    5    0  501 -0.36961178557E+01 -0.50174932242E+02  0.18099112836E+03  0.18791238293E+03  0.47000000000E+01 0.  1.
         11    1    6    6    0    0 -0.37128038445E+01  0.44189309448E+02  0.74776848892E+02  0.86937087092E+02  0.00000000000E+00 0. -1.
        -12    1    6    6    0    0 -0.13674154130E+02  0.56844162141E+02  0.44394395708E+03  0.44777726415E+03  0.00000000000E+00 0.  1.
</event>
<event>
12    1  0.1081556E+000  0.1251118E+04  0.7818608E-02  0.9069253E-01
          1   -1    0    0  502    0  0.00000000000E+00  0.00000000000E+00  0.23808679519E+04  0.23808679519E+04  0.00000000000E+00 0. -1.
         -1   -1    0    0    0  501 -0.00000000000E+00 -0.00000000000E+00 -0.11171502127E+04  0.11171502127E+04  0.00000000000E+00 0.  1.
          6    2    1    2  502    0  0.38380453239E+03  0.11783437665E+04 -0.49008005339E+03  0.13437244121E+04  0.17209557211E+03 0.  0.
         24    2    3    3    0    0  0.38724558630E+03  0.11802500419E+04 -0.48720828866E+03  0.13369559728E+04  0.84439630841E+02 0.  0.
         -6    2    1    2    0  501 -0.38380453239E+03 -0.11783437665E+04  0.17537977926E+04  0.21542937525E+04  0.17139114179E+03 0.  0.
        -24    2    5    5    0    0 -0.23972769659E+03 -0.79198092055E+03  0.10580985254E+04  0.13455577364E+04  0.79056849441E+02 0.  0.
          5    1    3    3  502    0 -0.34410539152E+01 -0.19062754039E+01 -0.28717647249E+01  0.67684393029E+01  0.47000000000E+01 0. -1.
        -13    1    4    4    0    0  0.12079722512E+03  0.37744250735E+03 -0.11367781390E+03  0.41228322950E+03  0.00000000000E+00 0.  1.
         14    1    4    4    0    0  0.26644836119E+03  0.80280753456E+03 -0.37353047476E+03  0.92467274335E+03  0.00000000000E+00 0. -1.
         -5    1    5    5    0  501 -0.14407683580E+03 -0.38636284595E+03  0.69569926723E+03  0.80873601612E+03  0.47000000000E+01 0.  1.
         13    1    6    6    0    0 -0.41636149896E+02 -0.79051602172E+02  0.87266380306E+02  0.12489253747E+03  0.00000000000E+00 0. -1.
        -14    1    6    6    0    0 -0.19809154670E+03 -0.71292931838E+03  0.97083214508E+03  0.12206651989E+04  0.00000000000E+00 0.  1.
</event>
<event>
12    1  0.1081556E+000  0.5730331E+03  0.7818608E-02  0.9962989E-01
          2   -1    0    0  502    0  0.00000000000E+00  0.00000000000E+00  0.14206579725E+04  0.14206579725E+04  0.00000000000E+00 0. -1.
         -2   -1    0    0    0  501 -0.00000000000E+00 -0.00000000000E+00 -0.23522300051E+03  0.23522300051E+03  0.00000000000E+00 0.  1.
          6    2    1    2  502    0 -0.47928889792E+03 -0.26337661481E+03  0.48340249063E+03  0.74954829556E+03  0.17046873770E+03 0.  0.
         24    2    3    3    0    0 -0.48421772653E+03 -0.23089830972E+03  0.45338638228E+03  0.70480245315E+03  0.58364802870E+02 0.  0.
         -6    2    1    2    0  501  0.47928889792E+03  0.26337661481E+03  0.70203248135E+03  0.90633267744E+03  0.17176794934E+03 0.  0.
        -24    2    5    5    0    0  0.40205658178E+03  0.24150699050E+03  0.50756194422E+03  0.69589505976E+03  0.81704868642E+02 0.  0.
          5    1    3    3  502    0  0.49288286028E+01 -0.32478305089E+02  0.30016108352E+02  0.44745842415E+02  0.47000000000E+01 0. -1.
        -13    1    4    4    0    0 -0.32752666641E+03 -0.12686374633E+03  0.28406184502E+03  0.45172918783E+03  0.00000000000E+00 0.  1.
         14    1    4    4    0    0 -0.15669106011E+03 -0.10403456339E+03  0.16932453726E+03  0.25307326532E+03  0.00000000000E+00 0. -1.
         -5    1    5    5    0  501  0.77232316144E+02  0.21869624306E+02  0.19447053713E+03  0.21043761768E+03  0.47000000000E+01 0.  1.
         11    1    6    6    0    0  0.77354907201E+02  0.16122494388E+02  0.10845520895E+03  0.13418736468E+03  0.00000000000E+00 0. -1.
        -12    1    6    6    0    0  0.32470167458E+03  0.22538449611E+03  0.39910673527E+03  0.56170769507E+03  0.00000000000E+00 0.  1.
</event>
<event>
12    1  0.1081556E+000  0.6562867E+03  0.7818608E-02  0.9795054E-01
         -2   -1    0    0    0  501 -0.00000000000E+00  0.00000000000E+00  0.13744103668E+04  0.13744103668E+04  0.00000000000E+00 0.  1.
          2   -1    0    0  502    0  0.00000000000E+00 -0.00000000000E+00 -0.32255350854E+03  0.32255350854E+03  0.00000000000E+00 0. -1.
          6    2    1    2  502    0 -0.63197633390E+03  0.30893319308E+01  0.66802137757E+03  0.93557347841E+03  0.17216719210E+03 0.  0.
         24    2    3    3    0    0 -0.55066131944E+03 -0.47979601397E+02  0.56468288736E+03  0.79443134761E+03  0.82002877472E+02 0.  0.
         -6    2    1    2    0  501  0.63197633390E+03 -0.30893319308E+01  0.38383548067E+03  0.76139039690E+03  0.18160955286E+03 0.  0.
        -24    2    5    5    0    0  0.51139570355E+03  0.81711770593E+01  0.23225308980E+03  0.56731361133E+03  0.79441186592E+02 0.  0.
          5    1    3    3  502    0 -0.81315014460E+02  0.51068933327E+02  0.10333849021E+03  0.14114213080E+03  0.47000000000E+01 0. -1.
        -13    1    4    4    0    0 -0.25880131921E+03  0.18043187266E+02  0.25358099403E+03  0.36277679083E+03  0.00000000000E+00 0.  1.
         14    1    4    4    0    0 -0.29186000023E+03 -0.66022788663E+02  0.31110189334E+03  0.43165455679E+03  0.00000000000E+00 0. -1.
         -5    1    5    5    0  501  0.12058063035E+03 -0.11260508990E+02  0.15158239087E+03  0.19407678557E+03  0.47000000000E+01 0.  1.
         11    1    6    6    0    0  0.26217535463E+03 -0.28974009435E+02  0.94816234811E+02  0.28029543019E+03  0.00000000000E+00 0. -1.
        -12    1    6    6    0    0  0.24922034892E+03  0.37145186494E+02  0.13743685499E+03  0.28701818114E+03  0.00000000000E+00 0.  1.
</event>
<event>
12    1  0.1081556E+000  0.5324247E+03  0.7818608E-02  0.1005646E+00
         -2   -1    0    0    0  501 -0.00000000000E+00  0.00000000000E+00  0.22163761597E+04  0.22163761597E+04  0.00000000000E+00 0.  1.
          2   -1    0    0  502    0  0.00000000000E+00 -0.00000000000E+00 -0.56520236559E+03  0.56520236559E+03  0.00000000000E+00 0. -1.
          6    2    1    2  502    0  0.16296787187E+03 -0.47715874079E+03  0.20489903681E+04  0.21170750824E+04  0.17148289990E+03 0.  0.
         24    2    3    3    0    0  0.58358706861E+02 -0.36249720603E+03  0.15360904941E+04  0.15811845006E+04  0.75897666827E+02 0.  0.
         -6    2    1    2    0  501 -0.16296787187E+03  0.47715874079E+03 -0.39781657402E+03  0.66450344282E+03  0.17049283794E+03 0.  0.
        -24    2    5    5    0    0 -0.11925573667E+03  0.45842514763E+03 -0.33733372044E+03  0.58741930793E+03  0.83017213102E+02 0.  0.
          5    1    3    3  502    0  0.10460916500E+03 -0.11466153476E+03  0.51289987398E+03  0.53589058182E+03  0.47000000000E+01 0. -1.
        -11    1    4    4    0    0  0.52517415255E+02 -0.11056533496E+03  0.54212703695E+03  0.55577378167E+03  0.00000000000E+00 0.  1.
         12    1    4    4    0    0  0.58412916053E+01 -0.25193187107E+03  0.99396345717E+03  0.10254107189E+04  0.00000000000E+00 0. -1.
         -5    1    5    5    0  501 -0.43712135199E+02  0.18733593163E+02 -0.60482853577E+02  0.77084134900E+02  0.47000000000E+01 0.  1.
         11    1    6    6    0    0 -0.11881501324E+03  0.37489154653E+03 -0.30564549769E+03  0.49807614808E+03  0.00000000000E+00 0. -1.
        -12    1    6    6    0    0 -0.44072342424E+00  0.83533601096E+02 -0.31688222753E+02  0.89343159842E+02  0.00000000000E+00 0.  1.
</event>
<event>
12    1  0.1081556E+000  0.2819766E+03  0.7818608E-02  0.1094614E+00
          4   -1    0    0  502    0  0.00000000000E+00  0.00000000000E+00  0.83995341480E+02  0.83995341480E+02  0.00000000000E+00 0. -1.
         -4   -1    0    0    0  501 -0.00000000000E+00 -0.00000000000E+00 -0.16083292345E+04  0.16083292345E+04  0.00000000000E+00 0.  1.
          6    2    1    2  502    0  0.12095949490E+03  0.19059829383E+03 -0.13026015943E+04  0.13324671945E+04  0.16655029884E+03 0.  0.
         24    2    3    3    0    0  0.32208846394E+02  0.16840398181E+03 -0.88670398537E+03  0.90660081149E+03  0.79270188953E+02 0.  0.
         -6    2    1    2    0  501 -0.12095949490E+03 -0.19059829383E+03 -0.22173229875E+03  0.35985738147E+03  0.17138615367E+03 0.  0.
        -24    2    5    5    0    0 -0.59887405540E+02 -0.19393489490E+03 -0.14199160251E+03  0.25925121047E+03  0.76500523829E+02 0.  0.
          5    1    3    3  502    0  0.88750648508E+02  0.22194312014E+02 -0.41589760889E+03  0.42586638301E+03  0.47000000000E+01 0. -1.
        -11    1    4    4    0    0 -0.15170271537E+02  0.21945602831E+01 -0.97185304870E+02  0.98386669402E+02  0.00000000000E+00 0.  1.
         12    1    4    4    0    0  0.47379117932E+02  0.16620942153E+03 -0.78951868050E+03  0.80821414209E+03  0.00000000000E+00 0. -1.
         -5    1    5    5    0  501 -0.61072089362E+02  0.33366010681E+01 -0.79740696243E+02  0.10060617100E+03  0.47000000000E+01 0.  1.
         13    1    6    6    0    0  0.22634546013E+00 -0.11304406303E+03 -0.53209948335E+02  0.12494122626E+03  0.00000000000E+00 0. -1.
        -14    1    6    6    0    0 -0.60113751000E+02 -0.80890831865E+02 -0.88781654173E+02  0.13430998420E+03  0.00000000000E+00 0.  1.
</event>
<event>
12    1  0.1081556E+000  0.5502939E+03  0.7818608E-02  0.1001426E+00
          1   -1    0    0  502    0  0.00000000000E+00  0.00000000000E+00  0.43839534862E+03  0.43839534862E+03  0.00000000000E+00 0. -1.
         -1   -1    0    0    0  501 -0.00000000000E+00 -0.00000000000E+00 -0.14317936553E+04  0.14317936553E+04  0.00000000000E+00 0.  1.
          6    2    1    2  502    0  0.18453722904E+03 -0.49027407443E+03 -0.11696322045E+04  0.12928249649E+04  0.17010067387E+03 0.  0.
         24    2    3    3    0    0  0.78415942057E+02 -0.37411600325E+03 -0.88420672127E+03  0.96687370858E+03  0.83134821584E+02 0.  0.
         -6    2    1    2    0  501 -0.18453722904E+03  0.49027407443E+03  0.17623389779E+03  0.57736403899E+03  0.16693768246E+03 0.  0.
        -24    2    5    5    0    0 -0.10873786451E+03  0.27651977339E+03  0.32843839395E+02  0.30900002552E+03  0.78199678591E+02 0.  0.
          5    1    3    3  502    0  0.10612128699E+03 -0.11615807118E+03 -0.28542548319E+03  0.32595125634E+03  0.47000000000E+01 0. -1.
        -11    1    4    4    0    0  0.80431768750E-01 -0.10859961012E+03 -0.18020313405E+03  0.21039736526E+03  0.00000000000E+00 0.  1.
         12    1    4    4    0    0  0.78335510288E+02 -0.26551639313E+03 -0.70400358721E+03  0.75647634332E+03  0.00000000000E+00 0. -1.
         -5    1    5    5    0  501 -0.75799364536E+02  0.21375430104E+03  0.14339005840E+03  0.26836401346E+03  0.47000000000E+01 0.  1.
         11    1    6    6    0    0 -0.67826423425E+02  0.94014392698E+02  0.37697085474E+02  0.12190242000E+03  0.00000000000E+00 0. -1.
        -12    1    6    6    0    0 -0.40911441081E+02  0.18250538070E+03 -0.48532460788E+01  0.18709760552E+03  0.00000000000E+00 0.  1.
</event>
<event>
12    1  0.1081556E+000  0.1233881E+04  0.7818608E-02  0.9083707E-01
          2   -1    0    0  502    0  0.00000000000E+00  0.00000000000E+00  0.20055542702E+04  0.20055542702E+04  0.00000000000E+00 0. -1.
         -2   -1    0    0    0  501 -0.00000000000E+00 -0.00000000000E+00 -0.18581371348E+04  0.18581371348E+04  0.00000000000E+00 0.  1.
          6    2    1    2  502    0 -0.10689972862E+04  0.58999457075E+03 -0.14119882857E+04  0.18755995538E+04  0.18252116525E+03 0.  0.
         24    2    3    3    0    0 -0.58678252932E+03  0.40745957518E+03 -0.82674952768E+03  0.10956145602E+04  0.80743054377E+02 0.  0.
         -6    2    1    2    0  501  0.10689972862E+04 -0.58999457075E+03  0.15594054211E+04  0.19880918512E+04  0.17295996716E+03 0.  0.
        -24    2    5    5    0    0  0.29392245128E+03 -0.20367525276E+03  0.43224864592E+03  0.56665310793E+03  0.79892658458E+02 0.  0.
          5    1    3    3  502    0 -0.48221475685E+03  0.18253499558E+03 -0.58523875800E+03  0.77998499357E+03  0.47000000000E+01 0. -1.
        -13    1    4    4    0    0 -0.21839590695E+03  0.11083547164E+03 -0.31054648653E+03  0.39550018235E+03  0.00000000000E+00 0.  1.
         14    1    4    4    0    0 -0.36838662237E+03  0.29662410353E+03 -0.51620304116E+03  0.70011437783E+03  0.00000000000E+00 0. -1.
         -5    1    5    5    0  501  0.77507483489E+03 -0.38631931799E+03  0.11271567751E+04  0.14214387433E+04  0.47000000000E+01 0.  1.
         11    1    6    6    0    0  0.27985231021E+03 -0.18934205191E+03  0.36917016297E+03  0.50045413114E+03  0.00000000000E+00 0. -1.
        -12    1    6    6    0    0  0.14070141068E+02 -0.14333200850E+02  0.63078482953E+02  0.66198976789E+02  0.00000000000E+00 0.  1.
</event>
<event>
12    1  0.1081556E+000  0.3081197E+03  0.7818608E-02  0.1081251E+00
          2   -1    0    0  502    0  0.00000000000E+00  0.00000000000E+00  0.58282387781E+03  0.58282387781E+03  0.00000000000E+00 0. -1.
         -2   -1    0    0    0  501 -0.00000000000E+00 -0.00000000000E+00 -0.39848578922E+03  0.39848578922E+03  0.00000000000E+00 0.  1.
          6    2    1    2  502    0  0.18893643092E+03 -0.17225377765E+03 -0.28511968772E+03  0.41967928410E+03  0.17166574013E+03 0.  0.
         24    2    3    3    0    0  0.11238055548E+03 -0.18485862449E+03 -0.20999734967E+03  0.31158145849E+03  0.78625810688E+02 0.  0.
         -6    2    1    2    0  501 -0.18893643092E+03  0.17225377765E+03  0.46945777631E+03  0.56163038293E+03  0.17224907678E+03 0.  0.
        -24    2    5    5    0    0 -0.15785338034E+03  0.73556693069E+02  0.22029412165E+03  0.29179360386E+03  0.79282598596E+02 0.  0.
          5    1    3    3  502    0  0.76555875445E+02  0.12604846841E+02 -0.75122338050E+02  0.10809782562E+03  0.47000000000E+01 0. -1.
        -13    1    4    4    0    0  0.10388647122E+03 -0.98019012885E+02 -0.12588825707E+03  0.19038902032E+03  0.00000000000E+00 0.  1.
         14    1    4    4    0    0  0.84940842570E+01 -0.86839611607E+02 -0.84109092600E+02  0.12119243817E+03  0.00000000000E+00 0. -1.
         -5    1    5    5    0  501 -0.31083050583E+02  0.98697084583E+02  0.24916365466E+03  0.26983677907E+03  0.47000000000E+01 0.  1.
         13    1    6    6    0    0 -0.11623873850E+03  0.89328497765E+02  0.17510330006E+03  0.22836854103E+03  0.00000000000E+00 0. -1.
        -14    1    6    6    0    0 -0.41614641840E+02 -0.15771804696E+02  0.45190821590E+02  0.63425062829E+02  0.00000000000E+00 0.  1.
</event>
<event>
12    1  0.1081556E+000  0.8548763E+03  0.7818608E-02  0.9483815E-01
         -1   -1    0    0    0  501 -0.00000000000E+00  0.00000000000E+00  0.55893656463E+03  0.55893656463E+03  0.00000000000E+00 0.  1.
          1   -1    0    0  502    0  0.00000000000E+00 -0.00000000000E+00 -0.13077303870E+04  0.13077303870E+04  0.00000000000E+00 0. -1.
          6    2    1    2  502    0 -0.60599856805E+03 -0.57758128209E+03 -0.36210249011E+03  0.92819115124E+03  0.17200638938E+03 0.  0.
         24    2    3    3    0    0 -0.59835734679E+03 -0.54303552906E+03 -0.36896506753E+03  0.89184583127E+03  0.79590611358E+02 0.  0.
         -6    2    1    2    0  501  0.60599856805E+03  0.57758128209E+03 -0.38669133225E+03  0.93847580038E+03  0.17427633103E+03 0.  0.
        -24    2    5    5    0    0  0.22372936053E+03  0.25947285806E+03 -0.21625796715E+03  0.41274550983E+03  0.78805816395E+02 0.  0.
          5    1    3    3  502    0 -0.76412212638E+01 -0.34545753036E+02  0.68625774145E+01  0.36345319974E+02  0.47000000000E+01 0. -1.
        -11    1    4    4    0    0 -0.45769351352E+03 -0.41604214557E+03 -0.24438313200E+03  0.66505453492E+03  0.00000000000E+00 0.  1.
         12    1    4    4    0    0 -0.14066383327E+03 -0.12699338348E+03 -0.12458193553E+03  0.22679129634E+03  0.00000000000E+00 0. -1.
         -5    1    5    5    0  501  0.38226920753E+03  0.31810842403E+03 -0.17043336510E+03  0.52573029055E+03  0.47000000000E+01 0.  1.
         13    1    6    6    0    0  0.19226230640E+03  0.25550134309E+03 -0.19922764586E+03  0.37674578386E+03  0.00000000000E+00 0. -1.
        -14    1    6    6    0    0  0.31467054128E+02  0.39715149713E+01 -0.17030321292E+02  0.35999725970E+02  0.00000000000E+00 0.  1.
</event>
<event>
12    1  0.1081556E+000  0.2812074E+03  0.7818608E-02  0.1095031E+00
          2   -1    0    0  502    0  0.00000000000E+00  0.00000000000E+00  0.36737676664E+04  0.36737676664E+04  0.00000000000E+00 0. -1.
         -2   -1    0    0    0  501 -0.00000000000E+00 -0.00000000000E+00 -0.22453260516E+02  0.22453260516E+02  0.00000000000E+00 0.  1.
          6    2    1    2  502    0  0.21874260549E+03 -0.32761060563E+02  0.21951552513E+04  0.22129670572E+04  0.17203198658E+03 0.  0.
         24    2    3    3    0    0  0.18542800471E+03  0.32429310048E+00  0.11317009049E+04  0.11484663573E+04  0.62003109307E+02 0.  0.
         -6    2    1    2    0  501 -0.21874260549E+03  0.32761060563E+02  0.14561591546E+04  0.14832538697E+04  0.17527391132E+03 0.  0.
        -24    2    5    5    0    0 -0.15308668064E+03  0.81094913837E+02  0.81344854560E+03  0.83537588835E+03  0.78373603007E+02 0.  0.
          5    1    3    3  502    0  0.33314600779E+02 -0.33085353664E+02  0.10634543463E+04  0.10645006998E+04  0.47000000000E+01 0. -1.
        -13    1    4    4    0    0  0.15096042180E+03  0.22179697289E+02  0.81650496744E+03  0.83063912126E+03  0.00000000000E+00 0.  1.
         14    1    4    4    0    0  0.34467582917E+02 -0.21855404188E+02  0.31519593750E+03  0.31782723606E+03  0.00000000000E+00 0. -1.
         -5    1    5    5    0  501 -0.65655924853E+02 -0.48333853274E+02  0.64271060897E+03  0.64787798135E+03  0.47000000000E+01 0.  1.
         11    1    6    6    0    0  0.64844008827E+01 -0.11428956274E+00  0.84951732832E+02  0.85198928562E+02  0.00000000000E+00 0. -1.
        -12    1    6    6    0    0 -0.15957108152E+03  0.81209203400E+02  0.72849681277E+03  0.75017695979E+03  0.00000000000E+00 0.  1.
</event>
<event>
12    1  0.1081556E+000  0.9690632E+03  0.7818608E-02  0.9343142E-01
         -1   -1    0    0    0  501 -0.00000000000E+00  0.00000000000E+00  0.14746143749E+04  0.14746143749E+04  0.00000000000E+00 0.  1.
          1   -1    0    0  502    0  0.00000000000E+00 -0.00000000000E+00 -0.63773284933E+03  0.63773284933E+03  0.00000000000E+00 0. -1.
          6    2    1    2  502    0  0.94894150457E+03  0.93810733254E+02  0.37879494110E+03  0.10405136002E+04  0.17289451103E+03 0.  0.
         24    2    3    3    0    0  0.27802695996E+03  0.15302832337E+02  0.71278248447E+02  0.29830175511E+03  0.79813415261E+02 0.  0.
         -6    2    1    2    0  501 -0.94894150457E+03 -0.93810733254E+02  0.45808658451E+03  0.10718336241E+04  0.17231821175E+03 0.  0.
        -24    2    5    5    0    0 -0.87579903158E+03 -0.47171748198E+02  0.43336712641E+03  0.98151110261E+03  0.79422041949E+02 0.  0.
          5    1    3    3  502    0  0.67091454461E+03  0.78507900917E+02  0.30751669266E+03  0.74221184505E+03  0.47000000000E+01 0. -1.
        -13    1    4    4    0    0  0.21223062392E+03  0.42762466378E+02  0.38754020310E+02  0.21993712818E+03  0.00000000000E+00 0.  1.
         14    1    4    4    0    0  0.65796336041E+02 -0.27459634041E+02  0.32524228136E+02  0.78364626930E+02  0.00000000000E+00 0. -1.
         -5    1    5    5    0  501 -0.73142472993E+02 -0.46638985056E+02  0.24719458103E+02  0.90322521507E+02  0.47000000000E+01 0.  1.
         11    1    6    6    0    0 -0.32504826996E+03  0.10369234286E+02  0.18995263977E+03  0.37662435420E+03  0.00000000000E+00 0. -1.
        -12    1    6    6    0    0 -0.55075076162E+03 -0.57540982484E+02  0.24341448664E+03  0.60488674841E+03  0.00000000000E+00 0.  1.
</event>
<event>
12    1  0.1081556E+000  0.5312065E+03  0.7818608E-02  0.1005940E+00
          2   -1    0    0  502    0  0.00000000000E+00  0.00000000000E+00  0.15772450911E+04  0.15772450911E+04  0.00000000000E+00 0. -1.
         -2   -1    0    0    0  501 -0.00000000000E+00 -0.00000000000E+00 -0.58196379463E+03  0.58196379463E+03  0.00000000000E+00 0.  1.
          6    2    1    2  502    0 -0.20632085859E+03  0.45799459468E+03 -0.40082133826E+03  0.66546105494E+03  0.17278114766E+03 0.  0.
         24    2    3    3    0    0 -0.15945898597E+03  0.42466754917E+03 -0.30334385847E+03  0.55218848044E+03  0.84409276337E+02 0.  0.
         -6    2    1    2    0  501  0.20632085859E+03 -0.45799459468E+03  0.13961026347E+04  0.14937478308E+04  0.17277925183E+03 0.  0.
        -24    2    5    5    0    0  0.10253806546E+03 -0.21451291715E+03  0.85941010792E+03  0.89532059731E+03  0.80519512441E+02 0.  0.
          5    1    3    3  502    0 -0.46861872624E+02  0.33327045513E+02 -0.97477479788E+02  0.11327257450E+03  0.47000000000E+01 0. -1.
        -11    1    4    4    0    0 -0.10358496458E+03  0.21526103237E+03 -0.11532987730E+03  0.26526993336E+03  0.00000000000E+00 0.  1.
         12    1    4    4    0    0 -0.55874021389E+02  0.20940651680E+03 -0.18801398117E+03  0.28691854708E+03  0.00000000000E+00 0. -1.
         -5    1    5    5    0  501  0.10378279314E+03 -0.24348167753E+03  0.53669252682E+03  0.59842723350E+03  0.47000000000E+01 0.  1.
         11    1    6    6    0    0  0.12357749757E+02 -0.90492197857E+02  0.42319984927E+03  0.43294302659E+03  0.00000000000E+00 0. -1.
        -12    1    6    6    0    0  0.90180315699E+02 -0.12402071930E+03  0.43621025865E+03  0.46237757073E+03  0.00000000000E+00 0.  1.
</event>
<event>
12    1  0.1081556E+000  0.2133947E+03  0.7818608E-02  0.1138906E+00
         -3   -1    0    0    0  501 -0.00000000000E+00  0.00000000000E+00  0.26851724972E+03  0.26851724972E+03  0.00000000000E+00 0.  1.
          3   -1    0    0  502    0  0.00000000000E+00 -0.00000000000E+00 -0.46309872405E+03  0.46309872405E+03  0.00000000000E+00 0. -1.
          6    2    1    2  502    0 -0.10035025698E+03  0.75071309787E+02  0.19397488725E+03  0.28819936718E+03  0.17241445046E+03 0.  0.
         24    2    3    3    0    0 -0.12515893586E+03  0.33858196243E+02  0.18438772695E+03  0.23892467876E+03  0.79215096993E+02 0.  0.
         -6    2    1    2    0  501  0.10035025698E+03 -0.75071309787E+02 -0.38855636158E+03  0.44341660660E+03  0.17302128554E+03 0.  0.
        -24    2    5    5    0    0  0.11006780323E+03 -0.10841420525E+03 -0.36207989156E+03  0.39949311803E+03  0.68002516651E+02 0.  0.
          5    1    3    3  502    0  0.24808678884E+02  0.41213113544E+02  0.95871602987E+01  0.49274688417E+02  0.47000000000E+01 0. -1.
        -13    1    4    4    0    0 -0.26636527005E+02  0.45372819962E+02  0.59169385532E+02  0.79178365394E+02  0.00000000000E+00 0.  1.
         14    1    4    4    0    0 -0.98522408858E+02 -0.11514623719E+02  0.12521834142E+03  0.15974631337E+03  0.00000000000E+00 0. -1.
         -5    1    5    5    0  501 -0.97175462547E+01  0.33342895462E+02 -0.26476470020E+02  0.43923488565E+02  0.47000000000E+01 0.  1.
         11    1    6    6    0    0  0.87667326860E+00 -0.22755940452E+02 -0.10401318179E+03  0.10647696168E+03  0.00000000000E+00 0. -1.
        -12    1    6    6    0    0  0.10919112997E+03 -0.85658264797E+02 -0.25806670977E+03  0.29301615636E+03  0.00000000000E+00 0.  1.
</event>
<event>
12    1  0.1081556E+000  0.4157041E+03  0.7818608E-02  0.1038474E+00
         -1   -1    0    0    0  501 -0.00000000000E+00  0.00000000000E+00  0.36992612030E+03  0.36992612030E+03  0.00000000000E+00 0.  1.
          1   -1    0    0  502    0  0.00000000000E+00 -0.00000000000E+00 -0.15778173304E+04  0.15778173304E+04  0.00000000000E+00 0. -1.
          6    2    1    2  502    0 -0.27880812460E+03  0.25629871055E+03  0.21303309986E+03  0.46732615274E+03  0.17201055788E+03 0.  0.
         24    2    3    3    0    0 -0.20984717379E+03  0.23054635971E+03  0.21905962917E+03  0.39331800882E+03  0.97593414786E+02 0.  0.
         -6    2    1    2    0  501  0.27880812460E+03 -0.25629871055E+03 -0.14209243099E+04  0.14804172980E+04  0.17084051661E+03 0.  0.
        -24    2    5    5    0    0  0.18797396643E+03 -0.14853797040E+03 -0.65467692411E+03  0.70130217956E+03  0.76322548376E+02 0.  0.
          5    1    3    3  502    0 -0.68960950805E+02  0.25752350838E+02 -0.60265293077E+01  0.74008143910E+02  0.47000000000E+01 0. -1.
        -13    1    4    4    0    0 -0.15336451757E+03  0.19451984029E+03  0.12396540972E+03  0.27699470450E+03  0.00000000000E+00 0.  1.
         14    1    4    4    0    0 -0.56482656226E+02  0.36026519421E+02  0.95094219449E+02  0.11632330432E+03  0.00000000000E+00 0. -1.
         -5    1    5    5    0  501  0.90834158168E+02 -0.10776074015E+03 -0.76624738583E+03  0.77911511839E+03  0.47000000000E+01 0.  1.
         13    1    6    6    0    0  0.43789363229E+02 -0.43696333674E+02 -0.27476384458E+03  0.28164170181E+03  0.00000000000E+00 0. -1.
        -14    1    6    6    0    0  0.14418460320E+03 -0.10484163673E+03 -0.37991307953E+03  0.41966047776E+03  0.00000000000E+00 0.  1.
</event>
<event>
12    1  0.1081556E+000  0.2246644E+03  0.7818608E-02  0.1130453E+00
         -2   -1    0    0    0  501 -0.00000000000E+00  0.00000000000E+00  0.10976532462E+03  0.10976532462E+03  0.00000000000E+00 0.  1.
          2   -1    0    0  502    0  0.00000000000E+00 -0.00000000000E+00 -0.57634312346E+03  0.57634312346E+03  0.00000000000E+00 0. -1.
          6    2    1    2  502    0  0.91099819736E+02  0.11450659588E+03 -0.78232164921E+02  0.23695910768E+03  0.16916976510E+03 0.  0.
         24    2    3    3    0    0  0.64593913922E+02  0.14858680180E+03 -0.60297756955E+02  0.18997233861E+03  0.78760767888E+02 0.  0.
         -6    2    1    2    0  501 -0.91099819736E+02 -0.11450659588E+03 -0.38834563392E+03  0.44914934040E+03  0.17179016544E+03 0.  0.
        -24    2    5    5    0    0 -0.10857114360E+03 -0.34289009248E+02 -0.19224996602E+03  0.23650948212E+03  0.77545188881E+02 0.  0.
          5    1    3    3  502    0  0.26505905813E+02 -0.34080205915E+02 -0.17934407965E+02  0.46986769066E+02  0.47000000000E+01 0. -1.
        -11    1    4    4    0    0  0.18256555159E+02  0.62987908768E+02  0.14563195594E+02  0.67177861853E+02  0.00000000000E+00 0.  1.
         12    1    4    4    0    0  0.46337358764E+02  0.85598893030E+02 -0.74860952549E+02  0.12279447676E+03  0.00000000000E+00 0. -1.
         -5    1    5    5    0  501  0.17471323861E+02 -0.80217586635E+02 -0.19609566790E+03  0.21263985828E+03  0.47000000000E+01 0.  1.
         13    1    6    6    0    0 -0.43030112676E+02  0.86525005588E+01 -0.12756151606E+03  0.13490143343E+03  0.00000000000E+00 0. -1.
        -14    1    6    6    0    0 -0.65541030921E+02 -0.42941509807E+02 -0.64688449960E+02  0.10160804868E+03  0.00000000000E+00 0.  1.
</event>
<event>
12    1  0.1081556E+000  0.4575905E+03  0.7818608E-02  0.1025482E+00
          1   -1    0    0  502    0  0.00000000000E+00  0.00000000000E+00  0.30982520035E+03  0.30982520035E+03  0.00000000000E+00 0. -1.
         -1   -1    0    0    0  501 -0.00000000000E+00 -0.00000000000E+00 -0.89385738370E+03  0.89385738370E+03  0.00000000000E+00 0.  1.
          6    2    1    2  502    0 -0.24963846638E+03 -0.34715807529E+03 -0.59026476157E+03  0.74816545090E+03  0.16882227349E+03 0.  0.
         24    2    3    3    0    0 -0.20612371989E+03 -0.20999853623E+03 -0.47339242365E+03  0.56272676645E+03  0.77295884707E+02 0.  0.
         -6    2    1    2    0  501  0.24963846638E+03  0.34715807529E+03  0.62325782190E+01  0.45551713315E+03  0.15690417593E+03 0.  0.
        -24    2    5    5    0    0  0.13405864227E+03  0.16715006197E+03  0.57260725565E+02  0.23554544764E+03  0.79322155990E+02 0.  0.
          5    1    3    3  502    0 -0.43514746496E+02 -0.13715953906E+03 -0.11687233792E+03  0.18543868445E+03  0.47000000000E+01 0. -1.
        -13    1    4    4    0    0 -0.19513510387E+03 -0.20281667066E+03 -0.47197848377E+03  0.54952342971E+03  0.00000000000E+00 0.  1.
         14    1    4    4    0    0 -0.10988616022E+02 -0.71818655686E+01 -0.14139398808E+01  0.13203336742E+02  0.00000000000E+00 0. -1.
         -5    1    5    5    0  501  0.11557982412E+03  0.18000801333E+03 -0.51028147346E+02  0.21997168551E+03  0.47000000000E+01 0.  1.
         11    1    6    6    0    0  0.10544244353E+03  0.12009302638E+03  0.54132517508E+01  0.15990543198E+03  0.00000000000E+00 0. -1.
        -12    1    6    6    0    0  0.28616198740E+02  0.47057035585E+02  0.51847473814E+02  0.75640015661E+02  0.00000000000E+00 0.  1.
</event>
<event>
12    1  0.1081556E+000  0.4900607E+03  0.7818608E-02  0.1016406E+00
         -2   -1    0    0    0  501 -0.00000000000E+00  0.00000000000E+00  0.11730925965E+03  0.11730925965E+03  0.00000000000E+00 0.  1.
          2   -1    0    0  502    0  0.00000000000E+00 -0.00000000000E+00 -0.20474686483E+04  0.20474686483E+04  0.00000000000E+00 0. -1.
          6    2    1    2  502    0 -0.45766835162E+03  0.29574197499E+02 -0.97689256808E+03  0.10929721211E+04  0.17301449273E+03 0.  0.
         24    2    3    3    0    0 -0.22906565953E+03 -0.28553295295E+02 -0.38175785906E+03  0.45278042470E+03  0.77360732901E+02 0.  0.
         -6    2    1    2    0  501  0.45766835162E+03 -0.29574197499E+02 -0.95326682059E+03  0.10718057869E+04  0.17238056821E+03 0.  0.
        -24    2    5    5    0    0  0.46743338818E+03 -0.18620264041E+02 -0.91749119443E+03  0.10328528663E+04  0.78449122682E+02 0.  0.
          5    1    3    3  502    0 -0.22860269209E+03  0.58127492794E+02 -0.59513470903E+03  0.64019169640E+03  0.47000000000E+01 0. -1.
        -11    1    4    4    0    0 -0.11110467944E+03 -0.31499204202E+02 -0.25312476456E+03  0.27822400344E+03  0.00000000000E+00 0.  1.
         12    1    4    4    0    0 -0.11796098009E+03  0.29459089070E+01 -0.12863309450E+03  0.17455642126E+03  0.00000000000E+00 0. -1.
         -5    1    5    5    0  501 -0.97650365654E+01 -0.10953933458E+02 -0.35775626166E+02  0.38952920621E+02  0.47000000000E+01 0.  1.
         13    1    6    6    0    0  0.20901110149E+03  0.30525712561E+02 -0.40089238561E+03  0.45313592279E+03  0.00000000000E+00 0. -1.
        -14    1    6    6    0    0  0.25842228669E+03 -0.49145976602E+02 -0.51659880881E+03  0.57971694347E+03  0.00000000000E+00 0.  1.
</event>
<event>
12    1  0.1081556E+000  0.6601034E+03  0.7818608E-02  0.9788003E-01
          2   -1    0    0  502    0  0.00000000000E+00  0.00000000000E+00  0.29731493046E+04  0.29731493046E+04  0.00000000000E+00 0. -1.
         -2   -1    0    0    0  501 -0.00000000000E+00 -0.00000000000E+00 -0.21458047293E+04  0.21458047293E+04  0.00000000000E+00 0.  1.
          6    2    1    2  502    0 -0.62761928988E+02 -0.63430981417E+03 -0.20568543093E+04  0.21601772134E+04  0.17154574796E+03 0.  0.
         24    2    3    3    0    0 -0.12664612372E+02 -0.49980316768E+03 -0.17426385845E+04  0.18146987180E+04  0.79866151449E+02 0.  0.
         -6    2    1    2    0  501  0.62761928988E+02  0.63430981417E+03  0.28841988846E+04  0.29587768205E+04  0.17166556763E+03 0.  0.
        -24    2    5    5    0    0  0.34101323147E+02  0.59092625201E+03  0.24652019022E+04  0.25365397720E+04  0.80354594540E+02 0.  0.
          5    1    3    3  502    0 -0.50097316615E+02 -0.13450664649E+03 -0.31421572484E+03  0.34547849545E+03  0.47000000000E+01 0. -1.
        -13    1    4    4    0    0 -0.39606279569E+02 -0.35684556278E+03 -0.11684021991E+04  0.12223220165E+04  0.00000000000E+00 0.  1.
         14    1    4    4    0    0  0.26941667197E+02 -0.14295760490E+03 -0.57423638536E+03  0.59237670152E+03  0.00000000000E+00 0. -1.
         -5    1    5    5    0  501  0.28660605840E+02  0.43383562166E+02  0.41899698242E+03  0.42223704844E+03  0.47000000000E+01 0.  1.
         13    1    6    6    0    0  0.42188245359E+00  0.47675886543E+03  0.20419342371E+04  0.20968535052E+04  0.00000000000E+00 0. -1.
        -14    1    6    6    0    0  0.33679440694E+02  0.11416738657E+03  0.42326766514E+03  0.43968626683E+03  0.00000000000E+00 0.  1.
</event>
<event>
12    1  0.1081556E+000  0.2294487E+03  0.7818608E-02  0.1127028E+00
          1   -1    0    0  502    0  0.00000000000E+00  0.00000000000E+00  0.16109512138E+04  0.16109512138E+04  0.00000000000E+00 0. -1.
         -1   -1    0    0    0  501 -0.00000000000E+00 -0.00000000000E+00 -0.19546049970E+03  0.19546049970E+03  0.00000000000E+00 0.  1.
          6    2    1    2  502    0  0.10322176766E+03 -0.11283304232E+03 -0.11581818326E+03  0.25820216846E+03  0.17282499664E+03 0.  0.
         24    2    3    3    0    0  0.97419944326E+02 -0.14782325213E+03 -0.10014574711E+03  0.21914207128E+03  0.81558061008E+02 0.  0.
         -6    2    1    2    0  501 -0.10322176766E+03  0.11283304232E+03  0.15313088973E+04  0.15482095450E+04  0.16929213644E+03 0.  0.
        -24    2    5    5    0    0 -0.22285592619E+02 -0.47852226868E+00  0.75711664398E+03  0.76158008316E+03  0.79257389913E+02 0.  0.
          5    1    3    3  502    0  0.58018233318E+01  0.34990209815E+02 -0.15672436151E+02  0.39060097181E+02  0.47000000000E+01 0. -1.
        -13    1    4    4    0    0  0.20608435285E+02 -0.55149966455E+02  0.53093249858E+01  0.59113579969E+02  0.00000000000E+00 0.  1.
         14    1    4    4    0    0  0.76811509041E+02 -0.92673285677E+02 -0.10545507210E+03  0.16002849131E+03  0.00000000000E+00 0. -1.
         -5    1    5    5    0  501 -0.80936175039E+02  0.11331156459E+03  0.77419225333E+03  0.78662946183E+03  0.47000000000E+01 0.  1.
         13    1    6    6    0    0 -0.48398494750E+02 -0.16112423248E+02  0.52611850892E+03  0.52858557482E+03  0.00000000000E+00 0. -1.
        -14    1    6    6    0    0  0.26112902131E+02  0.15633900980E+02  0.23099813506E+03  0.23299450835E+03  0.00000000000E+00 0.  1.
</event>
<event>
12    1  0.1081556E+000  0.4204051E+03  0.7818608E-02  0.1036935E+00
         -2   -1    0    0    0  501 -0.00000000000E+00  0.00000000000E+00  0.79026059446E+03  0.79026059446E+03  0.00000000000E+00 0.  1.
          2   -1    0    0  502    0  0.00000000000E+00 -0.00000000000E+00 -0.71119808181E+03  0.71119808181E+03  0.00000000000E+00 0. -1.
          6    2    1    2  502    0  0.38366682382E+03 -0.14987674902E+01  0.66111631415E+03  0.78354213497E+03  0.17222374527E+03 0.  0.
         24    2    3    3    0    0  0.21545449032E+03  0.64205679900E+02  0.34443638596E+03  0.41895918081E+03  0.79670348806E+02 0.  0.
         -6    2    1    2    0  501 -0.38366682382E+03  0.14987674902E+01 -0.58205380151E+03  0.71791654130E+03  0.17150817597E+03 0.  0.
        -24    2    5    5    0    0 -0.11160191443E+03  0.39053982044E+02 -0.22336820027E+03  0.26613433759E+03  0.83390238832E+02 0.  0.
          5    1    3    3  502    0  0.16821233350E+03 -0.65704447391E+02  0.31667992819E+03  0.36458295416E+03  0.47000000000E+01 0. -1.
        -13    1    4    4    0    0  0.26375809566E+02  0.37916905838E+01  0.10305473097E+03  0.10644405959E+03  0.00000000000E+00 0.  1.
         14    1    4    4    0    0  0.18907868075E+03  0.60413989317E+02  0.24138165500E+03  0.31251512122E+03  0.00000000000E+00 0. -1.
         -5    1    5    5    0  501 -0.27206490939E+03 -0.37555214554E+02 -0.35868560123E+03  0.45178220371E+03  0.47000000000E+01 0.  1.
         13    1    6    6    0    0 -0.10628986939E+03  0.39619701540E+02 -0.12966761438E+03  0.17228159305E+03  0.00000000000E+00 0. -1.
        -14    1    6    6    0    0 -0.53120450429E+01 -0.56571949509E+00 -0.93700585888E+02  0.93852744536E+02  0.00000000000E+00 0.  1.
</event>
<event>
12    1  0.1081556E+000  0.2645991E+03  0.7818608E-02  0.1104411E+00
         -1   -1    0    0    0  501 -0.00000000000E+00  0.00000000000E+00  0.11482297206E+03  0.11482297206E+03  0.00000000000E+00 0.  1.
          1   -1    0    0  502    0  0.00000000000E+00 -0.00000000000E+00 -0.17441103607E+04  0.17441103607E+04  0.00000000000E+00 0. -1.
          6    2    1    2  502    0 -0.56364805327E+02 -0.19270726809E+03 -0.64788957261E+02  0.27217600888E+03  0.17195664677E+03 0.  0.
         24    2    3    3    0    0 -0.75810374545E+02 -0.11419861894E+03  0.14484414033E+02  0.15882656886E+03  0.78914784877E+02 0.  0.
         -6    2    1    2    0  501  0.56364805327E+02  0.19270726809E+03 -0.15644984314E+04  0.15867573239E+04  0.17271473777E+03 0.  0.
        -24    2    5    5    0    0 -0.34075857332E+02  0.89599924063E+02 -0.88129584129E+03  0.88990833955E+03  0.77879281470E+02 0.  0.
          5    1    3    3  502    0  0.19445569218E+02 -0.78508649158E+02 -0.79273371294E+02  0.11334944001E+03  0.47000000000E+01 0. -1.
        -11    1    4    4    0    0  0.12921881758E+02 -0.40978096149E+02  0.81091657898E+00  0.42974841220E+02  0.00000000000E+00 0.  1.
         12    1    4    4    0    0 -0.88732256303E+02 -0.73220522786E+02  0.13673497454E+02  0.11585172764E+03  0.00000000000E+00 0. -1.
         -5    1    5    5    0  501  0.90440662659E+02  0.10310734403E+03 -0.68320259013E+03  0.69684898437E+03  0.47000000000E+01 0.  1.
         13    1    6    6    0    0  0.22248412392E+02  0.38037395312E+02 -0.42362977691E+03  0.42591551179E+03  0.00000000000E+00 0. -1.
        -14    1    6    6    0    0 -0.56324269725E+02  0.51562528751E+02 -0.45766606438E+03  0.46399282776E+03  0.00000000000E+00 0.  1.
</event>
<event>
12    1  0.1081556E+000  0.2448265E+03  0.7818608E-02  0.1116619E+00
         -2   -1    0    0    0  501 -0.00000000000E+00  0.00000000000E+00  0.14808546637E+03  0.14808546637E+03  0.00000000000E+00 0.  1.
          2   -1    0    0  502    0  0.00000000000E+00 -0.00000000000E+00 -0.17110925205E+04  0.17110925205E+04  0.00000000000E+00 0. -1.
          6    2    1    2  502    0  0.16515141161E+03  0.56343853626E+02  0.31100064247E+02  0.24630489110E+03  0.17102417017E+03 0.  0.
         24    2    3    3    0    0  0.12518297451E+03  0.72014263122E+02 -0.34102288108E+02  0.16809699859E+03  0.78973436544E+02 0.  0.
         -6    2    1    2    0  501 -0.16515141161E+03 -0.56343853626E+02 -0.15941071183E+04  0.16128730958E+04  0.17243114463E+03 0.  0.
        -24    2    5    5    0    0 -0.93764210684E+02 -0.10226308054E+03 -0.10662812990E+04  0.10782452874E+04  0.80047651019E+02 0.  0.
          5    1    3    3  502    0  0.39968437100E+02 -0.15670409495E+02  0.65202352355E+02  0.78207892508E+02  0.47000000000E+01 0. -1.
        -11    1    4    4    0    0 -0.58835705004E+01  0.24475322473E+02 -0.46484861892E+01  0.25598168603E+02  0.00000000000E+00 0.  1.
         12    1    4    4    0    0  0.13106654501E+03  0.47538940649E+02 -0.29453801919E+02  0.14249882999E+03  0.00000000000E+00 0. -1.
         -5    1    5    5    0  501 -0.71387200929E+02  0.45919226912E+02 -0.52782581940E+03  0.53462780837E+03  0.47000000000E+01 0.  1.
         13    1    6    6    0    0 -0.64593477757E+02 -0.43855716347E+02 -0.33153004889E+03  0.34059919927E+03  0.00000000000E+00 0. -1.
        -14    1    6    6    0    0 -0.29170732928E+02 -0.58407364191E+02 -0.73475125006E+03  0.73764608812E+03  0.00000000000E+00 0.  1.
</event>
<event>
12    1  0.1081556E+000  0.2748749E+03  0.7818608E-02  0.1098522E+00
         -2   -1    0    0    0  501 -0.00000000000E+00  0.00000000000E+00  0.17524809213E+02  0.17524809213E+02  0.00000000000E+00 0.  1.
          2   -1    0    0  502    0  0.00000000000E+00 -0.00000000000E+00 -0.43177999953E+04  0.43177999953E+04  0.00000000000E+00 0. -1.
          6    2    1    2  502    0 -0.42701595801E+02 -0.20968893462E+03 -0.22386842535E+04  0.22555770241E+04  0.17357318025E+03 0.  0.
         24    2    3    3    0    0  0.24092659226E+02 -0.13409017514E+03 -0.17141165675E+04  0.17213766944E+04  0.79884203077E+02 0.  0.
         -6    2    1    2    0  501  0.42701595801E+02  0.20968893462E+03 -0.20615909325E+04  0.20797477804E+04  0.17146656086E+03 0.  0.
        -24    2    5    5    0    0  0.13734638949E+01  0.18352810086E+03 -0.11848270949E+04  0.12016080872E+04  0.79764029357E+02 0.  0.
          5    1    3    3  502    0 -0.66794255027E+02 -0.75598759483E+02 -0.52456768602E+03  0.53420032961E+03  0.47000000000E+01 0. -1.
        -13    1    4    4    0    0  0.84578197413E+01 -0.74639836824E+02 -0.49065577067E+03  0.49637256697E+03  0.00000000000E+00 0.  1.
         14    1    4    4    0    0  0.15634839485E+02 -0.59450338313E+02 -0.12234607968E+04  0.12250041275E+04  0.00000000000E+00 0. -1.
         -5    1    5    5    0  501  0.41328131906E+02  0.26160833763E+02 -0.87676383768E+03  0.87813969320E+03  0.47000000000E+01 0.  1.
         11    1    6    6    0    0 -0.12261377299E+02  0.18539495048E+03 -0.11231295564E+04  0.11383943207E+04  0.00000000000E+00 0. -1.
        -12    1    6    6    0    0  0.13634841194E+02 -0.18668496223E+01 -0.61697538457E+02  0.63213766488E+02  0.00000000000E+00 0.  1.
</event>
<event>
12    1  0.1081556E+000  0.3440038E+03  0.7818608E-02  0.1065103E+00
          2   -1    0    0  502    0  0.00000000000E+00  0.00000000000E+00  0.13561661178E+04  0.13561661178E+04  0.00000000000E+00 0. -1.
         -2   -1    0    0    0  501 -0.00000000000E+00 -0.00000000000E+00 -0.19396239462E+03  0.19396239462E+03  0.00000000000E+00 0.  1.
          6    2    1    2  502    0 -0.24897686303E+03  0.15926700870E+03  0.75278191042E+01  0.34577848373E+03  0.17930597694E+03 0.  0.
         24    2    3    3    0    0 -0.20342140237E+03  0.50462124596E+02  0.26651801197E+02  0.22618910505E+03  0.80774375755E+02 0.  0.
         -6    2    1    2    0  501  0.24897686303E+03 -0.15926700870E+03  0.11546759041E+04  0.12043500287E+04  0.17270521068E+03 0.  0.
        -24    2    5    5    0    0  0.20124494853E+03 -0.93799057571E+02  0.10211819194E+04  0.10481222392E+04  0.80311413607E+02 0.  0.
          5    1    3    3  502    0 -0.45555460665E+02  0.10880488410E+03 -0.19123982093E+02  0.11958937867E+03  0.47000000000E+01 0. -1.
        -11    1    4    4    0    0 -0.15626746829E+03  0.40334044436E+02 -0.15505565863E+02  0.16213198130E+03  0.00000000000E+00 0.  1.
         12    1    4    4    0    0 -0.47153934075E+02  0.10128080160E+02  0.42157367060E+02  0.64057123756E+02  0.00000000000E+00 0. -1.
         -5    1    5    5    0  501  0.47731914505E+02 -0.65467951126E+02  0.13349398466E+03  0.15622778955E+03  0.47000000000E+01 0.  1.
         13    1    6    6    0    0  0.18000831018E+03 -0.10567347947E+03  0.85183362001E+03  0.87703500055E+03  0.00000000000E+00 0. -1.
        -14    1    6    6    0    0  0.21236638346E+02  0.11874421896E+02  0.16934829941E+03  0.17108723862E+03  0.00000000000E+00 0.  1.
</event>
<event>
12    1  0.1081556E+000  0.2124124E+03  0.7818608E-02  0.1139670E+00
          1   -1    0    0  502    0  0.00000000000E+00  0.00000000000E+00  0.99627630131E+03  0.99627630131E+03  0.00000000000E+00 0. -1.
         -1   -1    0    0    0  501 -0.00000000000E+00 -0.00000000000E+00 -0.74821363323E+02  0.74821363323E+02  0.00000000000E+00 0.  1.
          6    2    1    2  502    0  0.12580661094E+02  0.12422101790E+03  0.12477112364E+03  0.24668337270E+03  0.17232445778E+03 0.  0.
         24    2    3    3    0    0  0.41473627355E+02  0.14273689356E+03  0.71254949663E+02  0.18293612156E+03  0.79337722230E+02 0.  0.
         -6    2    1    2    0  501 -0.12580661094E+02 -0.12422101790E+03  0.79668381435E+03  0.82441429194E+03  0.17136128612E+03 0.  0.
        -24    2    5    5    0    0 -0.42593586786E+02 -0.91140543100E+02  0.30810077898E+03  0.33377127918E+03  0.79726812066E+02 0.  0.
          5    1    3    3  502    0 -0.28892966261E+02 -0.18515875663E+02  0.53516173975E+02  0.63747251140E+02  0.47000000000E+01 0. -1.
        -13    1    4    4    0    0 -0.17447027665E+02  0.82123273502E+02  0.35319527152E+02  0.91082928275E+02  0.00000000000E+00 0.  1.
         14    1    4    4    0    0  0.58920655020E+02  0.60613620063E+02  0.35935422512E+02  0.91853193282E+02  0.00000000000E+00 0. -1.
         -5    1    5    5    0  501  0.30012925691E+02 -0.33080474801E+02  0.48858303536E+03  0.49064301276E+03  0.47000000000E+01 0.  1.
         13    1    6    6    0    0  0.83232180193E+01 -0.67677867858E+02  0.20985552109E+03  0.22065563552E+03  0.00000000000E+00 0. -1.
        -14    1    6    6    0    0 -0.50916804805E+02 -0.23462675242E+02  0.98245257896E+02  0.11311564366E+03  0.00000000000E+00 0.  1.
</event>
<event>
12    1  0.1081556E+000  0.2958392E+03  0.7818608E-02  0.1087339E+00
          4   -1    0    0  502    0  0.00000000000E+00  0.00000000000E+00  0.33279446441E+03  0.33279446441E+03  0.00000000000E+00 0. -1.
         -4   -1    0    0    0  501 -0.00000000000E+00 -0.00000000000E+00 -0.31238259625E+03  0.31238259625E+03  0.00000000000E+00 0.  1.
          6    2    1    2  502    0  0.15921468467E+03 -0.18073456759E+03 -0.11809356838E+03  0.31768139663E+03  0.17017954969E+03 0.  0.
         24    2    3    3    0    0  0.78138716209E+02 -0.11117482581E+03  0.14980869781E+01  0.15725657196E+03  0.79132068689E+02 0.  0.
         -6    2    1    2    0  501 -0.15921468467E+03  0.18073456759E+03  0.13850543654E+03  0.32749566404E+03  0.17336480114E+03 0.  0.
        -24    2    5    5    0    0 -0.17619915561E+03  0.17223385864E+03  0.10529660333E+03  0.28895152169E+03  0.10814325090E+03 0.  0.
          5    1    3    3  502    0  0.81075968459E+02 -0.69559741787E+02 -0.11959165536E+03  0.16042482467E+03  0.47000000000E+01 0. -1.
        -11    1    4    4    0    0  0.67156724188E+02 -0.31127504274E+02  0.14480661694E+02  0.75423051444E+02  0.00000000000E+00 0.  1.
         12    1    4    4    0    0  0.10981992021E+02 -0.80047321532E+02 -0.12982574715E+02  0.81833520512E+02  0.00000000000E+00 0. -1.
         -5    1    5    5    0  501  0.16984470938E+02  0.85007089530E+01  0.33208833218E+02  0.38544142349E+02  0.47000000000E+01 0.  1.
         11    1    6    6    0    0 -0.81453184888E+02  0.35148265942E+02  0.81785112479E+02  0.12065996250E+03  0.00000000000E+00 0. -1.
        -12    1    6    6    0    0 -0.94745970718E+02  0.13708559270E+03  0.23511490847E+02  0.16829155919E+03  0.00000000000E+00 0.  1.
</event>
<event>
12    1  0.1081556E+000  0.2012903E+03  0.7818608E-02  0.1148655E+00
          1   -1    0    0  502    0  0.00000000000E+00  0.00000000000E+00  0.36290567433E+03  0.36290567433E+03  0.00000000000E+00 0. -1.
         -1   -1    0    0    0  501 -0.00000000000E+00 -0.00000000000E+00 -0.18558598720E+03  0.18558598720E+03  0.00000000000E+00 0.  1.
          6    2    1    2  502    0  0.78739550659E+02 -0.68110608437E+02 -0.84406349621E+02  0.21839310558E+03  0.17243011596E+03 0.  0.
         24    2    3    3    0    0  0.56350233381E+02 -0.10820367535E+03 -0.32462211256E+02  0.14890196188E+03  0.78959577832E+02 0.  0.
         -6    2    1    2    0  501 -0.78739550659E+02  0.68110608437E+02  0.26172603675E+03  0.33009855594E+03  0.17212079044E+03 0.  0.
        -24    2    5    5    0    0 -0.25386002747E+02 -0.15365835294E+02  0.56020784181E+02  0.10173117940E+03  0.79563475117E+02 0.  0.
          5    1    3    3  502    0  0.22389317278E+02  0.40093066913E+02 -0.51944138365E+02  0.69491143703E+02  0.47000000000E+01 0. -1.
        -13    1    4    4    0    0  0.72191594493E+02 -0.10486428472E+03 -0.20918410017E+02  0.12901831034E+03  0.00000000000E+00 0.  1.
         14    1    4    4    0    0 -0.15841361111E+02 -0.33393906301E+01 -0.11543801239E+02  0.19883651543E+02  0.00000000000E+00 0. -1.
         -5    1    5    5    0  501 -0.53353547912E+02  0.83476443730E+02  0.20570525257E+03  0.22836737654E+03  0.47000000000E+01 0.  1.
         11    1    6    6    0    0 -0.72800525688E+01 -0.24525070759E+01  0.73217118536E+02  0.73619022019E+02  0.00000000000E+00 0. -1.
        -12    1    6    6    0    0 -0.18105950178E+02 -0.12913328218E+02 -0.17196334355E+02  0.28112157384E+02  0.00000000000E+00 0.  1.
</event>
<event>
12    1  0.1081556E+000  0.6934376E+03  0.7818608E-02  0.9728521E-01
          1   -1    0    0  502    0  0.00000000000E+00  0.00000000000E+00  0.17427200997E+04  0.17427200997E+04  0.00000000000E+00 0. -1.
         -1   -1    0    0    0  501 -0.00000000000E+00 -0.00000000000E+00 -0.42605514266E+03  0.42605514266E+03  0.00000000000E+00 0.  1.
          6    2    1    2  502    0 -0.24270700988E+03 -0.62894816150E+03  0.16124580467E+02  0.69605324634E+03  0.17247503338E+03 0.  0.
         24    2    3    3    0    0 -0.16564796180E+03 -0.56943151022E+03  0.85074659449E+01  0.59827574839E+03  0.78549360642E+02 0.  0.
         -6    2    1    2    0  501  0.24270700988E+03  0.62894816150E+03  0.13005403766E+04  0.14727219960E+04  0.15173109099E+03 0.  0.
        -24    2    5    5    0    0  0.21350114945E+03  0.60024895742E+03  0.12638229899E+04  0.14175234174E+04  0.79009729496E+02 0.  0.
          5    1    3    3  502    0 -0.77059048081E+02 -0.59516651286E+02  0.76171145226E+01  0.97777497949E+02  0.47000000000E+01 0. -1.
        -13    1    4    4    0    0 -0.68322423246E+02 -0.34132338730E+03 -0.19831409021E+02  0.34865870565E+03  0.00000000000E+00 0.  1.
         14    1    4    4    0    0 -0.97325538551E+02 -0.22810812291E+03  0.28338874966E+02  0.24961704274E+03  0.00000000000E+00 0. -1.
         -5    1    5    5    0  501  0.29205860424E+02  0.28699204083E+02  0.36717386649E+02  0.55198578609E+02  0.47000000000E+01 0.  1.
         13    1    6    6    0    0  0.91778602293E+02  0.15509528692E+03  0.37318206758E+03  0.41441852689E+03  0.00000000000E+00 0. -1.
        -14    1    6    6    0    0  0.12172254716E+03  0.44515367050E+03  0.89064092235E+03  0.10031048905E+04  0.00000000000E+00 0.  1.
</event>
<event>
12    1  0.1081556E+000  0.6080785E+03  0.7818608E-02  0.9888786E-01
          3   -1    0    0  502    0  0.00000000000E+00  0.00000000000E+00  0.21905444094E+04  0.21905444094E+04  0.00000000000E+00 0. -1.
         -3   -1    0    0    0  501 -0.00000000000E+00 -0.00000000000E+00 -0.17087330906E+03  0.17087330906E+03  0.00000000000E+00 0.  1.
          6    2    1    2  502    0 -0.57395589739E+03  0.10439018127E+03  0.87987031487E+03  0.10696013086E+04  0.17190842421E+03 0.  0.
         24    2    3    3    0    0 -0.40615441083E+03  0.46240722094E+02  0.50189642166E+03  0.65195905448E+03  0.77788050667E+02 0.  0.
         -6    2    1    2    0  501  0.57395589739E+03 -0.10439018127E+03  0.11398007855E+04  0.12918164099E+04  0.17123412069E+03 0.  0.
        -24    2    5    5    0    0  0.54197905338E+03 -0.13233151612E+03  0.10312868778E+04  0.11751948213E+04  0.79229535641E+02 0.  0.
          5    1    3    3  502    0 -0.16780148656E+03  0.58149459177E+02  0.37797389321E+03  0.41764225414E+03  0.47000000000E+01 0. -1.
        -11    1    4    4    0    0 -0.17198481967E+03  0.58354856726E+02  0.22188250302E+03  0.28673317326E+03  0.00000000000E+00 0.  1.
         12    1    4    4    0    0 -0.23416959115E+03 -0.12114134632E+02  0.28001391864E+03  0.36522588122E+03  0.00000000000E+00 0. -1.
         -5    1    5    5    0  501  0.31976844002E+02  0.27941334853E+02  0.10851390773E+03  0.11662158855E+03  0.47000000000E+01 0.  1.
         11    1    6    6    0    0  0.27008882704E+03 -0.84267948308E+02  0.59564030465E+03  0.65942128729E+03  0.00000000000E+00 0. -1.
        -12    1    6    6    0    0  0.27189022634E+03 -0.48063567816E+02  0.43564657311E+03  0.51577353402E+03  0.00000000000E+00 0.  1.
</event>
<event>
12    1  0.1081556E+000  0.2739674E+03  0.7818608E-02  0.1099030E+00
          2   -1    0    0  502    0  0.00000000000E+00  0.00000000000E+00  0.13414911690E+04  0.13414911690E+04  0.00000000000E+00 0. -1.
         -2   -1    0    0    0  501 -0.00000000000E+00 -0.00000000000E+00 -0.59872631189E+02  0.59872631189E+02  0.00000000000E+00 0.  1.
          6    2    1    2  502    0  0.12200862030E+03 -0.17833377778E+03  0.81384837336E+03  0.85783725007E+03  0.16384911678E+03 0.  0.
         24    2    3    3    0    0  0.12205865827E+03 -0.18195333463E+03  0.59839548601E+03  0.64230270443E+03  0.80438015949E+02 0.  0.
         -6    2    1    2    0  501 -0.12200862030E+03  0.17833377778E+03  0.46777016445E+03  0.54352655011E+03  0.17298307490E+03 0.  0.
        -24    2    5    5    0    0 -0.14339299922E+03  0.15402778621E+03  0.45641066177E+03  0.50889706572E+03  0.79871272513E+02 0.  0.
          5    1    3    3  502    0 -0.50037970988E-01  0.36195568471E+01  0.21545288735E+03  0.21553454564E+03  0.47000000000E+01 0. -1.
        -13    1    4    4    0    0  0.76115746833E+02 -0.13393241743E+03  0.50284131430E+03  0.52590958036E+03  0.00000000000E+00 0.  1.
         14    1    4    4    0    0  0.45942911440E+02 -0.48020917195E+02  0.95554171711E+02  0.11639312407E+03  0.00000000000E+00 0. -1.
         -5    1    5    5    0  501  0.21384378915E+02  0.24305991573E+02  0.11359502674E+02  0.34629484387E+02  0.47000000000E+01 0.  1.
         11    1    6    6    0    0 -0.68657605319E+02  0.10889279438E+03  0.19829809098E+03  0.23641835868E+03  0.00000000000E+00 0. -1.
        -12    1    6    6    0    0 -0.74735393898E+02  0.45134991824E+02  0.25811257079E+03  0.27247870704E+03  0.00000000000E+00 0.  1.
</event>
<event>
12    1  0.1081556E+000  0.8165727E+03  0.7818608E-02  0.9536334E-01
          2   -1    0    0  502    0  0.00000000000E+00  0.00000000000E+00  0.32539346307E+04  0.32539346307E+04  0.00000000000E+00 0. -1.
         -2   -1    0    0    0  501 -0.00000000000E+00 -0.00000000000E+00 -0.23250193781E+03  0.23250193781E+03  0.00000000000E+00 0.  1.
          6    2    1    2  502    0  0.39193555347E+03 -0.69549668253E+03  0.21115231397E+04  0.22640002254E+04  0.17273661372E+03 0.  0.
         24    2    3    3    0    0  0.23501179670E+03 -0.49407030848E+03  0.15877869378E+04  0.16813173367E+04  0.80153681081E+02 0.  0.
         -6    2    1    2    0  501 -0.39193555347E+03  0.69549668253E+03  0.90990955321E+03  0.12224363431E+04  0.17054648766E+03 0.  0.
        -24    2    5    5    0    0 -0.26452930460E+03  0.33745050764E+03  0.48884991325E+03  0.65521264296E+03  0.80503240415E+02 0.  0.
          5    1    3    3  502    0  0.15692375677E+03 -0.20142637405E+03  0.52373620186E+03  0.58268288866E+03  0.47000000000E+01 0. -1.
        -13    1    4    4    0    0  0.12620042771E+03 -0.23032901320E+03  0.87449750347E+03  0.91308481854E+03  0.00000000000E+00 0.  1.
         14    1    4    4    0    0  0.10881136899E+03 -0.26374129528E+03  0.71328943436E+03  0.76823251820E+03  0.00000000000E+00 0. -1.
         -5    1    5    5    0  501 -0.12740624886E+03  0.35804617488E+03  0.42105963996E+03  0.56722370014E+03  0.47000000000E+01 0.  1.
         11    1    6    6    0    0 -0.97116804867E+02  0.15176142314E+03  0.15205287906E+03  0.23576106840E+03  0.00000000000E+00 0. -1.
        -12    1    6    6    0    0 -0.16741249974E+03  0.18568908450E+03  0.33679703418E+03  0.41945157457E+03  0.00000000000E+00 0.  1.
</event>
<event>
12    1  0.1081556E+000  0.2558322E+03  0.7818608E-02  0.1109673E+00
          1   -1    0    0  502    0  0.00000000000E+00  0.00000000000E+00  0.49045602042E+03  0.49045602042E+03  0.00000000000E+00 0. -1.
         -1   -1    0    0    0  501 -0.00000000000E+00 -0.00000000000E+00 -0.19601986717E+04  0.19601986717E+04  0.00000000000E+00 0.  1.
          6    2    1    2  502    0  0.88795286178E+02 -0.17457696682E+03 -0.19167580955E+04  0.19331153919E+04  0.15688148781E+03 0.  0.
         24    2    3    3    0    0  0.94691683189E+02 -0.12712386595E+03 -0.17724325253E+04  0.17810018668E+04  0.72963008678E+02 0.  0.
         -6    2    1    2    0  501 -0.88795286178E+02  0.17457696682E+03  0.44701544424E+03  0.51753930029E+03  0.17222775548E+03 0.  0.
        -24    2    5    5    0    0 -0.47813779642E+02  0.19051911408E+03  0.40422527429E+03  0.45600293233E+03  0.77181031088E+02 0.  0.
          5    1    3    3  502    0 -0.58963970105E+01 -0.47453100868E+02 -0.14432557019E+03  0.15211352501E+03  0.47000000000E+01 0. -1.
        -11    1    4    4    0    0  0.31803976717E+02 -0.98260564294E+02 -0.92459136996E+03  0.93034178280E+03  0.00000000000E+00 0.  1.
         12    1    4    4    0    0  0.62887706472E+02 -0.28863301659E+02 -0.84784115539E+03  0.85066008404E+03  0.00000000000E+00 0. -1.
         -5    1    5    5    0  501 -0.40981506536E+02 -0.15942147261E+02  0.42790169951E+02  0.61536367960E+02  0.47000000000E+01 0.  1.
         13    1    6    6    0    0 -0.55718638085E+02  0.88815647081E+02  0.24997638552E+03  0.27107375216E+03  0.00000000000E+00 0. -1.
        -14    1    6    6    0    0  0.79048584432E+01  0.10170346700E+03  0.15424888877E+03  0.18492918016E+03  0.00000000000E+00 0.  1.
</event>
<event>
12    1  0.1081556E+000  0.5575315E+03  0.7818608E-02  0.9997656E-01
          1   -1    0    0  502    0  0.00000000000E+00  0.00000000000E+00  0.22875369658E+04  0.22875369658E+04  0.00000000000E+00 0. -1.
         -1   -1    0    0    0  501 -0.00000000000E+00 -0.00000000000E+00 -0.33836730408E+03  0.33836730408E+03  0.00000000000E+00 0.  1.
          6    2    1    2  502    0  0.12863537630E+03  0.51526094946E+03 -0.40472050508E+02  0.55985481061E+03  0.17250656803E+03 0.  0.
         24    2    3    3    0    0  0.63822767945E+02  0.12286535530E+03 -0.22905948852E+02  0.16172714962E+03  0.80384993560E+02 0.  0.
         -6    2    1    2    0  501 -0.12863537630E+03 -0.51526094946E+03  0.19896417122E+04  0.20660494593E+04  0.16686916758E+03 0.  0.
        -24    2    5    5    0    0 -0.13893236103E+03 -0.50728040569E+03  0.18260594874E+04  0.19018820105E+04  0.77629371063E+02 0.  0.
          5    1    3    3  502    0  0.64812608351E+02  0.39239559416E+03 -0.17566101656E+02  0.39812766099E+03  0.47000000000E+01 0. -1.
        -13    1    4    4    0    0  0.59658849641E+02  0.13469660249E+03 -0.18706052803E+02  0.14850006557E+03  0.00000000000E+00 0.  1.
         14    1    4    4    0    0  0.41639183039E+01 -0.11831247188E+02 -0.41998960491E+01  0.13227084051E+02  0.00000000000E+00 0. -1.
         -5    1    5    5    0  501  0.10296984737E+02 -0.79805437727E+01  0.16358222477E+03  0.16416744877E+03  0.47000000000E+01 0.  1.
         11    1    6    6    0    0 -0.62898331864E+01 -0.12395951115E+03  0.49982229079E+03  0.51500276191E+03  0.00000000000E+00 0. -1.
        -12    1    6    6    0    0 -0.13264252785E+03 -0.38332089454E+03  0.13262371966E+04  0.13868792486E+04  0.00000000000E+00 0.  1.
</event>
<event>
12    1  0.1081556E+000  0.9795687E+03  0.7818608E-02  0.9331242E-01
          1   -1    0    0  502    0  0.00000000000E+00  0.00000000000E+00  0.12426152647E+04  0.12426152647E+04  0.00000000000E+00 0. -1.
         -1   -1    0    0    0  501 -0.00000000000E+00 -0.00000000000E+00 -0.81468158681E+03  0.81468158681E+03  0.00000000000E+00 0.  1.
          6    2    1    2  502    0 -0.30831556627E+03 -0.91379754802E+03 -0.20885937316E+02  0.97991534384E+03  0.17237578584E+03 0.  0.
         24    2    3    3    0    0 -0.27227319595E+03 -0.66120257884E+03 -0.58824263117E+02  0.72191403090E+03  0.79862573102E+02 0.  0.
         -6    2    1    2    0  501  0.30831556627E+03  0.91379754802E+03  0.44881961524E+03  0.10773815077E+04  0.17096028468E+03 0.  0.
        -24    2    5    5    0    0  0.21667727105E+03  0.76496109092E+03  0.32211815999E+03  0.86145277669E+03  0.78906698442E+02 0.  0.
          5    1    3    3  502    0 -0.36042370319E+02 -0.25259496919E+03  0.37938325801E+02  0.25800131294E+03  0.47000000000E+01 0. -1.
        -13    1    4    4    0    0 -0.62890571220E+02 -0.12547499886E+03 -0.41896550404E+02  0.14647361613E+03  0.00000000000E+00 0.  1.
         14    1    4    4    0    0 -0.20938262473E+03 -0.53572757998E+03 -0.16927712713E+02  0.57544041477E+03  0.00000000000E+00 0. -1.
         -5    1    5    5    0  501  0.91638295222E+02  0.14883645710E+03  0.12670145525E+03  0.21592873101E+03  0.47000000000E+01 0.  1.
         11    1    6    6    0    0  0.20623532167E+03  0.71626842094E+03  0.32123926373E+03  0.81164531866E+03  0.00000000000E+00 0. -1.
        -12    1    6    6    0    0  0.10441949376E+02  0.48692669984E+02  0.87889625831E+00  0.49807458031E+02  0.00000000000E+00 0.  1.
</event>
<event>
12    1  0.1081556E+000  0.2332313E+03  0.7818608E-02  0.1124386E+00
          2   -1    0    0  502    0  0.00000000000E+00  0.00000000000E+00  0.39566372336E+03  0.39566372336E+03  0.00000000000E+00 0.  1.
         -2   -1    0    0    0  501 -0.00000000000E+00 -0.00000000000E+00 -0.30061014907E+03  0.30061014907E+03  0.00000000000E+00 0. -1.
          6    2    1    2  502    0 -0.15334699102E+03 -0.38987455041E+02  0.30394493899E+03  0.38287719157E+03  0.17081304571E+03 0.  0.
         24    2    3    3    0    0 -0.12099248155E+03 -0.88942204998E+02  0.20064894051E+03  0.26356899979E+03  0.81601004272E+02 0.  0.
         -6    2    1    2    0  501  0.15334699102E+03  0.38987455041E+02 -0.20889136470E+03  0.31339668085E+03  0.17189111675E+03 0.  0.
        -24    2    5    5    0    0  0.14003914274E+03 -0.15961887510E+02 -0.19746387682E+03  0.25552435109E+03  0.80218252294E+02 0.  0.
          5    1    3    3  502    0 -0.32354509475E+02  0.49954749958E+02  0.10329599847E+03  0.11930819179E+03  0.47000000000E+01 0. -1.
        -11    1    4    4    0    0 -0.12521129961E+03 -0.87722670942E+02  0.15500643643E+03  0.21771571345E+03  0.00000000000E+00 0.  1.
         12    1    4    4    0    0  0.42188180614E+01 -0.12195340567E+01  0.45642504083E+02  0.45853286339E+02  0.00000000000E+00 0. -1.
         -5    1    5    5    0  501  0.13307848284E+02  0.54949342551E+02 -0.11427487877E+02  0.57872329760E+02  0.47000000000E+01 0.  1.
         11    1    6    6    0    0  0.14923835000E+03 -0.11706665998E+02 -0.17144881476E+03  0.22760454131E+03  0.00000000000E+00 0. -1.
        -12    1    6    6    0    0 -0.91992072672E+01 -0.42552215114E+01 -0.26015062063E+02  0.27919809788E+02  0.00000000000E+00 0.  1.
</event>
<event>
12    1  0.1081556E+000  0.5184102E+03  0.7818608E-02  0.1009082E+00
         -2   -1    0    0    0  501 -0.00000000000E+00  0.00000000000E+00  0.36514722592E+03  0.36514722592E+03  0.00000000000E+00 0.  1.
          2   -1    0    0  502    0  0.00000000000E+00 -0.00000000000E+00 -0.73647404802E+03  0.73647404802E+03  0.00000000000E+00 0. -1.
          6    2    1    2  502    0 -0.47885528477E+03 -0.10182351265E+03 -0.17157692583E+03  0.54566943031E+03  0.16925151171E+03 0.  0.
         24    2    3    3    0    0 -0.16641303021E+03  0.67747896097E+01 -0.87652670602E+02  0.20437904910E+03  0.79678169223E+02 0.  0.
         -6    2    1    2    0  501  0.47885528477E+03  0.10182351265E+03 -0.19974989627E+03  0.55595184363E+03  0.17179062808E+03 0.  0.
        -24    2    5    5    0    0  0.19457489868E+03  0.70321772396E+02 -0.31181694166E+02  0.22392017900E+03  0.79770957404E+02 0.  0.
          5    1    3    3  502    0 -0.31244225456E+03 -0.10859830226E+03 -0.83924255227E+02  0.34129038121E+03  0.47000000000E+01 0. -1.
        -11    1    4    4    0    0 -0.12044169107E+03  0.18463618760E+01 -0.99964860270E+02  0.15653301022E+03  0.00000000000E+00 0.  1.
         12    1    4    4    0    0 -0.45971339143E+02  0.49284277337E+01  0.12312189668E+02  0.47846038884E+02  0.00000000000E+00 0. -1.
         -5    1    5    5    0  501  0.28428038609E+03  0.31501740251E+02 -0.16856820210E+03  0.33203166463E+03  0.47000000000E+01 0.  1.
         11    1    6    6    0    0  0.18529033134E+03  0.43216868606E+02 -0.39004602483E+02  0.19422039963E+03  0.00000000000E+00 0. -1.
        -12    1    6    6    0    0  0.92845673448E+01  0.27104903790E+02  0.78229083169E+01  0.29699779372E+02  0.00000000000E+00 0.  1.
</event>
<event>
12    1  0.1081556E+000  0.8594959E+03  0.7818608E-02  0.9477680E-01
          2   -1    0    0  502    0  0.00000000000E+00  0.00000000000E+00  0.52666457394E+03  0.52666457394E+03  0.00000000000E+00 0. -1.
         -2   -1    0    0    0  501 -0.00000000000E+00 -0.00000000000E+00 -0.14488649049E+04  0.14488649049E+04  0.00000000000E+00 0.  1.
          6    2    1    2  502    0  0.40832360388E+03 -0.73664524221E+03 -0.63752939779E+03  0.10701949443E+04  0.17175304196E+03 0.  0.
         24    2    3    3    0    0  0.26419589443E+03 -0.53764971181E+03 -0.52213225465E+03  0.79869796754E+03  0.80185215361E+02 0.  0.
         -6    2    1    2    0  501 -0.40832360388E+03  0.73664524221E+03 -0.28467093315E+03  0.90533453451E+03  0.17093478535E+03 0.  0.
        -24    2    5    5    0    0 -0.38824558135E+03  0.67102437468E+03 -0.29977050704E+03  0.83491214904E+03  0.78788304133E+02 0.  0.
          5    1    3    3  502    0  0.14412770945E+03 -0.19899553040E+03 -0.11539714314E+03  0.27149697677E+03  0.47000000000E+01 0. -1.
        -13    1    4    4    0    0  0.19352293221E+03 -0.46179779895E+03 -0.43035043176E+03  0.66023467534E+03  0.00000000000E+00 0.  1.
         14    1    4    4    0    0  0.70672962217E+02 -0.75851912856E+02 -0.91781822886E+02  0.13846329219E+03  0.00000000000E+00 0. -1.
         -5    1    5    5    0  501 -0.20078022528E+02  0.65620867530E+02  0.15099573890E+02  0.70422385473E+02  0.47000000000E+01 0.  1.
         13    1    6    6    0    0 -0.31200702253E+03  0.47995845278E+03 -0.23960597258E+03  0.62057998727E+03  0.00000000000E+00 0. -1.
        -14    1    6    6    0    0 -0.76238558826E+02  0.19106592189E+03 -0.60164534459E+02  0.21433216177E+03  0.00000000000E+00 0.  1.
</event>
<event>
12    1  0.1081556E+000  0.4223569E+03  0.7818608E-02  0.1036302E+00
          1   -1    0    0  502    0  0.00000000000E+00  0.00000000000E+00  0.39664525452E+03  0.39664525452E+03  0.00000000000E+00 0. -1.
         -1   -1    0    0    0  501 -0.00000000000E+00 -0.00000000000E+00 -0.97442534120E+03  0.97442534120E+03  0.00000000000E+00 0.  1.
          6    2    1    2  502    0  0.38598978541E+03  0.72777055122E+01 -0.79191543626E+03  0.89747568690E+03  0.17114751229E+03 0.  0.
         24    2    3    3    0    0  0.19518352799E+03  0.32416047855E+02 -0.53560978086E+03  0.57692359579E+03  0.82556576199E+02 0.  0.
         -6    2    1    2    0  501 -0.38598978541E+03 -0.72777055122E+01  0.21413534957E+03  0.47359490881E+03  0.17145585518E+03 0.  0.
        -24    2    5    5    0    0 -0.38114536889E+03  0.14660684325E+02  0.17310256115E+03  0.42657851756E+03  0.80734175405E+02 0.  0.
          5    1    3    3  502    0  0.19080625742E+03 -0.25138342343E+02 -0.25630565540E+03  0.32055209111E+03  0.47000000000E+01 0. -1.
        -13    1    4    4    0    0  0.12581412916E+03  0.31785852266E+02 -0.23535752952E+03  0.26876142246E+03  0.00000000000E+00 0.  1.
         14    1    4    4    0    0  0.69369398836E+02  0.63019558951E+00 -0.30025225134E+03  0.30816217333E+03  0.00000000000E+00 0. -1.
         -5    1    5    5    0  501 -0.48444165249E+01 -0.21938389837E+02  0.41032788430E+02  0.47016391253E+02  0.47000000000E+01 0.  1.
         11    1    6    6    0    0 -0.13044864428E+03  0.23795611798E+02  0.24016842535E+02  0.13475863112E+03  0.00000000000E+00 0. -1.
        -12    1    6    6    0    0 -0.25069672460E+03 -0.91349274731E+01  0.14908571861E+03  0.29181988644E+03  0.00000000000E+00 0.  1.
</event>
<event>
12    1  0.1081556E+000  0.2856250E+03  0.7818608E-02  0.1092656E+00
          2   -1    0    0  502    0  0.00000000000E+00  0.00000000000E+00  0.44699386717E+03  0.44699386717E+03  0.00000000000E+00 0. -1.
         -2   -1    0    0    0  501 -0.00000000000E+00 -0.00000000000E+00 -0.26001436348E+03  0.26001436348E+03  0.00000000000E+00 0.  1.
          6    2    1    2  502    0  0.21319282932E+03 -0.92847951185E+02 -0.98615455220E+02  0.30566849613E+03  0.17215195906E+03 0.  0.
         24    2    3    3    0    0  0.16256187644E+03  0.56497730986E+01 -0.63001343143E+02  0.18923933287E+03  0.73376237704E+02 0.  0.
         -6    2    1    2    0  501 -0.21319282932E+03  0.92847951185E+02  0.28559495891E+03  0.40133973452E+03  0.15949036786E+03 0.  0.
        -24    2    5    5    0    0 -0.13019272797E+03 -0.22111349070E+01  0.17727831717E+03  0.23496716602E+03  0.82625249379E+02 0.  0.
          5    1    3    3  502    0  0.50630952877E+02 -0.98497724284E+02 -0.35614112077E+02  0.11642916326E+03  0.47000000000E+01 0. -1.
        -11    1    4    4    0    0  0.16155366242E+03 -0.10256220597E+02 -0.52611054100E+02  0.17021368604E+03  0.00000000000E+00 0.  1.
         12    1    4    4    0    0  0.10082140229E+01  0.15905993696E+02 -0.10390289043E+02  0.19025646831E+02  0.00000000000E+00 0. -1.
         -5    1    5    5    0  501 -0.83000101351E+02  0.95059086092E+02  0.10831664174E+03  0.16637256851E+03  0.47000000000E+01 0.  1.
         11    1    6    6    0    0 -0.83236926154E+02  0.27784261307E+02  0.14791190763E+03  0.17198338138E+03  0.00000000000E+00 0. -1.
        -12    1    6    6    0    0 -0.46955801813E+02 -0.29995396214E+02  0.29366409535E+02  0.62983784635E+02  0.00000000000E+00 0.  1.
</event>
<event>
12    1  0.1081556E+000  0.8274911E+03  0.7818608E-02  0.9521056E-01
          2   -1    0    0  502    0  0.00000000000E+00  0.00000000000E+00  0.15872605893E+04  0.15872605893E+04  0.00000000000E+00 0. -1.
         -2   -1    0    0    0  501 -0.00000000000E+00 -0.00000000000E+00 -0.44641227625E+03  0.44641227625E+03  0.00000000000E+00 0.  1.
          6    2    1    2  502    0 -0.32986291116E+03  0.73981965938E+03  0.75726309902E+03  0.11220896676E+04  0.17174152773E+03 0.  0.
         24    2    3    3    0    0 -0.26299132094E+03  0.45629616695E+03  0.54277418996E+03  0.76030939938E+03  0.78076466557E+02 0.  0.
         -6    2    1    2    0  501  0.32986291116E+03 -0.73981965938E+03  0.38358521405E+03  0.91158319801E+03  0.16644411040E+03 0.  0.
        -24    2    5    5    0    0  0.31237768530E+03 -0.72713849282E+03  0.39344568293E+03  0.88737857128E+03  0.79567690233E+02 0.  0.
          5    1    3    3  502    0 -0.66871590226E+02  0.28352349243E+03  0.21448890906E+03  0.36178026818E+03  0.47000000000E+01 0. -1.
        -13    1    4    4    0    0 -0.15178469391E+03  0.33449418539E+03  0.36583931675E+03  0.51842391828E+03  0.00000000000E+00 0.  1.
         14    1    4    4    0    0 -0.11120662703E+03  0.12180198156E+03  0.17693487321E+03  0.24188548110E+03  0.00000000000E+00 0. -1.
         -5    1    5    5    0  501  0.17485225864E+02 -0.12681166561E+02 -0.98604688777E+01  0.24204626734E+02  0.47000000000E+01 0.  1.
         13    1    6    6    0    0  0.17555610113E+03 -0.49260308555E+03  0.27895847966E+03  0.59270193007E+03  0.00000000000E+00 0. -1.
        -14    1    6    6    0    0  0.13682158417E+03 -0.23453540727E+03  0.11448720327E+03  0.29467664121E+03  0.00000000000E+00 0.  1.
</event>
<event>
12    1  0.1081556E+000  0.3042921E+03  0.7818608E-02  0.1083114E+00
          2   -1    0    0  502    0  0.00000000000E+00  0.00000000000E+00  0.86365584392E+03  0.86365584392E+03  0.00000000000E+00 0. -1.
         -2   -1    0    0    0  501 -0.00000000000E+00 -0.00000000000E+00 -0.11084983349E+03  0.11084983349E+03  0.00000000000E+00 0.  1.
          6    2    1    2  502    0 -0.14923509792E+03  0.20135835748E+03  0.46358386036E+03  0.55403406753E+03  0.17096037502E+03 0.  0.
         24    2    3    3    0    0 -0.14669332016E+03  0.10443309393E+03  0.24112338221E+03  0.31131669756E+03  0.79701941291E+02 0.  0.
         -6    2    1    2    0  501  0.14923509792E+03 -0.20135835748E+03  0.28922215008E+03  0.42047160988E+03  0.17415688342E+03 0.  0.
        -24    2    5    5    0    0  0.13635641394E+03 -0.17279654796E+03  0.30553975433E+03  0.38483466736E+03  0.79318731180E+02 0.  0.
          5    1    3    3  502    0 -0.25417777554E+01  0.96925263544E+02  0.22246047815E+03  0.24271736997E+03  0.47000000000E+01 0. -1.
        -11    1    4    4    0    0 -0.90993508376E+02  0.10784452553E+03  0.17435533783E+03  0.22429900598E+03  0.00000000000E+00 0.  1.
         12    1    4    4    0    0 -0.55699811786E+02 -0.34114315977E+01  0.66768044376E+02  0.87017691583E+02  0.00000000000E+00 0. -1.
         -5    1    5    5    0  501  0.12878683973E+02 -0.28561809513E+02 -0.16317604252E+02  0.35636942518E+02  0.47000000000E+01 0.  1.
         11    1    6    6    0    0  0.14645845340E+02 -0.35634115853E+02  0.15164025588E+02  0.41403365447E+02  0.00000000000E+00 0. -1.
        -12    1    6    6    0    0  0.12171056860E+03 -0.13716243211E+03  0.29037572874E+03  0.34343130191E+03  0.00000000000E+00 0.  1.
</event>
<event>
12    1  0.1081556E+000  0.2240497E+03  0.7818608E-02  0.1130899E+00
          2   -1    0    0  502    0  0.00000000000E+00  0.00000000000E+00  0.20274091868E+04  0.20274091868E+04  0.00000000000E+00 0. -1.
         -2   -1    0    0    0  501 -0.00000000000E+00 -0.00000000000E+00 -0.77890871673E+02  0.77890871673E+02  0.00000000000E+00 0.  1.
          6    2    1    2  502    0 -0.10606244342E+03 -0.97592581941E+02  0.10503550160E+03  0.24723028559E+03  0.17122150438E+03 0.  0.
         24    2    3    3    0    0 -0.40075496093E+02  0.34628442772E+01  0.99795690218E+01  0.93528637243E+02  0.83844961143E+02 0.  0.
         -6    2    1    2    0  501  0.10606244342E+03  0.97592581941E+02  0.18444828135E+04  0.18580697729E+04  0.17185132403E+03 0.  0.
        -24    2    5    5    0    0  0.32490306834E+02  0.62918778600E+02  0.15086183375E+04  0.15124657102E+04  0.81294793311E+02 0.  0.
          5    1    3    3  502    0 -0.65986947323E+02 -0.10105542622E+03  0.95055932583E+02  0.15370164835E+03  0.47000000000E+01 0. -1.
        -13    1    4    4    0    0 -0.40942017009E+02 -0.22101204123E+02  0.34634362716E+02  0.58002164280E+02  0.00000000000E+00 0.  1.
         14    1    4    4    0    0  0.86652091576E+00  0.25564048401E+02 -0.24654793694E+02  0.35526472963E+02  0.00000000000E+00 0. -1.
         -5    1    5    5    0  501  0.73572136582E+02  0.34673803341E+02  0.33586447600E+03  0.34560406270E+03  0.47000000000E+01 0.  1.
         11    1    6    6    0    0  0.45883110565E+02  0.13821350313E+02  0.10376250075E+04  0.10387309304E+04  0.00000000000E+00 0. -1.
        -12    1    6    6    0    0 -0.13392803731E+02  0.49097428287E+02  0.47099333008E+03  0.47373477984E+03  0.00000000000E+00 0.  1.
</event>
<event>
12    1  0.1081556E+000  0.2667990E+03  0.7818608E-02  0.1103126E+00
          2   -1    0    0  502    0  0.00000000000E+00  0.00000000000E+00  0.18002522635E+04  0.18002522635E+04  0.00000000000E+00 0. -1.
         -2   -1    0    0    0  501 -0.00000000000E+00 -0.00000000000E+00 -0.40000516510E+02  0.40000516510E+02  0.00000000000E+00 0.  1.
          6    2    1    2  502    0 -0.20185878595E+03  0.62907038493E+01  0.77744819012E+03  0.82155448243E+03  0.17245154933E+03 0.  0.
         24    2    3    3    0    0 -0.97086403412E+02 -0.45286113255E+02  0.27451199987E+03  0.30521707176E+03  0.79523713671E+02 0.  0.
         -6    2    1    2    0  501  0.20185878595E+03 -0.62907038493E+01  0.98280355685E+03  0.10186982976E+04  0.17622953120E+03 0.  0.
        -24    2    5    5    0    0  0.20737344554E+03 -0.44558838476E+02  0.80358324281E+03  0.83529471918E+03  0.83558385310E+02 0.  0.
          5    1    3    3  502    0 -0.10477238254E+03  0.51576817105E+02  0.50293619025E+03  0.51633741068E+03  0.47000000000E+01 0. -1.
        -13    1    4    4    0    0 -0.67145464818E+02  0.12438907239E+02  0.13461117787E+03  0.15094174064E+03  0.00000000000E+00 0.  1.
         14    1    4    4    0    0 -0.29940938594E+02 -0.57725020494E+02  0.13990082200E+03  0.15427533112E+03  0.00000000000E+00 0. -1.
         -5    1    5    5    0  501 -0.55146595921E+01  0.38268134627E+02  0.17922031404E+03  0.18340357838E+03  0.47000000000E+01 0.  1.
         13    1    6    6    0    0  0.91123781538E+02 -0.20554863892E+02  0.51241633511E+03  0.52086135053E+03  0.00000000000E+00 0. -1.
        -14    1    6    6    0    0  0.11624966400E+03 -0.24003974584E+02  0.29116690770E+03  0.31443336865E+03  0.00000000000E+00 0.  1.
</event>
<event>
12    1  0.1081556E+000  0.3886828E+03  0.7818608E-02  0.1047770E+00
         -1   -1    0    0    0  501 -0.00000000000E+00  0.00000000000E+00  0.68820813890E+03  0.68820813890E+03  0.00000000000E+00 0.  1.
          1   -1    0    0  502    0  0.00000000000E+00 -0.00000000000E+00 -0.99666050176E+03  0.99666050176E+03  0.00000000000E+00 0. -1.
          6    2    1    2  502    0 -0.32553073663E+03 -0.12430239144E+03  0.58965908894E+03  0.70631026389E+03  0.17249638460E+03 0.  0.
         24    2    3    3    0    0 -0.34139362421E+03 -0.11186045440E+03  0.55969880640E+03  0.66989403771E+03  0.80205361197E+02 0.  0.
         -6    2    1    2    0  501  0.32553073663E+03  0.12430239144E+03 -0.89811145180E+03  0.97855837676E+03  0.17190396120E+03 0.  0.
        -24    2    5    5    0    0  0.16598516928E+03  0.60787522866E+02 -0.31600473941E+03  0.37163231768E+03  0.83698177135E+02 0.  0.
          5    1    3    3  502    0  0.15862887575E+02 -0.12441937042E+02  0.29960282542E+02  0.36416226185E+02  0.47000000000E+01 0. -1.
        -11    1    4    4    0    0 -0.24932139479E+03 -0.11521794373E+03  0.39363571797E+03  0.47998480280E+03  0.00000000000E+00 0.  1.
         12    1    4    4    0    0 -0.92072229421E+02  0.33574893343E+01  0.16606308843E+03  0.18990923491E+03  0.00000000000E+00 0. -1.
         -5    1    5    5    0  501  0.15954556735E+03  0.63514868576E+02 -0.58210671238E+03  0.60692605908E+03  0.47000000000E+01 0.  1.
         11    1    6    6    0    0  0.12732123173E+03  0.99578390755E+01 -0.24389337726E+03  0.27530679991E+03  0.00000000000E+00 0. -1.
        -12    1    6    6    0    0  0.38663937547E+02  0.50829683791E+02 -0.72111362157E+02  0.96325517767E+02  0.00000000000E+00 0.  1.
</event>
<event>
12    1  0.1081556E+000  0.5346164E+03  0.7818608E-02  0.1005119E+00
          1   -1    0    0  502    0  0.00000000000E+00  0.00000000000E+00  0.94328559072E+03  0.94328559072E+03  0.00000000000E+00 0. -1.
         -1   -1    0    0    0  501 -0.00000000000E+00 -0.00000000000E+00 -0.36181506680E+03  0.36181506680E+03  0.00000000000E+00 0.  1.
          6    2    1    2  502    0  0.14857370209E+03  0.48253413213E+03  0.28149472644E+02  0.53647477157E+03  0.17916320520E+03 0.  0.
         24    2    3    3    0    0  0.14674175783E+03  0.49162130231E+03  0.14423853085E+02  0.51925805545E+03  0.78716149733E+02 0.  0.
         -6    2    1    2    0  501 -0.14857370209E+03 -0.48253413213E+03  0.55332105128E+03  0.76862588595E+03  0.17236076453E+03 0.  0.
        -24    2    5    5    0    0 -0.78613480973E+02 -0.43409277582E+03  0.46849106311E+03  0.64837941227E+03  0.79343359127E+02 0.  0.
          5    1    3    3  502    0  0.18319442632E+01 -0.90871701855E+01  0.13725619559E+02  0.17216716122E+02  0.47000000000E+01 0. -1.
        -11    1    4    4    0    0  0.11573174543E+03  0.32418490706E+03 -0.22712704674E+02  0.34497182178E+03  0.00000000000E+00 0.  1.
         12    1    4    4    0    0  0.31010012392E+02  0.16743639525E+03  0.37136557759E+02  0.17428623367E+03  0.00000000000E+00 0. -1.
         -5    1    5    5    0  501 -0.69960221117E+02 -0.48441356311E+02  0.84829988169E+02  0.12024647368E+03  0.47000000000E+01 0.  1.
         13    1    6    6    0    0  0.66040421393E+01 -0.18158444557E+03  0.19343655283E+03  0.26539446908E+03  0.00000000000E+00 0. -1.
        -14    1    6    6    0    0 -0.85217523113E+02 -0.25250833025E+03  0.27505451028E+03  0.38298494320E+03  0.00000000000E+00 0.  1.
</event>
<event>
12    1  0.1081556E+000  0.9393264E+03  0.7818608E-02  0.9377714E-01
          2   -1    0    0  502    0  0.00000000000E+00  0.00000000000E+00  0.72183880886E+03  0.72183880886E+03  0.00000000000E+00 0. -1.
         -2   -1    0    0    0  501 -0.00000000000E+00 -0.00000000000E+00 -0.22252775347E+04  0.22252775347E+04  0.00000000000E+00 0.  1.
          6    2    1    2  502    0  0.89160350172E+03  0.24023144797E+03 -0.17410261941E+04  0.19783060051E+04  0.17278451426E+03 0.  0.
         24    2    3    3    0    0  0.22879481852E+03  0.92155789017E+02 -0.52210706231E+03  0.58294666387E+03  0.79945418688E+02 0.  0.
         -6    2    1    2    0  501 -0.89160350172E+03 -0.24023144797E+03  0.23758746822E+03  0.96881033852E+03  0.17169075134E+03 0.  0.
        -24    2    5    5    0    0 -0.52447416697E+03 -0.20257890670E+03  0.17801822993E+03  0.59494907220E+03  0.78501866701E+02 0.  0.
          5    1    3    3  502    0  0.66280868320E+03  0.14807565895E+03 -0.12189191318E+04  0.13953593412E+04  0.47000000000E+01 0. -1.
        -13    1    4    4    0    0  0.20257797397E+03  0.62449940551E+02 -0.37683229120E+03  0.43236605591E+03  0.00000000000E+00 0.  1.
         14    1    4    4    0    0  0.26216844546E+02  0.29705848466E+02 -0.14527477111E+03  0.15058060795E+03  0.00000000000E+00 0. -1.
         -5    1    5    5    0  501 -0.36712933475E+03 -0.37652541276E+02  0.59569238285E+02  0.37386126632E+03  0.47000000000E+01 0.  1.
         11    1    6    6    0    0 -0.47972898107E+03 -0.15951026634E+03  0.16056873783E+03  0.53043919531E+03  0.00000000000E+00 0. -1.
        -12    1    6    6    0    0 -0.44745185894E+02 -0.43068640356E+02  0.17449492098E+02  0.64509876897E+02  0.00000000000E+00 0.  1.
</event>
<event>
12    1  0.1081556E+000  0.5260412E+03  0.7818608E-02  0.1007197E+00
         -2   -1    0    0    0  501 -0.00000000000E+00  0.00000000000E+00  0.72950384160E+03  0.72950384160E+03  0.00000000000E+00 0.  1.
          2   -1    0    0  502    0  0.00000000000E+00 -0.00000000000E+00 -0.36520347460E+04  0.36520347460E+04  0.00000000000E+00 0. -1.
          6    2    1    2  502    0  0.78795758736E+02 -0.49086595632E+03  0.61254293488E+03  0.80757470342E+03  0.17265542523E+03 0.  0.
         24    2    3    3    0    0  0.68055920240E+02 -0.49678145582E+03  0.61067554613E+03  0.79431143059E+03  0.81133242252E+02 0.  0.
         -6    2    1    2    0  501 -0.78795758736E+02  0.49086595632E+03 -0.35350738393E+04  0.35739638842E+04  0.17120933856E+03 0.  0.
        -24    2    5    5    0    0 -0.70583519238E+02  0.44491684321E+03 -0.34069186921E+04  0.34374919324E+04  0.79515911781E+02 0.  0.
          5    1    3    3  502    0  0.10739838497E+02  0.59154995033E+01  0.18673887490E+01  0.13263272826E+02  0.47000000000E+01 0. -1.
        -11    1    4    4    0    0  0.56237663803E+02 -0.24056323326E+03  0.24754095975E+03  0.34972828135E+03  0.00000000000E+00 0.  1.
         12    1    4    4    0    0  0.11818256437E+02 -0.25621822256E+03  0.36313458638E+03  0.44458314924E+03  0.00000000000E+00 0. -1.
         -5    1    5    5    0  501 -0.82122394982E+01  0.45949113105E+02 -0.12815514721E+03  0.13647195180E+03  0.47000000000E+01 0.  1.
         11    1    6    6    0    0 -0.15537604636E+02  0.45316518076E+02 -0.57459196156E+03  0.57658557584E+03  0.00000000000E+00 0. -1.
        -12    1    6    6    0    0 -0.55045914602E+02  0.39960032513E+03 -0.28323267305E+04  0.28609063566E+04  0.00000000000E+00 0.  1.
</event>
<event>
12    1  0.1081556E+000  0.5634451E+03  0.7818608E-02  0.9984289E-01
         -2   -1    0    0    0  501 -0.00000000000E+00  0.00000000000E+00  0.18041935453E+03  0.18041935453E+03  0.00000000000E+00 0.  1.
          2   -1    0    0  502    0  0.00000000000E+00 -0.00000000000E+00 -0.17606257098E+04  0.17606257098E+04  0.00000000000E+00 0. -1.
          6    2    1    2  502    0  0.26304724920E+03  0.46758893129E+03 -0.76711695148E+03  0.95187173628E+03  0.17250542343E+03 0.  0.
         24    2    3    3    0    0  0.14499155171E+03  0.38504719740E+03 -0.56268958910E+03  0.70174592388E+03  0.80894213027E+02 0.  0.
         -6    2    1    2    0  501 -0.26304724920E+03 -0.46758893129E+03 -0.81308940375E+03  0.98917332800E+03  0.17180288231E+03 0.  0.
        -24    2    5    5    0    0 -0.26767659986E+03 -0.41335321442E+03 -0.66328290389E+03  0.82971480276E+03  0.77270960574E+02 0.  0.
          5    1    3    3  502    0  0.11805569749E+03  0.82541733890E+02 -0.20442736238E+03  0.25012581241E+03  0.47000000000E+01 0. -1.
        -11    1    4    4    0    0  0.15087618056E+03  0.31974510035E+03 -0.48230468752E+03  0.59801200880E+03  0.00000000000E+00 0.  1.
         12    1    4    4    0    0 -0.58846288538E+01  0.65302097051E+02 -0.80384901580E+02  0.10373391508E+03  0.00000000000E+00 0. -1.
         -5    1    5    5    0  501  0.46293506674E+01 -0.54235716875E+02 -0.14980649985E+03  0.15945852524E+03  0.47000000000E+01 0.  1.
         11    1    6    6    0    0 -0.22128622472E+03 -0.32046355003E+03 -0.47064727220E+03  0.61087914924E+03  0.00000000000E+00 0. -1.
        -12    1    6    6    0    0 -0.46390375150E+02 -0.92889664387E+02 -0.19263563169E+03  0.21883565353E+03  0.00000000000E+00 0.  1.
</event>
<event>
12    1  0.1081556E+000  0.5978348E+03  0.7818608E-02  0.9909908E-01
         -2   -1    0    0    0  501 -0.00000000000E+00  0.00000000000E+00  0.21168703996E+03  0.21168703996E+03  0.00000000000E+00 0.  1.
          2   -1    0    0  502    0  0.00000000000E+00 -0.00000000000E+00 -0.18053866260E+04  0.18053866260E+04  0.00000000000E+00 0. -1.
          6    2    1    2  502    0  0.15686839070E+03  0.55057592320E+03 -0.53971332971E+03  0.80519272061E+03  0.17118206639E+03 0.  0.
         24    2    3    3    0    0  0.11987379274E+03  0.35446499628E+03 -0.26090458470E+03  0.46228675357E+03  0.74984534664E+02 0.  0.
         -6    2    1    2    0  501 -0.15686839070E+03 -0.55057592320E+03 -0.10539862563E+04  0.12118809453E+04  0.17328259565E+03 0.  0.
        -24    2    5    5    0    0 -0.61501064033E+02 -0.23701728590E+03 -0.59127506774E+03  0.64483801923E+03  0.79058779481E+02 0.  0.
          5    1    3    3  502    0  0.36994597964E+02  0.19611092691E+03 -0.27880874502E+03  0.34290596704E+03  0.47000000000E+01 0. -1.
        -13    1    4    4    0    0  0.35807893284E+02  0.74619519928E+02 -0.96050026723E+02  0.12679071579E+03  0.00000000000E+00 0.  1.
         14    1    4    4    0    0  0.84065899453E+02  0.27984547635E+03 -0.16485455797E+03  0.33549603779E+03  0.00000000000E+00 0. -1.
         -5    1    5    5    0  501 -0.95367326669E+02 -0.31355863729E+03 -0.46271118858E+03  0.56704292611E+03  0.47000000000E+01 0.  1.
         11    1    6    6    0    0  0.78072269449E+01 -0.12280284201E+03 -0.26043141093E+03  0.28803821030E+03  0.00000000000E+00 0. -1.
        -12    1    6    6    0    0 -0.69308290978E+02 -0.11421444390E+03 -0.33084365682E+03  0.35679980892E+03  0.00000000000E+00 0.  1.
</event>
<event>
12    1  0.1081556E+000  0.2938777E+03  0.7818608E-02  0.1088342E+00
         -2   -1    0    0    0  501 -0.00000000000E+00  0.00000000000E+00  0.64613718319E+02  0.64613718319E+02  0.00000000000E+00 0.  1.
          2   -1    0    0  502    0  0.00000000000E+00 -0.00000000000E+00 -0.13473439669E+04  0.13473439669E+04  0.00000000000E+00 0. -1.
          6    2    1    2  502    0  0.23430959019E+03  0.44392225665E+02 -0.70383746048E+03  0.76263640161E+03  0.17133434136E+03 0.  0.
         24    2    3    3    0    0  0.47167910785E+02  0.40183409669E+02 -0.20041808147E+03  0.22552106626E+03  0.82781795867E+02 0.  0.
         -6    2    1    2    0  501 -0.23430959019E+03 -0.44392225665E+02 -0.57889278812E+03  0.64932128363E+03  0.17213255206E+03 0.  0.
        -24    2    5    5    0    0 -0.57824104040E+02 -0.52918566961E+02 -0.29143951345E+03  0.31187306473E+03  0.78637247961E+02 0.  0.
          5    1    3    3  502    0  0.18714167941E+03  0.42088159962E+01 -0.50341937902E+03  0.53711533536E+03  0.47000000000E+01 0. -1.
        -13    1    4    4    0    0  0.61495316805E+02  0.41744308521E+02 -0.10285492867E+03  0.12689916325E+03  0.00000000000E+00 0.  1.
         14    1    4    4    0    0 -0.14327406020E+02 -0.15608988529E+01 -0.97563152795E+02  0.98621903002E+02  0.00000000000E+00 0. -1.
         -5    1    5    5    0  501 -0.17648548615E+03  0.85263412963E+01 -0.28745327467E+03  0.33744821890E+03  0.47000000000E+01 0.  1.
         13    1    6    6    0    0  0.16807165066E+02 -0.25283074940E+02 -0.10126367158E+03  0.10571681918E+03  0.00000000000E+00 0. -1.
        -14    1    6    6    0    0 -0.74631269106E+02 -0.27635492021E+02 -0.19017584187E+03  0.20615624555E+03  0.00000000000E+00 0.  1.
</event>
<event>
12    1  0.1081556E+000  0.3119936E+03  0.7818608E-02  0.1079394E+00
         -2   -1    0    0    0  501 -0.00000000000E+00  0.00000000000E+00  0.90929046995E+02  0.90929046995E+02  0.00000000000E+00 0.  1.
          2   -1    0    0  502    0  0.00000000000E+00 -0.00000000000E+00 -0.18737330683E+04  0.18737330683E+04  0.00000000000E+00 0. -1.
          6    2    1    2  502    0  0.25162377968E+03  0.69899324499E+02 -0.15329502866E+04  0.15641810334E+04  0.16889429257E+03 0.  0.
         24    2    3    3    0    0  0.23290160431E+03  0.96666855778E+02 -0.14560363212E+04  0.14804859400E+04  0.90604700375E+02 0.  0.
         -6    2    1    2    0  501 -0.25162377968E+03 -0.69899324499E+02 -0.24985373476E+03  0.40048108193E+03  0.17250439456E+03 0.  0.
        -24    2    5    5    0    0 -0.23668588329E+03 -0.87224166164E+02 -0.26227860973E+03  0.37402813492E+03  0.86479558749E+02 0.  0.
          5    1    3    3  502    0  0.18722175368E+02 -0.26767531279E+02 -0.76913965402E+02  0.83695093376E+02  0.47000000000E+01 0. -1.
        -13    1    4    4    0    0  0.96644536203E+02  0.56988875588E+02 -0.88478995509E+03  0.89187508260E+03  0.00000000000E+00 0.  1.
         14    1    4    4    0    0  0.13625706811E+03  0.39677980190E+02 -0.57124636606E+03  0.58861085741E+03  0.00000000000E+00 0. -1.
         -5    1    5    5    0  501 -0.14937896394E+02  0.17324841665E+02  0.12424874967E+02  0.26452947007E+02  0.47000000000E+01 0.  1.
         11    1    6    6    0    0 -0.18334855420E+03 -0.58343086091E+02 -0.24388614227E+03  0.31064619492E+03  0.00000000000E+00 0. -1.
        -12    1    6    6    0    0 -0.53337329084E+02 -0.28881080073E+02 -0.18392467459E+02  0.63381940008E+02  0.00000000000E+00 0.  1.
</event>
<event>
12    1  0.1081556E+000  0.1895591E+03  0.7818608E-02  0.1158860E+00
          2   -1    0    0  502    0  0.00000000000E+00  0.00000000000E+00  0.35489837219E+03  0.35489837219E+03  0.00000000000E+00 0. -1.
         -2   -1    0    0    0  501 -0.00000000000E+00 -0.00000000000E+00 -0.37367392439E+03  0.37367392439E+03  0.00000000000E+00 0.  1.
          6    2    1    2  502    0  0.42183689123E+02 -0.73050822068E+02 -0.32037765925E+03  0.37095482803E+03  0.16688245463E+03 0.  0.
         24    2    3    3    0    0  0.53524381352E+02  0.18672219445E+01 -0.24733498176E+03  0.26560471007E+03  0.80640702473E+02 0.  0.
         -6    2    1    2    0  501 -0.42183689123E+02  0.73050822068E+02  0.30160210705E+03  0.35761746855E+03  0.17265728076E+03 0.  0.
        -24    2    5    5    0    0 -0.44194389928E+02 -0.92884811112E+01  0.23153438854E+03  0.24937986444E+03  0.80887104838E+02 0.  0.
          5    1    3    3  502    0 -0.11340692229E+02 -0.74918044012E+02 -0.73042677490E+02  0.10535011796E+03  0.47000000000E+01 0. -1.
        -13    1    4    4    0    0  0.37002896456E+02 -0.27270618740E+02 -0.21196241279E+03  0.21688929303E+03  0.00000000000E+00 0.  1.
         14    1    4    4    0    0  0.16521484896E+02  0.29137840684E+02 -0.35372568966E+02  0.48715417049E+02  0.00000000000E+00 0. -1.
         -5    1    5    5    0  501  0.20107008048E+01  0.82339303179E+02  0.70067718510E+02  0.10823760411E+03  0.47000000000E+01 0.  1.
         13    1    6    6    0    0  0.89898159432E+01 -0.16722983747E+01  0.15823407322E+03  0.15849806088E+03  0.00000000000E+00 0. -1.
        -14    1    6    6    0    0 -0.53184205871E+02 -0.76161827364E+01  0.73300315319E+02  0.90881803566E+02  0.00000000000E+00 0.  1.
</event>
<event>
12    1  0.1081556E+000  0.3186586E+03  0.7818608E-02  0.1076268E+00
         -1   -1    0    0    0  501 -0.00000000000E+00  0.00000000000E+00  0.56675820167E+03  0.56675820167E+03  0.00000000000E+00 0.  1.
          1   -1    0    0  502    0  0.00000000000E+00 -0.00000000000E+00 -0.47760635201E+03  0.47760635201E+03  0.00000000000E+00 0. -1.
          6    2    1    2  502    0  0.54217903317E+02  0.26248768668E+03  0.45735465885E+03  0.55742856522E+03  0.17237736118E+03 0.  0.
         24    2    3    3    0    0  0.98693128610E+02  0.12880713677E+03  0.24026744264E+03  0.29858984220E+03  0.71385136799E+02 0.  0.
         -6    2    1    2    0  501 -0.54217903317E+02 -0.26248768668E+03 -0.36820280920E+03  0.48693598846E+03  0.17231941695E+03 0.  0.
        -24    2    5    5    0    0 -0.36187984294E+02 -0.43750723324E+02 -0.11363590463E+03  0.15078522464E+03  0.81236501331E+02 0.  0.
          5    1    3    3  502    0 -0.44475225293E+02  0.13368054991E+03  0.21708721621E+03  0.25883872302E+03  0.47000000000E+01 0. -1.
        -13    1    4    4    0    0  0.80771067980E+02  0.13552489611E+03  0.21988565754E+03  0.27063012633E+03  0.00000000000E+00 0.  1.
         14    1    4    4    0    0  0.17922060630E+02 -0.67177593327E+01  0.20381785096E+02  0.27959715867E+02  0.00000000000E+00 0. -1.
         -5    1    5    5    0  501 -0.18029919022E+02 -0.21873696336E+03 -0.25456690457E+03  0.33615076382E+03  0.47000000000E+01 0.  1.
         11    1    6    6    0    0 -0.25584281671E+02 -0.64829387862E+02 -0.10422880799E+03  0.12538360903E+03  0.00000000000E+00 0. -1.
        -12    1    6    6    0    0 -0.10603702623E+02  0.21078664538E+02 -0.94070966414E+01  0.25401615603E+02  0.00000000000E+00 0.  1.
</event>
<event>
12    1  0.1099384E+000  0.4515470E+03  0.7818608E-02  0.1027262E+00
          2   -1    0    0  502    0  0.00000000000E+00  0.00000000000E+00  0.96695971648E+03  0.96695971648E+03  0.00000000000E+00 0. -1.
         -2   -1    0    0    0  501 -0.00000000000E+00 -0.00000000000E+00 -0.11178053015E+04  0.11178053015E+04  0.00000000000E+00 0.  1.
          6    2    1    2  502    0 -0.37738216418E+03 -0.17308341167E+03 -0.10144288015E+04  0.11114275473E+04  0.18392997098E+03 0.  0.
         24    2    3    3    0    0 -0.36528374144E+03 -0.19405309841E+03 -0.89047218099E+03  0.98504149832E+03  0.79228981635E+02 0.  0.
         -6    2    1    2    0  501  0.37738216418E+03  0.17308341167E+03  0.86358321649E+03  0.97333747072E+03  0.17098156297E+03 0.  0.
        -24    2    5    5    0    0  0.23523791384E+03  0.42287492813E+02  0.54973753264E+03  0.60478114726E+03  0.80148444340E+02 0.  0.
          5    1    3    3  502    0 -0.12098422737E+02  0.20969686735E+02 -0.12395662052E+03  0.12638604894E+03  0.47000000000E+01 0. -1.
        -13    1    4    4    0    0 -0.58553714730E+02 -0.57777338035E+02 -0.13066525974E+03  0.15440261786E+03  0.00000000000E+00 0.  1.
         14    1    4    4    0    0 -0.30673002671E+03 -0.13627576037E+03 -0.75980692124E+03  0.83063888045E+03  0.00000000000E+00 0. -1.
         -5    1    5    5    0  501  0.14214425034E+03  0.13079591886E+03  0.31384568385E+03  0.36855632346E+03  0.47000000000E+01 0.  1.
         11    1    6    6    0    0  0.15753316920E+03  0.62878760309E+02  0.33507145841E+03  0.37555734600E+03  0.00000000000E+00 0. -1.
        -12    1    6    6    0    0  0.77704744642E+02 -0.20591267495E+02  0.21466607423E+03  0.22922380126E+03  0.00000000000E+00 0.  1.
</event>
<event>
12    1  0.1081556E+000  0.4337761E+03  0.7818608E-02  0.1032674E+00
          2   -1    0    0  502    0  0.00000000000E+00  0.00000000000E+00  0.15087907563E+04  0.15087907563E+04  0.00000000000E+00 0. -1.
         -2   -1    0    0    0  501 -0.00000000000E+00 -0.00000000000E+00 -0.29547367874E+03  0.29547367874E+03  0.00000000000E+00 0.  1.
          6    2    1    2  502    0  0.33875666402E+03 -0.20887496470E+03 -0.78998018033E+02  0.44117795310E+03  0.17324107813E+03 0.  0.
         24    2    3    3    0    0  0.28472956210E+03 -0.22945165133E+03 -0.55772344082E+02  0.37869715841E+03  0.81129523554E+02 0.  0.
         -6    2    1    2    0  501 -0.33875666402E+03  0.20887496470E+03  0.12923150956E+04  0.13630864819E+04  0.17187676583E+03 0.  0.
        -24    2    5    5    0    0 -0.32850965898E+03  0.22717214047E+03  0.11696679192E+04  0.12385705888E+04  0.80051763890E+02 0.  0.
          5    1    3    3  502    0  0.54027101916E+02  0.20576686628E+02 -0.23225673951E+02  0.62480794686E+02  0.47000000000E+01 0. -1.
        -11    1    4    4    0    0  0.21398479376E+03 -0.21084096929E+03 -0.55808420844E+02  0.30554539128E+03  0.00000000000E+00 0.  1.
         12    1    4    4    0    0  0.70744768339E+02 -0.18610682036E+02  0.36076761561E-01  0.73151767133E+02  0.00000000000E+00 0. -1.
         -5    1    5    5    0  501 -0.10247005038E+02 -0.18297175772E+02  0.12264717639E+03  0.12451589308E+03  0.47000000000E+01 0.  1.
         13    1    6    6    0    0 -0.26169222099E+03  0.13781311955E+03  0.84537962171E+03  0.89562379337E+03  0.00000000000E+00 0. -1.
        -14    1    6    6    0    0 -0.66817437987E+02  0.89359020919E+02  0.32428829746E+03  0.34294679545E+03  0.00000000000E+00 0.  1.
</event>
<event>
12    1  0.1081556E+000  0.2327699E+03  0.7818608E-02  0.1124705E+00
          2   -1    0    0  502    0  0.00000000000E+00  0.00000000000E+00  0.63960431183E+03  0.63960431183E+03  0.00000000000E+00 0. -1.
         -2   -1    0    0    0  501 -0.00000000000E+00 -0.00000000000E+00 -0.19560197330E+03  0.19560197330E+03  0.00000000000E+00 0.  1.
          6    2    1    2  502    0 -0.13511676344E+03  0.81969223672E+02 -0.92767074415E+02  0.24981046943E+03  0.16977646229E+03 0.  0.
         24    2    3    3    0    0 -0.98151724769E+02 -0.72898440314E+01 -0.85439743899E+02  0.15280853633E+03  0.79772150768E+02 0.  0.
         -6    2    1    2    0  501  0.13511676344E+03 -0.81969223672E+02  0.53676941295E+03  0.58539581570E+03  0.17202140847E+03 0.  0.
        -24    2    5    5    0    0  0.21121944266E+02 -0.27844059642E+01  0.11547840717E+03  0.14180449962E+03  0.79494428379E+02 0.  0.
          5    1    3    3  502    0 -0.36965038671E+02  0.89259067704E+02 -0.73273305159E+01  0.97001933093E+02  0.47000000000E+01 0. -1.
        -11    1    4    4    0    0 -0.45418675484E+01  0.44410502245E+01 -0.52497631462E+02  0.52880552163E+02  0.00000000000E+00 0.  1.
         12    1    4    4    0    0 -0.93609857221E+02 -0.11730894256E+02 -0.32942112437E+02  0.99927984172E+02  0.00000000000E+00 0. -1.
         -5    1    5    5    0  501  0.11399481917E+03 -0.79184817708E+02  0.42129100578E+03  0.44359131608E+03  0.47000000000E+01 0.  1.
         13    1    6    6    0    0  0.47108372535E+02 -0.18566482809E+02  0.59729742828E+02  0.78304247810E+02  0.00000000000E+00 0. -1.
        -14    1    6    6    0    0 -0.25986428270E+02  0.15782076845E+02  0.55748664345E+02  0.63500251811E+02  0.00000000000E+00 0.  1.
</event>
<event>
12    1  0.1081556E+000  0.2129135E+03  0.7818608E-02  0.1139279E+00
          2   -1    0    0  502    0  0.00000000000E+00  0.00000000000E+00  0.11451529996E+04  0.11451529996E+04  0.00000000000E+00 0. -1.
         -2   -1    0    0    0  501 -0.00000000000E+00 -0.00000000000E+00 -0.10506094535E+03  0.10506094535E+03  0.00000000000E+00 0.  1.
          6    2    1    2  502    0  0.47598197650E+02  0.11553519914E+03  0.26061896735E+02  0.21395951631E+03  0.17171337018E+03 0.  0.
         24    2    3    3    0    0  0.61905905683E+02  0.31319129481E+02  0.58437175628E+02  0.12248653898E+03  0.82309292951E+02 0.  0.
         -6    2    1    2    0  501 -0.47598197650E+02 -0.11553519914E+03  0.10140301575E+04  0.10362544286E+04  0.17306677866E+03 0.  0.
        -24    2    5    5    0    0 -0.75381732975E+00 -0.57762552548E+02  0.85541552278E+03  0.86100384515E+03  0.79087445500E+02 0.  0.
          5    1    3    3  502    0 -0.14307708032E+02  0.84216069664E+02 -0.32375278893E+02  0.91472977333E+02  0.47000000000E+01 0. -1.
        -11    1    4    4    0    0 -0.16540532303E+02  0.16566633210E+02 -0.25142747772E+00  0.23411658646E+02  0.00000000000E+00 0.  1.
         12    1    4    4    0    0  0.78446437985E+02  0.14752496271E+02  0.58688603106E+02  0.99074880335E+02  0.00000000000E+00 0. -1.
         -5    1    5    5    0  501 -0.46844380320E+02 -0.57772646597E+02  0.15861463472E+03  0.17525058347E+03  0.47000000000E+01 0.  1.
         13    1    6    6    0    0  0.36475213960E+02 -0.16079711655E+02  0.27001338023E+03  0.27293996384E+03  0.00000000000E+00 0. -1.
        -14    1    6    6    0    0 -0.37229031290E+02 -0.41682840893E+02  0.58540214255E+03  0.58806388131E+03  0.00000000000E+00 0.  1.
</event>
<event>
12    1  0.1081556E+000  0.6716077E+03  0.7818608E-02  0.9767058E-01
          2   -1    0    0  502    0  0.00000000000E+00  0.00000000000E+00  0.16581964714E+04  0.16581964714E+04  0.00000000000E+00 0. -1.
         -2   -1    0    0    0  501 -0.00000000000E+00 -0.00000000000E+00 -0.32230386029E+03  0.32230386029E+03  0.00000000000E+00 0.  1.
          6    2    1    2  502    0 -0.60586245135E+03 -0.23364664387E+03  0.27725945389E+03  0.72709502541E+03  0.17359235887E+03 0.  0.
         24    2    3    3    0    0 -0.18272531797E+03 -0.12592916145E+03  0.94879988838E+02  0.25388001198E+03  0.78779138548E+02 0.  0.
         -6    2    1    2    0  501  0.60586245135E+03  0.23364664387E+03  0.10586331572E+04  0.12534053063E+04  0.16929452464E+03 0.  0.
        -24    2    5    5    0    0  0.58913557223E+03  0.19690133935E+03  0.10220150213E+04  0.11986971371E+04  0.80680003655E+02 0.  0.
          5    1    3    3  502    0 -0.42313713338E+03 -0.10771748242E+03  0.18237946505E+03  0.47321501343E+03  0.47000000000E+01 0. -1.
        -11    1    4    4    0    0 -0.17544621144E+03 -0.90969703658E+02  0.92180083730E+02  0.21806886052E+03  0.00000000000E+00 0.  1.
         12    1    4    4    0    0 -0.72791065250E+01 -0.34959457794E+02  0.26999051079E+01  0.35811151457E+02  0.00000000000E+00 0. -1.
         -5    1    5    5    0  501  0.16726879121E+02  0.36745304519E+02  0.36618135975E+02  0.54708169149E+02  0.47000000000E+01 0.  1.
         13    1    6    6    0    0  0.50444264505E+03  0.15875287352E+03  0.81157690501E+03  0.96867018626E+03  0.00000000000E+00 0. -1.
        -14    1    6    6    0    0  0.84692927179E+02  0.38148465830E+02  0.21043811625E+03  0.23002695088E+03  0.00000000000E+00 0.  1.
</event>
<event>
12    1  0.1081556E+000  0.2671511E+03  0.7818608E-02  0.1102921E+00
         -1   -1    0    0    0  501 -0.00000000000E+00  0.00000000000E+00  0.36884164766E+03  0.36884164766E+03  0.00000000000E+00 0.  1.
          1   -1    0    0  502    0  0.00000000000E+00 -0.00000000000E+00 -0.39644258566E+03  0.39644258566E+03  0.00000000000E+00 0. -1.
          6    2    1    2  502    0 -0.15601501214E+03  0.14265863377E+03  0.25973361990E+03  0.37683766923E+03  0.17277993472E+03 0.  0.
         24    2    3    3    0    0 -0.17417187477E+03  0.14255186517E+03  0.19161001536E+03  0.30617934661E+03  0.79840579150E+02 0.  0.
         -6    2    1    2    0  501  0.15601501214E+03 -0.14265863377E+03 -0.28733455790E+03  0.38844656410E+03  0.15374464281E+03 0.  0.
        -24    2    5    5    0    0  0.97297463725E+02 -0.12938563407E+03 -0.27308574531E+03  0.32640591876E+03  0.75878592241E+02 0.  0.
          5    1    3    3  502    0  0.18156862626E+02  0.10676859778E+00  0.68123604538E+02  0.70658322618E+02  0.47000000000E+01 0. -1.
        -11    1    4    4    0    0 -0.36411607773E+02  0.25022605341E+02  0.85649597472E+02  0.96373178353E+02  0.00000000000E+00 0.  1.
         12    1    4    4    0    0 -0.13776026700E+03  0.11752925983E+03  0.10596041789E+03  0.20980616826E+03  0.00000000000E+00 0. -1.
         -5    1    5    5    0  501  0.58717548420E+02 -0.13272999701E+02 -0.14248812586E+02  0.62040645335E+02  0.47000000000E+01 0.  1.
         13    1    6    6    0    0  0.23420880262E+02 -0.93183085044E+02 -0.13570686755E+03  0.16627681399E+03  0.00000000000E+00 0. -1.
        -14    1    6    6    0    0  0.73876583463E+02 -0.36202549023E+02 -0.13737887776E+03  0.16012910477E+03  0.00000000000E+00 0.  1.
</event>
<event>
12    1  0.1081556E+000  0.3360489E+03  0.7818608E-02  0.1068491E+00
          2   -1    0    0  502    0  0.00000000000E+00  0.00000000000E+00  0.14406613974E+04  0.14406613974E+04  0.00000000000E+00 0. -1.
         -2   -1    0    0    0  501 -0.00000000000E+00 -0.00000000000E+00 -0.16230135019E+03  0.16230135019E+03  0.00000000000E+00 0.  1.
          6    2    1    2  502    0  0.26423162354E+03 -0.98166331000E+02  0.68419131179E+02  0.34877276632E+03  0.19366539596E+03 0.  0.
         24    2    3    3    0    0  0.26593995242E+03 -0.90322127048E+02  0.13455594208E+02  0.29302753944E+03  0.82473880279E+02 0.  0.
         -6    2    1    2    0  501 -0.26423162354E+03  0.98166331000E+02  0.12099409160E+04  0.12541899813E+04  0.17198985267E+03 0.  0.
        -24    2    5    5    0    0 -0.17054755392E+03  0.18341465542E+02  0.91982698871E+03  0.93901242041E+03  0.78992145308E+02 0.  0.
          5    1    3    3  502    0 -0.17083288773E+01 -0.78442039520E+01  0.54963536972E+02  0.55745226877E+02  0.47000000000E+01 0. -1.
        -11    1    4    4    0    0  0.11838968584E+03 -0.58280359205E+02 -0.31156377881E+02  0.13558553708E+03  0.00000000000E+00 0.  1.
         12    1    4    4    0    0  0.14755026657E+03 -0.32041767842E+02  0.44611972089E+02  0.15744200236E+03  0.00000000000E+00 0. -1.
         -5    1    5    5    0  501 -0.93684069618E+02  0.79824865458E+02  0.29011392730E+03  0.31517756085E+03  0.47000000000E+01 0.  1.
         13    1    6    6    0    0 -0.27096616305E+02  0.27627377837E+02  0.31341893016E+03  0.31579886700E+03  0.00000000000E+00 0. -1.
        -14    1    6    6    0    0 -0.14345093762E+03 -0.92859122951E+01  0.60640805855E+03  0.62321355340E+03  0.00000000000E+00 0.  1.
</event>
<event>
12    1  0.1081556E+000  0.5728520E+03  0.7818608E-02  0.9963387E-01
          2   -1    0    0  502    0  0.00000000000E+00  0.00000000000E+00  0.10936723419E+04  0.10936723419E+04  0.00000000000E+00 0. -1.
         -2   -1    0    0    0  501 -0.00000000000E+00 -0.00000000000E+00 -0.31220805731E+03  0.31220805731E+03  0.00000000000E+00 0.  1.
          6    2    1    2  502    0 -0.13860084659E+03  0.52747725243E+03  0.25229369966E+03  0.62631385783E+03  0.17656299475E+03 0.  0.
         24    2    3    3    0    0 -0.15685331489E+03  0.32061845106E+03  0.14882801365E+03  0.39425577354E+03  0.76737759736E+02 0.  0.
         -6    2    1    2    0  501  0.13860084659E+03 -0.52747725243E+03  0.52917058495E+03  0.77956654141E+03  0.17395412616E+03 0.  0.
        -24    2    5    5    0    0  0.85173014708E+02 -0.37197291907E+03  0.27275786873E+03  0.47492625853E+03  0.74429840349E+02 0.  0.
          5    1    3    3  502    0  0.18252468303E+02  0.20685880137E+03  0.10346568601E+03  0.23205808429E+03  0.47000000000E+01 0. -1.
        -11    1    4    4    0    0 -0.65872422315E+02  0.21244700194E+03  0.74579401422E+02  0.23459537884E+03  0.00000000000E+00 0.  1.
         12    1    4    4    0    0 -0.90980892574E+02  0.10817144912E+03  0.74248612233E+02  0.15966039470E+03  0.00000000000E+00 0. -1.
         -5    1    5    5    0  501  0.53427831878E+02 -0.15550433336E+03  0.25641271622E+03  0.30464028288E+03  0.47000000000E+01 0.  1.
         11    1    6    6    0    0  0.95867502025E+02 -0.36058877113E+03  0.26017889411E+03  0.45487129691E+03  0.00000000000E+00 0. -1.
        -12    1    6    6    0    0 -0.10694487318E+02 -0.11384147938E+02  0.12578974623E+02  0.20054961627E+02  0.00000000000E+00 0.  1.
</event>
<event>
12    1  0.1081556E+000  0.2811032E+03  0.7818608E-02  0.1095088E+00
         -3   -1    0    0    0  501 -0.00000000000E+00  0.00000000000E+00  0.79110984239E+02  0.79110984239E+02  0.00000000000E+00 0.  1.
          3   -1    0    0  502    0  0.00000000000E+00 -0.00000000000E+00 -0.14457742537E+04  0.14457742537E+04  0.00000000000E+00 0. -1.
          6    2    1    2  502    0 -0.52281734648E+02 -0.21623883375E+03 -0.25924237856E+03  0.38231883329E+03  0.17166381811E+03 0.  0.
         24    2    3    3    0    0 -0.95247099424E+02 -0.18088645715E+03 -0.17160931678E+03  0.27840802240E+03  0.79179220790E+02 0.  0.
         -6    2    1    2    0  501  0.52281734648E+02  0.21623883375E+03 -0.11074208909E+04  0.11425664047E+04  0.17200100706E+03 0.  0.
        -24    2    5    5    0    0  0.10235052567E+03  0.16016562149E+03 -0.78794792184E+03  0.81433454006E+03  0.78422950705E+02 0.  0.
          5    1    3    3  502    0  0.42965364775E+02 -0.35352376598E+02 -0.87633061786E+02  0.10391081089E+03  0.47000000000E+01 0. -1.
        -11    1    4    4    0    0 -0.39821353567E+02 -0.14940227485E+03 -0.13248614236E+03  0.20361571120E+03  0.00000000000E+00 0.  1.
         12    1    4    4    0    0 -0.55425745857E+02 -0.31484182305E+02 -0.39123174421E+02  0.74792311209E+02  0.00000000000E+00 0. -1.
         -5    1    5    5    0  501 -0.50068791027E+02  0.56073212258E+02 -0.31947296911E+03  0.32823186463E+03  0.47000000000E+01 0.  1.
         13    1    6    6    0    0  0.79150478113E+02  0.16295603829E+03 -0.66787559962E+03  0.69200959904E+03  0.00000000000E+00 0. -1.
        -14    1    6    6    0    0  0.23200047561E+02 -0.27904167957E+01 -0.12007232222E+03  0.12232494102E+03  0.00000000000E+00 0.  1.
</event>
<event>
12    1  0.1081556E+000  0.8079617E+03  0.7818608E-02  0.9548564E-01
         -2   -1    0    0    0  501 -0.00000000000E+00  0.00000000000E+00  0.68893781294E+03  0.68893781294E+03  0.00000000000E+00 0.  1.
          2   -1    0    0  502    0  0.00000000000E+00 -0.00000000000E+00 -0.11254390580E+04  0.11254390580E+04  0.00000000000E+00 0. -1.
          6    2    1    2  502    0 -0.38513502860E+03  0.68887704232E+03  0.14242419380E+03  0.82040765787E+03  0.17292629765E+03 0.  0.
         24    2    3    3    0    0 -0.22247335852E+03  0.29692274181E+03  0.26388965683E+02  0.38043804896E+03  0.79870030228E+02 0.  0.
         -6    2    1    2    0  501  0.38513502860E+03 -0.68887704232E+03 -0.57892543887E+03  0.99396921308E+03  0.17303052643E+03 0.  0.
        -24    2    5    5    0    0  0.15031092984E+03 -0.38902713762E+03 -0.27536940662E+03  0.50691615906E+03  0.84853949705E+02 0.  0.
          5    1    3    3  502    0 -0.16266167008E+03  0.39195430051E+03  0.11603522812E+03  0.43996960891E+03  0.47000000000E+01 0. -1.
        -13    1    4    4    0    0 -0.75403826305E+02  0.16594437088E+03  0.20374375585E+02  0.18340770547E+03  0.00000000000E+00 0.  1.
         14    1    4    4    0    0 -0.14706953222E+03  0.13097837093E+03  0.60145900988E+01  0.19703034348E+03  0.00000000000E+00 0. -1.
         -5    1    5    5    0  501  0.23482409876E+03 -0.29984990470E+03 -0.30355603225E+03  0.48705305401E+03  0.47000000000E+01 0.  1.
         11    1    6    6    0    0  0.84152043970E+02 -0.11510836002E+03 -0.11087699597E+03  0.18062449803E+03  0.00000000000E+00 0. -1.
        -12    1    6    6    0    0  0.66158885871E+02 -0.27391877760E+03 -0.16449241065E+03  0.32629166104E+03  0.00000000000E+00 0.  1.
</event>
<event>
12    1  0.1081556E+000  0.6962554E+03  0.7818608E-02  0.9723657E-01
          2   -1    0    0  502    0  0.00000000000E+00  0.00000000000E+00  0.41221090653E+03  0.41221090653E+03  0.00000000000E+00 0. -1.
         -2   -1    0    0    0  501 -0.00000000000E+00 -0.00000000000E+00 -0.15379022248E+04  0.15379022248E+04  0.00000000000E+00 0.  1.
          6    2    1    2  502    0 -0.56221656632E+03  0.37319457055E+03 -0.10358707080E+04  0.12481577478E+04  0.17177888333E+03 0.  0.
         24    2    3    3    0    0 -0.31613959186E+03  0.13766344702E+03 -0.47977872170E+03  0.59601575809E+03  0.78432747675E+02 0.  0.
         -6    2    1    2    0  501  0.56221656632E+03 -0.37319457055E+03 -0.89820610253E+02  0.70195538351E+03  0.17120736982E+03 0.  0.
        -24    2    5    5    0    0  0.41792458118E+03 -0.34369511719E+03 -0.48622484933E+02  0.54895286636E+03  0.78726198385E+02 0.  0.
          5    1    3    3  502    0 -0.24607697446E+03  0.23553112354E+03 -0.55609198629E+03  0.65214198970E+03  0.47000000000E+01 0. -1.
        -13    1    4    4    0    0 -0.25620394606E+03  0.14200910222E+03 -0.41061934539E+03  0.50439596936E+03  0.00000000000E+00 0.  1.
         14    1    4    4    0    0 -0.59935645798E+02 -0.43456552028E+01 -0.69159376310E+02  0.91619788735E+02  0.00000000000E+00 0. -1.
         -5    1    5    5    0  501  0.14429198514E+03 -0.29499453366E+02 -0.41198125321E+02  0.15300251715E+03  0.47000000000E+01 0.  1.
         11    1    6    6    0    0  0.30288418252E+03 -0.23602212398E+03  0.22695997383E+00  0.38398609680E+03  0.00000000000E+00 0. -1.
        -12    1    6    6    0    0  0.11504039866E+03 -0.10767299321E+03 -0.48849444907E+02  0.16496676956E+03  0.00000000000E+00 0.  1.
</event>
<event>
12    1  0.1081556E+000  0.1406823E+04  0.7818608E-02  0.8948894E-01
          2   -1    0    0  502    0  0.00000000000E+00  0.00000000000E+00  0.28542089014E+04  0.28542089014E+04  0.00000000000E+00 0. -1.
         -2   -1    0    0    0  501 -0.00000000000E+00 -0.00000000000E+00 -0.73672642099E+03  0.73672642099E+03  0.00000000000E+00 0.  1.
          6    2    1    2  502    0  0.11222598790E+04  0.83049514205E+03  0.62329822778E+03  0.15385787923E+04  0.17185634300E+03 0.  0.
         24    2    3    3    0    0  0.32666757049E+03  0.27087989832E+03  0.15206635350E+03  0.45773749426E+03  0.79446943717E+02 0.  0.
         -6    2    1    2    0  501 -0.11222598790E+04 -0.83049514205E+03  0.14941842526E+04  0.20523565300E+04  0.17433108943E+03 0.  0.
        -24    2    5    5    0    0 -0.68005053890E+03 -0.58837095159E+03  0.96033189739E+03  0.13180584630E+04  0.79947774683E+02 0.  0.
          5    1    3    3  502    0  0.79559230846E+03  0.55961524373E+03  0.47123187428E+03  0.10808412981E+04  0.47000000000E+01 0. -1.
        -13    1    4    4    0    0  0.15867434182E+03  0.13154508127E+03  0.11602949835E+03  0.23652589635E+03  0.00000000000E+00 0.  1.
         14    1    4    4    0    0  0.16799322867E+03  0.13933481705E+03  0.36036855145E+02  0.22121159791E+03  0.00000000000E+00 0. -1.
         -5    1    5    5    0  501 -0.44220934005E+03 -0.24212419046E+03  0.53385235523E+03  0.73429806701E+03  0.47000000000E+01 0.  1.
         11    1    6    6    0    0 -0.55508375531E+03 -0.45053056755E+03  0.79487382177E+03  0.10690744409E+04  0.00000000000E+00 0. -1.
        -12    1    6    6    0    0 -0.12496678359E+03 -0.13784038404E+03  0.16545807562E+03  0.24898402210E+03  0.00000000000E+00 0.  1.
</event>
<event>
12    1  0.1081556E+000  0.2000847E+03  0.7818608E-02  0.1149668E+00
          2   -1    0    0  502    0  0.00000000000E+00  0.00000000000E+00  0.11013401257E+04  0.11013401257E+04  0.00000000000E+00 0. -1.
         -2   -1    0    0    0  501 -0.00000000000E+00 -0.00000000000E+00 -0.37987895599E+02  0.37987895599E+02  0.00000000000E+00 0.  1.
          6    2    1    2  502    0 -0.31279216019E+02 -0.94432395764E+02  0.40867051387E+03  0.45419141073E+03  0.17141289903E+03 0.  0.
         24    2    3    3    0    0 -0.63546740654E+02 -0.11719105415E+03  0.29245959988E+03  0.33136545172E+03  0.80613358754E+02 0.  0.
         -6    2    1    2    0  501  0.31279216019E+02  0.94432395764E+02  0.65468171625E+03  0.68513661059E+03  0.17580716381E+03 0.  0.
        -24    2    5    5    0    0  0.14403979845E+02  0.54868167390E+02  0.14841030500E+03  0.17701956342E+03  0.78053294467E+02 0.  0.
          5    1    3    3  502    0  0.32267524636E+02  0.22758658388E+02  0.11621091399E+03  0.12282595902E+03  0.47000000000E+01 0. -1.
        -13    1    4    4    0    0 -0.31620763587E+01 -0.61658104460E+02  0.65391867739E+02  0.89932290858E+02  0.00000000000E+00 0.  1.
         14    1    4    4    0    0 -0.60384664296E+02 -0.55532949691E+02  0.22706773214E+03  0.24143316086E+03  0.00000000000E+00 0. -1.
         -5    1    5    5    0  501  0.16875236174E+02  0.39564228374E+02  0.50627141125E+03  0.50811704716E+03  0.47000000000E+01 0.  1.
         13    1    6    6    0    0  0.27945167298E+02  0.69082583536E+02  0.13131953916E+03  0.15099058609E+03  0.00000000000E+00 0. -1.
        -14    1    6    6    0    0 -0.13541187454E+02 -0.14214416146E+02  0.17090765841E+02  0.26028977334E+02  0.00000000000E+00 0.  1.
</event>
<event>
12    1  0.1081556E+000  0.4984318E+03  0.7818608E-02  0.1014189E+00
         -1   -1    0    0    0  501 -0.00000000000E+00  0.00000000000E+00  0.31373269493E+03  0.31373269493E+03  0.00000000000E+00 0.  1.
          1   -1    0    0  502    0  0.00000000000E+00 -0.00000000000E+00 -0.79708941361E+03  0.79708941361E+03  0.00000000000E+00 0. -1.
          6    2    1    2  502    0 -0.61808883569E+02 -0.46329575133E+03 -0.19657211825E+03  0.53550983544E+03  0.17224080497E+03 0.  0.
         24    2    3    3    0    0 -0.10819414870E+03 -0.36653468087E+03 -0.16263943190E+03  0.42286963489E+03  0.79457518293E+02 0.  0.
         -6    2    1    2    0  501  0.61808883569E+02  0.46329575133E+03 -0.28678460043E+03  0.57531227310E+03  0.17399860126E+03 0.  0.
        -24    2    5    5    0    0  0.31400814058E+02  0.32971270675E+03 -0.27429458507E+03  0.43766354998E+03  0.81335007645E+02 0.  0.
          5    1    3    3  502    0  0.46385265127E+02 -0.96761070460E+02 -0.33932686346E+02  0.11264020055E+03  0.47000000000E+01 0. -1.
        -11    1    4    4    0    0 -0.23865814973E+01 -0.46011059860E+02  0.43630840469E+01  0.46279043887E+02  0.00000000000E+00 0.  1.
         12    1    4    4    0    0 -0.10580756720E+03 -0.32052362101E+03 -0.16700251595E+03  0.37659059101E+03  0.00000000000E+00 0. -1.
         -5    1    5    5    0  501  0.30408069511E+02  0.13358304458E+03 -0.12490015362E+02  0.13764872312E+03  0.47000000000E+01 0.  1.
         13    1    6    6    0    0  0.25259422082E+02  0.30458373336E+03 -0.21709395115E+03  0.37488541270E+03  0.00000000000E+00 0. -1.
        -14    1    6    6    0    0  0.61413919755E+01  0.25128973386E+02 -0.57200633925E+02  0.62778137279E+02  0.00000000000E+00 0.  1.
</event>
<event>
12    1  0.1081556E+000  0.4164197E+03  0.7818608E-02  0.1038238E+00
          1   -1    0    0  502    0  0.00000000000E+00  0.00000000000E+00  0.12000006757E+04  0.12000006757E+04  0.00000000000E+00 0. -1.
         -1   -1    0    0    0  501 -0.00000000000E+00 -0.00000000000E+00 -0.14530405528E+03  0.14530405528E+03  0.00000000000E+00 0.  1.
          6    2    1    2  502    0 -0.34709439836E+03  0.15063140910E+03  0.47825721651E+03  0.63455901683E+03  0.17541618489E+03 0.  0.
         24    2    3    3    0    0 -0.20322526777E+03  0.11858699527E+03  0.19875056770E+03  0.31853492294E+03  0.81236223835E+02 0.  0.
         -6    2    1    2    0  501  0.34709439836E+03 -0.15063140910E+03  0.57643940386E+03  0.71074571410E+03  0.17237384082E+03 0.  0.
        -24    2    5    5    0    0  0.18265236552E+03 -0.10351083343E+03  0.43261219275E+03  0.48720626015E+03  0.78359755874E+02 0.  0.
          5    1    3    3  502    0 -0.14386913059E+03  0.32044413827E+02  0.27950664881E+03  0.31602409389E+03  0.47000000000E+01 0. -1.
        -13    1    4    4    0    0 -0.11652902662E+03  0.21562275206E+02  0.10256128492E+03  0.15672511899E+03  0.00000000000E+00 0.  1.
         14    1    4    4    0    0 -0.86696241149E+02  0.97024720064E+02  0.96189282787E+02  0.16180980395E+03  0.00000000000E+00 0. -1.
         -5    1    5    5    0  501  0.16444203284E+03 -0.47120575668E+02  0.14382721111E+03  0.22353945395E+03  0.47000000000E+01 0.  1.
         13    1    6    6    0    0  0.16232652146E+03 -0.60031966998E+02  0.30231490012E+03  0.34835044921E+03  0.00000000000E+00 0. -1.
        -14    1    6    6    0    0  0.20325844057E+02 -0.43478866430E+02  0.13029729264E+03  0.13885581094E+03  0.00000000000E+00 0.  1.
</event>
<event>
12    1  0.1081556E+000  0.5347356E+03  0.7818608E-02  0.1005090E+00
          1   -1    0    0  502    0  0.00000000000E+00  0.00000000000E+00  0.77524533590E+03  0.77524533590E+03  0.00000000000E+00 0. -1.
         -1   -1    0    0    0  501 -0.00000000000E+00 -0.00000000000E+00 -0.38374025937E+03  0.38374025937E+03  0.00000000000E+00 0.  1.
          6    2    1    2  502    0  0.86419532652E+02  0.49875369206E+03  0.81459866806E+02  0.54060416305E+03  0.17144553139E+03 0.  0.
         24    2    3    3    0    0  0.98722360762E+02  0.44997249810E+03  0.29609802749E+02  0.46820607186E+03  0.78222961806E+02 0.  0.
         -6    2    1    2    0  501 -0.86419532652E+02 -0.49875369206E+03  0.31004520972E+03  0.61838143223E+03  0.17333200132E+03 0.  0.
        -24    2    5    5    0    0 -0.28181008951E+02 -0.33733950414E+03  0.26465679221E+03  0.44081886818E+03  0.98417206640E+02 0.  0.
          5    1    3    3  502    0 -0.12302828110E+02  0.48781193968E+02  0.51850064057E+02  0.72398091185E+02  0.47000000000E+01 0. -1.
        -13    1    4    4    0    0  0.11211723334E+03  0.39894260307E+03  0.29513231995E+02  0.41544735578E+03  0.00000000000E+00 0.  1.
         14    1    4    4    0    0 -0.13394872575E+02  0.51029895022E+02  0.96570754002E-01  0.52758716087E+02  0.00000000000E+00 0. -1.
         -5    1    5    5    0  501 -0.58238523701E+02 -0.16141418792E+03  0.45388417508E+02  0.17756256404E+03  0.47000000000E+01 0.  1.
         11    1    6    6    0    0  0.32488745070E+02 -0.17431213705E+03  0.11492041896E+03  0.21129823088E+03  0.00000000000E+00 0. -1.
        -12    1    6    6    0    0 -0.60669754021E+02 -0.16302736709E+03  0.14973637325E+03  0.22952063730E+03  0.00000000000E+00 0.  1.
</event>
<event>
12    1  0.1081556E+000  0.2256304E+03  0.7818608E-02  0.1129754E+00
         -2   -1    0    0    0  501 -0.00000000000E+00  0.00000000000E+00  0.11797366278E+03  0.11797366278E+03  0.00000000000E+00 0.  1.
          2   -1    0    0  502    0  0.00000000000E+00 -0.00000000000E+00 -0.12889169463E+04  0.12889169463E+04  0.00000000000E+00 0. -1.
          6    2    1    2  502    0  0.14613740537E+02 -0.14547740693E+03 -0.11574900273E+02  0.22573372810E+03  0.17159399857E+03 0.  0.
         24    2    3    3    0    0 -0.39158163882E+02 -0.23780014425E+02  0.26142533480E+01  0.91849094449E+02  0.79564885131E+02 0.  0.
         -6    2    1    2    0  501 -0.14613740537E+02  0.14547740693E+03 -0.11593683832E+04  0.11811568810E+04  0.17210256273E+03 0.  0.
        -24    2    5    5    0    0  0.46320885395E+02  0.62702871699E+02 -0.76955068105E+03  0.77798869863E+03  0.83551720219E+02 0.  0.
          5    1    3    3  502    0  0.53771904418E+02 -0.12169739250E+03 -0.14189153621E+02  0.13388463365E+03  0.47000000000E+01 0. -1.
        -13    1    4    4    0    0 -0.34408189076E+02 -0.51842488812E+02 -0.48930330595E+01  0.62414012003E+02  0.00000000000E+00 0.  1.
         14    1    4    4    0    0 -0.47499748054E+01  0.28062474388E+02  0.75072864075E+01  0.29435082446E+02  0.00000000000E+00 0. -1.
         -5    1    5    5    0  501 -0.60934625932E+02  0.82774535228E+02 -0.38981770218E+03  0.40316818234E+03  0.47000000000E+01 0.  1.
         13    1    6    6    0    0 -0.62517636293E+00  0.49759144636E+02 -0.58528431345E+03  0.58739602560E+03  0.00000000000E+00 0. -1.
        -14    1    6    6    0    0  0.46946061758E+02  0.12943727063E+02 -0.18426636760E+03  0.19059267303E+03  0.00000000000E+00 0.  1.
</event>
<event>
12    1  0.1081556E+000  0.3325033E+03  0.7818608E-02  0.1070035E+00
          2   -1    0    0  502    0  0.00000000000E+00  0.00000000000E+00  0.65146040863E+03  0.65146040863E+03  0.00000000000E+00 0. -1.
         -2   -1    0    0    0  501 -0.00000000000E+00 -0.00000000000E+00 -0.56296867589E+03  0.56296867589E+03  0.00000000000E+00 0.  1.
          6    2    1    2  502    0 -0.21041700680E+02  0.28349069583E+03 -0.46325834645E+03  0.57023926079E+03  0.17249577154E+03 0.  0.
         24    2    3    3    0    0 -0.27005431307E+02  0.11763828632E+03 -0.12128633165E+03  0.19009516084E+03  0.82811449691E+02 0.  0.
         -6    2    1    2    0  501  0.21041700680E+02 -0.28349069583E+03  0.55175007919E+03  0.64418982374E+03  0.17246057908E+03 0.  0.
        -24    2    5    5    0    0 -0.29767140857E+02 -0.25114698503E+03  0.49415554659E+03  0.56072202042E+03  0.79111245651E+02 0.  0.
          5    1    3    3  502    0  0.59637306268E+01  0.16585240952E+03 -0.34197201479E+03  0.38014409995E+03  0.47000000000E+01 0. -1.
        -13    1    4    4    0    0  0.42464666799E+01  0.10302498055E+03 -0.11598174362E+03  0.15519002529E+03  0.00000000000E+00 0.  1.
         14    1    4    4    0    0 -0.31251897987E+02  0.14613305768E+02 -0.53045880318E+01  0.34905135545E+02  0.00000000000E+00 0. -1.
         -5    1    5    5    0  501  0.50808841537E+02 -0.32343710798E+02  0.57594532594E+02  0.83467803321E+02  0.47000000000E+01 0.  1.
         13    1    6    6    0    0  0.11045078960E+02 -0.10759199360E+03  0.27567397610E+03  0.29613201778E+03  0.00000000000E+00 0. -1.
        -14    1    6    6    0    0 -0.40812219817E+02 -0.14355499143E+03  0.21848157050E+03  0.26459000264E+03  0.00000000000E+00 0.  1.
</event>
<event>
12    1  0.1081556E+000  0.3691112E+03  0.7818608E-02  0.1055033E+00
          3   -1    0    0  502    0  0.00000000000E+00  0.00000000000E+00  0.80705071653E+03  0.80705071653E+03  0.00000000000E+00 0. -1.
         -3   -1    0    0    0  501 -0.00000000000E+00 -0.00000000000E+00 -0.38342989475E+03  0.38342989475E+03  0.00000000000E+00 0.  1.
          6    2    1    2  502    0  0.32603143288E+03  0.18895795031E+02 -0.23353290369E+03  0.43672730695E+03  0.17187081554E+03 0.  0.
         24    2    3    3    0    0  0.15178192468E+03 -0.30621230483E+02 -0.57537745811E+02  0.18411849372E+03  0.81324136160E+02 0.  0.
         -6    2    1    2    0  501 -0.32603143288E+03 -0.18895795031E+02  0.65715372546E+03  0.75375330433E+03  0.17216119949E+03 0.  0.
        -24    2    5    5    0    0 -0.30441072151E+03 -0.31957336290E+02  0.65550343490E+03  0.72800699432E+03  0.81377342656E+02 0.  0.
          5    1    3    3  502    0  0.17424950820E+03  0.49517025514E+02 -0.17599515788E+03  0.25260881323E+03  0.47000000000E+01 0. -1.
        -13    1    4    4    0    0  0.25954866004E+02  0.23822695615E+02  0.51379201892E+00  0.35234072683E+02  0.00000000000E+00 0.  1.
         14    1    4    4    0    0  0.12582705867E+03 -0.54443926098E+02 -0.58051537830E+02  0.14888442104E+03  0.00000000000E+00 0. -1.
         -5    1    5    5    0  501 -0.21620711374E+02  0.13061541259E+02  0.16502905584E+01  0.25746310013E+02  0.47000000000E+01 0.  1.
         13    1    6    6    0    0 -0.15368480330E+03 -0.39840851705E+02  0.25948890117E+03  0.30420519730E+03  0.00000000000E+00 0. -1.
        -14    1    6    6    0    0 -0.15072591820E+03  0.78835154148E+01  0.39601453373E+03  0.42380179702E+03  0.00000000000E+00 0.  1.
</event>
<event>
12    1  0.1081556E+000  0.4048184E+03  0.7818608E-02  0.1042124E+00
         -2   -1    0    0    0  501 -0.00000000000E+00  0.00000000000E+00  0.22562497105E+03  0.22562497105E+03  0.00000000000E+00 0.  1.
          2   -1    0    0  502    0  0.00000000000E+00 -0.00000000000E+00 -0.10141369073E+04  0.10141369073E+04  0.00000000000E+00 0. -1.
          6    2    1    2  502    0  0.83382058683E+02  0.35725678005E+03 -0.63928374683E+02  0.40969133550E+03  0.17080743161E+03 0.  0.
         24    2    3    3    0    0  0.44014973252E+02  0.14419318654E+03 -0.69816930171E+02  0.19289044209E+03  0.97996561157E+02 0.  0.
         -6    2    1    2    0  501 -0.83382058683E+02 -0.35725678005E+03 -0.72458356154E+03  0.83007054284E+03  0.17149575455E+03 0.  0.
        -24    2    5    5    0    0  0.29179554901E+02 -0.12819922862E+03 -0.28321995897E+03  0.32020644487E+03  0.70937532631E+02 0.  0.
          5    1    3    3  502    0  0.39367085431E+02  0.21306359351E+03  0.58885554885E+01  0.21680089340E+03  0.47000000000E+01 0. -1.
        -11    1    4    4    0    0  0.51786209218E+02  0.24779901121E+02 -0.72808539101E+01  0.57869385675E+02  0.00000000000E+00 0.  1.
         12    1    4    4    0    0 -0.77712359660E+01  0.11941328542E+03 -0.62536076261E+02  0.13502105642E+03  0.00000000000E+00 0. -1.
         -5    1    5    5    0  501 -0.11256161358E+03 -0.22905755142E+03 -0.44136360257E+03  0.50986409796E+03  0.47000000000E+01 0.  1.
         13    1    6    6    0    0 -0.57256911798E+01 -0.74532742883E+02 -0.21020001208E+03  0.22309629845E+03  0.00000000000E+00 0. -1.
        -14    1    6    6    0    0  0.34905246081E+02 -0.53666485738E+02 -0.73019946890E+02  0.97110146428E+02  0.00000000000E+00 0.  1.
</event>
<event>
12    1  0.1081556E+000  0.3356370E+03  0.7818608E-02  0.1068670E+00
          1   -1    0    0  502    0  0.00000000000E+00  0.00000000000E+00  0.75580151061E+03  0.75580151061E+03  0.00000000000E+00 0. -1.
         -1   -1    0    0    0  501 -0.00000000000E+00 -0.00000000000E+00 -0.19686490255E+03  0.19686490255E+03  0.00000000000E+00 0.  1.
          6    2    1    2  502    0 -0.67760117715E+02 -0.27561552407E+03  0.47116709395E+02  0.34263091381E+03  0.18606613914E+03 0.  0.
         24    2    3    3    0    0 -0.12094679390E+02 -0.26471680840E+03  0.14623035726E+02  0.27709197992E+03  0.79654643563E+02 0.  0.
         -6    2    1    2    0  501  0.67760117715E+02  0.27561552407E+03  0.51181989867E+03  0.61003549935E+03  0.17212887941E+03 0.  0.
        -24    2    5    5    0    0  0.59763878389E+02  0.13106891805E+03  0.15866153552E+03  0.22832804511E+03  0.78799942214E+02 0.  0.
          5    1    3    3  502    0 -0.55665438325E+02 -0.10898715664E+02  0.32493673669E+02  0.65538933891E+02  0.47000000000E+01 0. -1.
        -13    1    4    4    0    0  0.29876816598E+02 -0.17582573902E+03  0.12143333364E+02  0.17875898640E+03  0.00000000000E+00 0.  1.
         14    1    4    4    0    0 -0.41971495988E+02 -0.88891069383E+02  0.24797023616E+01  0.98332993524E+02  0.00000000000E+00 0. -1.
         -5    1    5    5    0  501  0.79962393264E+01  0.14454660602E+03  0.35315836315E+03  0.38170745423E+03  0.47000000000E+01 0.  1.
         11    1    6    6    0    0  0.26383262794E+02  0.93103315488E+02  0.14773582942E+03  0.17660741549E+03  0.00000000000E+00 0. -1.
        -12    1    6    6    0    0  0.33380615595E+02  0.37965602559E+02  0.10925706103E+02  0.51720629627E+02  0.00000000000E+00 0.  1.
</event>
<event>
12    1  0.1081556E+000  0.2039507E+03  0.7818608E-02  0.1146448E+00
         -2   -1    0    0    0  501 -0.00000000000E+00  0.00000000000E+00  0.11090242417E+03  0.11090242417E+03  0.00000000000E+00 0.  1.
          2   -1    0    0  502    0  0.00000000000E+00 -0.00000000000E+00 -0.10182918324E+04  0.10182918324E+04  0.00000000000E+00 0. -1.
          6    2    1    2  502    0  0.26076986667E+00 -0.10803661829E+03 -0.49577846594E+01  0.20400081871E+03  0.17297333758E+03 0.  0.
         24    2    3    3    0    0 -0.35755328974E+02 -0.10926058792E+03 -0.47015572292E+02  0.14841660352E+03  0.81244720069E+02 0.  0.
         -6    2    1    2    0  501 -0.26076986667E+00  0.10803661829E+03 -0.90243162356E+03  0.92519343786E+03  0.17299735074E+03 0.  0.
        -24    2    5    5    0    0 -0.40779068291E+02  0.57536622706E+02 -0.28310594842E+03  0.30247491079E+03  0.79804124368E+02 0.  0.
          5    1    3    3  502    0  0.36016098841E+02  0.12239696351E+01  0.42057787633E+02  0.55584215187E+02  0.47000000000E+01 0. -1.
        -11    1    4    4    0    0  0.25390158609E+02 -0.46635611644E+02 -0.21068365113E+02  0.57126319995E+02  0.00000000000E+00 0.  1.
         12    1    4    4    0    0 -0.61145487583E+02 -0.62624976280E+02 -0.25947207179E+02  0.91290283526E+02  0.00000000000E+00 0. -1.
         -5    1    5    5    0  501  0.40518298425E+02  0.50499995583E+02 -0.61932567514E+03  0.62271852706E+03  0.47000000000E+01 0.  1.
         11    1    6    6    0    0  0.63336218841E+01  0.50631758409E+02 -0.20273410661E+03  0.20905694848E+03  0.00000000000E+00 0. -1.
        -12    1    6    6    0    0 -0.47112690176E+02  0.69048642972E+01 -0.80371841806E+02  0.93417962308E+02  0.00000000000E+00 0.  1.
</event>
<event>
12    1  0.1081556E+000  0.1929335E+03  0.7818608E-02  0.1155842E+00
         -1   -1    0    0    0  501 -0.00000000000E+00  0.00000000000E+00  0.75453481885E+02  0.75453481885E+02  0.00000000000E+00 0.  1.
          1   -1    0    0  502    0  0.00000000000E+00 -0.00000000000E+00 -0.58338176317E+03  0.58338176317E+03  0.00000000000E+00 0. -1.
          6    2    1    2  502    0  0.15412748688E+02  0.89301299514E+02 -0.38487360269E+03  0.43113336063E+03  0.17186043663E+03 0.  0.
         24    2    3    3    0    0  0.79303841123E+01  0.47278590783E+02 -0.76154045017E+02  0.11944160726E+03  0.78541090092E+02 0.  0.
         -6    2    1    2    0  501 -0.15412748688E+02 -0.89301299514E+02 -0.12305467859E+03  0.22770188443E+03  0.16879993878E+03 0.  0.
        -24    2    5    5    0    0  0.49633833319E+02 -0.70724910050E+02 -0.50324774882E+02  0.12826412012E+03  0.80334122464E+02 0.  0.
          5    1    3    3  502    0  0.74823645756E+01  0.42022708731E+02 -0.30871955768E+03  0.31169175337E+03  0.47000000000E+01 0. -1.
        -11    1    4    4    0    0  0.68541731796E+00  0.67402366415E+02 -0.70017367055E+02  0.97190434120E+02  0.00000000000E+00 0.  1.
         12    1    4    4    0    0  0.72449667943E+01 -0.20123775631E+02 -0.61366779621E+01  0.22251173136E+02  0.00000000000E+00 0. -1.
         -5    1    5    5    0  501 -0.65046582007E+02 -0.18576389465E+02 -0.72729903709E+02  0.99437764305E+02  0.47000000000E+01 0.  1.
         13    1    6    6    0    0  0.32400542050E+02 -0.75609490211E+02 -0.84169510186E+01  0.82688785210E+02  0.00000000000E+00 0. -1.
        -14    1    6    6    0    0  0.17233291269E+02  0.48845801611E+01 -0.41907823863E+02  0.45575334911E+02  0.00000000000E+00 0.  1.
</event>
<event>
12    1  0.1081556E+000  0.5156571E+03  0.7818608E-02  0.1009771E+00
         -2   -1    0    0    0  501 -0.00000000000E+00  0.00000000000E+00  0.40849288765E+03  0.40849288765E+03  0.00000000000E+00 0.  1.
          2   -1    0    0  502    0  0.00000000000E+00 -0.00000000000E+00 -0.10845592616E+04  0.10845592616E+04  0.00000000000E+00 0. -1.
          6    2    1    2  502    0  0.31127118302E+03 -0.37298002874E+03  0.13383777813E+03  0.53314845604E+03  0.17415761282E+03 0.  0.
         24    2    3    3    0    0  0.96299045482E+02 -0.20949755202E+03  0.46623711324E+02  0.24930356255E+03  0.82557648814E+02 0.  0.
         -6    2    1    2    0  501 -0.31127118302E+03  0.37298002874E+03 -0.80990415207E+03  0.95990369319E+03  0.17165812957E+03 0.  0.
        -24    2    5    5    0    0 -0.21291817764E+03  0.29138173167E+03 -0.69971844156E+03  0.79110032665E+03  0.77436202523E+02 0.  0.
          5    1    3    3  502    0  0.21497213754E+03 -0.16348247672E+03  0.87214066804E+02  0.28384489349E+03  0.47000000000E+01 0. -1.
        -11    1    4    4    0    0  0.81574020011E+02 -0.18751988860E+03  0.10811888984E+02  0.20478019021E+03  0.00000000000E+00 0.  1.
         12    1    4    4    0    0  0.14725025471E+02 -0.21977663424E+02  0.35811822340E+02  0.44523372334E+02  0.00000000000E+00 0. -1.
         -5    1    5    5    0  501 -0.98353005381E+02  0.81598297075E+02 -0.11018571051E+03  0.16880336654E+03  0.47000000000E+01 0.  1.
         11    1    6    6    0    0 -0.12137687909E+03  0.12512765714E+03 -0.27067520337E+03  0.32195394558E+03  0.00000000000E+00 0. -1.
        -12    1    6    6    0    0 -0.91541298548E+02  0.16625407453E+03 -0.42904323819E+03  0.46914638107E+03  0.00000000000E+00 0.  1.
</event>
<event>
12    1  0.1081556E+000  0.3960053E+03  0.7818608E-02  0.1045172E+00
         -2   -1    0    0    0  501 -0.00000000000E+00  0.00000000000E+00  0.18324670188E+03  0.18324670188E+03  0.00000000000E+00 0.  1.
          2   -1    0    0  502    0  0.00000000000E+00 -0.00000000000E+00 -0.12789127257E+04  0.12789127257E+04  0.00000000000E+00 0. -1.
          6    2    1    2  502    0 -0.26585790575E+03  0.23887203525E+03 -0.12782832088E+03  0.41664660876E+03  0.17179651247E+03 0.  0.
         24    2    3    3    0    0 -0.26098334836E+03  0.15829689619E+03 -0.11284549351E+03  0.33441103579E+03  0.76983244862E+02 0.  0.
         -6    2    1    2    0  501  0.26585790575E+03 -0.23887203525E+03 -0.96783770299E+03  0.10455128189E+04  0.16925412787E+03 0.  0.
        -24    2    5    5    0    0  0.25931401581E+03 -0.15753525861E+03 -0.77027613038E+03  0.83171113808E+03  0.79730694731E+02 0.  0.
          5    1    3    3  502    0 -0.48745573888E+01  0.80575139067E+02 -0.14982827373E+02  0.82235572969E+02  0.47000000000E+01 0. -1.
        -13    1    4    4    0    0 -0.10380341696E+03  0.10515938341E+03 -0.39142589264E+02  0.15285871773E+03  0.00000000000E+00 0.  1.
         14    1    4    4    0    0 -0.15717993140E+03  0.53137512777E+02 -0.73702904241E+02  0.18155231806E+03  0.00000000000E+00 0. -1.
         -5    1    5    5    0  501  0.65438899410E+01 -0.81336776648E+02 -0.19756157261E+03  0.21380168078E+03  0.47000000000E+01 0.  1.
         13    1    6    6    0    0  0.12793799912E+03 -0.10381553461E+03 -0.49979416913E+03  0.52625089866E+03  0.00000000000E+00 0. -1.
        -14    1    6    6    0    0  0.13137601669E+03 -0.53719723996E+02 -0.27048196125E+03  0.30546023942E+03  0.00000000000E+00 0.  1.
</event>
<event>
12    1  0.1081556E+000  0.2250607E+03  0.7818608E-02  0.1130165E+00
          1   -1    0    0  502    0  0.00000000000E+00  0.00000000000E+00  0.38431735278E+03  0.38431735278E+03  0.00000000000E+00 0. -1.
         -1   -1    0    0    0  501 -0.00000000000E+00 -0.00000000000E+00 -0.46262895276E+03  0.46262895276E+03  0.00000000000E+00 0.  1.
          6    2    1    2  502    0  0.11281757803E+03  0.90873289439E+02 -0.39728330490E+03  0.45681480944E+03  0.17280041993E+03 0.  0.
         24    2    3    3    0    0  0.13637688439E+03  0.37109814455E+02 -0.32826804074E+03  0.36609133483E+03  0.79291651164E+02 0.  0.
         -6    2    1    2    0  501 -0.11281757803E+03 -0.90873289439E+02  0.31897170492E+03  0.39013149609E+03  0.17167957089E+03 0.  0.
        -24    2    5    5    0    0 -0.13897216667E+03 -0.61878119503E+02  0.30088628962E+03  0.34684229845E+03  0.81393217952E+02 0.  0.
          5    1    3    3  502    0 -0.23559306356E+02  0.53763474984E+02 -0.69015264164E+02  0.90723474613E+02  0.47000000000E+01 0. -1.
        -11    1    4    4    0    0  0.99202855270E+02  0.60430964712E+02 -0.26218015770E+03  0.28676042803E+03  0.00000000000E+00 0.  1.
         12    1    4    4    0    0  0.37174029116E+02 -0.23321150257E+02 -0.66087883036E+02  0.79330906803E+02  0.00000000000E+00 0. -1.
         -5    1    5    5    0  501  0.26154588641E+02 -0.28995169936E+02  0.18085415297E+02  0.43289197648E+02  0.47000000000E+01 0.  1.
         13    1    6    6    0    0 -0.72444138720E+02  0.91387923433E+01  0.15687568478E+03  0.17303656041E+03  0.00000000000E+00 0. -1.
        -14    1    6    6    0    0 -0.66528027951E+02 -0.71016911846E+02  0.14401060483E+03  0.17380573804E+03  0.00000000000E+00 0.  1.
</event>
<event>
12    1  0.1081556E+000  0.5175858E+03  0.7818608E-02  0.1009288E+00
         -2   -1    0    0    0  501 -0.00000000000E+00  0.00000000000E+00  0.42339665798E+03  0.42339665798E+03  0.00000000000E+00 0.  1.
          2   -1    0    0  502    0  0.00000000000E+00 -0.00000000000E+00 -0.67151913643E+03  0.67151913643E+03  0.00000000000E+00 0. -1.
          6    2    1    2  502    0  0.27052140648E+03 -0.40521812685E+03 -0.25548002677E+03  0.57657824711E+03  0.17259452271E+03 0.  0.
         24    2    3    3    0    0  0.22811649505E+03 -0.34185567867E+03 -0.27109425588E+03  0.49861113543E+03  0.78857646731E+02 0.  0.
         -6    2    1    2    0  501 -0.27052140648E+03  0.40521812685E+03  0.73575483142E+01  0.51833754730E+03  0.17673742594E+03 0.  0.
        -24    2    5    5    0    0 -0.23424534457E+03  0.34512789115E+03 -0.50067836122E+02  0.42752700897E+03  0.79299511222E+02 0.  0.
          5    1    3    3  502    0  0.42404911435E+02 -0.63362448180E+02  0.15614229116E+02  0.77967111682E+02  0.47000000000E+01 0. -1.
        -11    1    4    4    0    0  0.22151867401E+03 -0.33819596823E+03 -0.24794006604E+03  0.47425869756E+03  0.00000000000E+00 0.  1.
         12    1    4    4    0    0  0.65978210363E+01 -0.36597104402E+01 -0.23154189839E+02  0.24352437867E+02  0.00000000000E+00 0. -1.
         -5    1    5    5    0  501 -0.36276061913E+02  0.60090235695E+02  0.57425384436E+02  0.90810538328E+02  0.47000000000E+01 0.  1.
         11    1    6    6    0    0 -0.18579994597E+03  0.20679198540E+03 -0.34226881091E+02  0.28010002595E+03  0.00000000000E+00 0. -1.
        -12    1    6    6    0    0 -0.48445398603E+02  0.13833590576E+03 -0.15840955031E+02  0.14742698302E+03  0.00000000000E+00 0.  1.
</event>
<event>
12    1  0.1081556E+000  0.1683013E+04  0.7818608E-02  0.8771112E-01
          2   -1    0    0  502    0  0.00000000000E+00  0.00000000000E+00  0.27879331453E+04  0.27879331453E+04  0.00000000000E+00 0. -1.
         -2   -1    0    0    0  501 -0.00000000000E+00 -0.00000000000E+00 -0.10767090528E+04  0.10767090528E+04  0.00000000000E+00 0.  1.
          6    2    1    2  502    0  0.42687582168E+03 -0.16188586147E+04  0.39679973215E+03  0.17292209249E+04  0.17271015600E+03 0.  0.
         24    2    3    3    0    0  0.38647688225E+03 -0.12215152757E+04  0.30364051162E+03  0.13190812734E+04  0.79460028633E+02 0.  0.
         -6    2    1    2    0  501 -0.42687582168E+03  0.16188586147E+04  0.13144243604E+04  0.21354212733E+04  0.17142471651E+03 0.  0.
        -24    2    5    5    0    0 -0.43390625314E+03  0.14989743547E+04  0.12130860473E+04  0.19782169270E+04  0.81029005152E+02 0.  0.
          5    1    3    3  502    0  0.40398939432E+02 -0.39734333903E+03  0.93159220537E+02  0.41013965152E+03  0.47000000000E+01 0. -1.
        -13    1    4    4    0    0  0.22422899613E+03 -0.82106797688E+03  0.18476759320E+03  0.87095943009E+03  0.00000000000E+00 0.  1.
         14    1    4    4    0    0  0.16224788612E+03 -0.40044729881E+03  0.11887291842E+03  0.44812184326E+03  0.00000000000E+00 0. -1.
         -5    1    5    5    0  501  0.70304314579E+01  0.11988426005E+03  0.10133831310E+03  0.15720434623E+03  0.47000000000E+01 0.  1.
         11    1    6    6    0    0 -0.32483198050E+03  0.98477818759E+03  0.80808509780E+03  0.13146503032E+04  0.00000000000E+00 0. -1.
        -12    1    6    6    0    0 -0.10907427264E+03  0.51419616709E+03  0.40500094951E+03  0.66356662386E+03  0.00000000000E+00 0.  1.
</event>
<event>
12    1  0.1081556E+000  0.1772603E+03  0.7818608E-02  0.1170481E+00
          2   -1    0    0  502    0  0.00000000000E+00  0.00000000000E+00  0.69061961149E+03  0.69061961149E+03  0.00000000000E+00 0. -1.
         -2   -1    0    0    0  501 -0.00000000000E+00 -0.00000000000E+00 -0.49897720733E+03  0.49897720733E+03  0.00000000000E+00 0.  1.
          6    2    1    2  502    0  0.70236826925E+00  0.14893790620E+02 -0.47105299396E+03  0.50434805742E+03  0.17959321140E+03 0.  0.
         24    2    3    3    0    0 -0.39395324997E+02  0.68406987738E+02 -0.26567238084E+03  0.28830460458E+03  0.79411733850E+02 0.  0.
         -6    2    1    2    0  501 -0.70236826925E+00 -0.14893790620E+02  0.66269539812E+03  0.68524876140E+03  0.17371918716E+03 0.  0.
        -24    2    5    5    0    0  0.20629109659E+01 -0.54970161802E+02  0.61693328170E+03  0.62417484228E+03  0.77211303472E+02 0.  0.
          5    1    3    3  502    0  0.40097693267E+02 -0.53513197118E+02 -0.20538061312E+03  0.21604345284E+03  0.47000000000E+01 0. -1.
        -13    1    4    4    0    0 -0.52331270784E+02  0.15669980943E+02 -0.16659993466E+03  0.17532726095E+03  0.00000000000E+00 0.  1.
         14    1    4    4    0    0  0.12935945787E+02  0.52737006795E+02 -0.99072446186E+02  0.11297734362E+03  0.00000000000E+00 0. -1.
         -5    1    5    5    0  501 -0.27652792352E+01  0.40076371182E+02  0.45762116422E+02  0.61073919113E+02  0.47000000000E+01 0.  1.
         11    1    6    6    0    0  0.12646806727E+02 -0.44827480593E+02  0.15121380762E+03  0.15822471473E+03  0.00000000000E+00 0. -1.
        -12    1    6    6    0    0 -0.10583895761E+02 -0.10142681209E+02  0.46571947408E+03  0.46595012756E+03  0.00000000000E+00 0.  1.
</event>
<event>
12    1  0.1081556E+000  0.3453995E+03  0.7818608E-02  0.1064519E+00
          1   -1    0    0  502    0  0.00000000000E+00  0.00000000000E+00  0.19325611180E+04  0.19325611180E+04  0.00000000000E+00 0. -1.
         -1   -1    0    0    0  501 -0.00000000000E+00 -0.00000000000E+00 -0.25702298539E+03  0.25702298539E+03  0.00000000000E+00 0.  1.
          6    2    1    2  502    0 -0.26619817246E+03 -0.13765945919E+03 -0.11663407742E+03  0.36439928686E+03  0.17138185004E+03 0.  0.
         24    2    3    3    0    0 -0.26736506988E+03 -0.12690871524E+03 -0.67199120323E+02  0.31357758748E+03  0.78900437287E+02 0.  0.
         -6    2    1    2    0  501  0.26619817246E+03  0.13765945919E+03  0.17921722100E+04  0.18251848165E+04  0.17206623836E+03 0.  0.
        -24    2    5    5    0    0  0.21059973743E+03  0.60141192702E+02  0.98055581651E+03  0.10079678760E+04  0.80872228580E+02 0.  0.
          5    1    3    3  502    0  0.11668974157E+01 -0.10750743948E+02 -0.49434957094E+02  0.50821699380E+02  0.47000000000E+01 0. -1.
        -11    1    4    4    0    0 -0.19575287793E+03 -0.81637455229E+02 -0.82334367953E+02  0.22751442033E+03  0.00000000000E+00 0.  1.
         12    1    4    4    0    0 -0.71612191949E+02 -0.45271260012E+02  0.15135247630E+02  0.86063167148E+02  0.00000000000E+00 0. -1.
         -5    1    5    5    0  501  0.55598435036E+02  0.77518266487E+02  0.81161639353E+03  0.81721694051E+03  0.47000000000E+01 0.  1.
         11    1    6    6    0    0  0.26602366636E+02  0.38412229887E+02  0.24664635193E+03  0.25103308195E+03  0.00000000000E+00 0. -1.
        -12    1    6    6    0    0  0.18399737079E+03  0.21728962815E+02  0.73390946459E+03  0.75693479408E+03  0.00000000000E+00 0.  1.
</event>
<event>
12    1  0.1081556E+000  0.4008273E+03  0.7818608E-02  0.1043494E+00
          1   -1    0    0  502    0  0.00000000000E+00  0.00000000000E+00  0.51515107038E+03  0.51515107038E+03  0.00000000000E+00 0. -1.
         -1   -1    0    0    0  501 -0.00000000000E+00 -0.00000000000E+00 -0.32367531448E+03  0.32367531448E+03  0.00000000000E+00 0.  1.
          6    2    1    2  502    0  0.33410097547E+03 -0.14089320953E+03  0.15670328648E+02  0.40120226480E+03  0.17100684131E+03 0.  0.
         24    2    3    3    0    0  0.92028695765E+02 -0.81261957580E+02  0.38654440725E+02  0.15079213277E+03  0.78557717157E+02 0.  0.
         -6    2    1    2    0  501 -0.33410097547E+03  0.14089320953E+03  0.17580542725E+03  0.43762412006E+03  0.17068381265E+03 0.  0.
        -24    2    5    5    0    0 -0.34793797289E+03  0.12761880715E+03  0.17570233582E+03  0.41788145348E+03  0.80038774551E+02 0.  0.
          5    1    3    3  502    0  0.24207227971E+03 -0.59631251946E+02 -0.22984112077E+02  0.25041013202E+03  0.47000000000E+01 0. -1.
        -13    1    4    4    0    0  0.60792861813E+02 -0.80568367464E+02 -0.20389013085E+00  0.10093104307E+03  0.00000000000E+00 0.  1.
         14    1    4    4    0    0  0.31235833953E+02 -0.69359011539E+00  0.38858330856E+02  0.49861089708E+02  0.00000000000E+00 0. -1.
         -5    1    5    5    0  501  0.13836997413E+02  0.13274402379E+02  0.10309143013E+00  0.19742666582E+02  0.47000000000E+01 0.  1.
         11    1    6    6    0    0 -0.94384437335E+02  0.33814332791E+01  0.64748509544E+02  0.11450862671E+03  0.00000000000E+00 0. -1.
        -12    1    6    6    0    0 -0.25355353555E+03  0.12423737387E+03  0.11095382628E+03  0.30337282677E+03  0.00000000000E+00 0.  1.
</event>
<event>
12    1  0.1081556E+000  0.2981341E+03  0.7818608E-02  0.1086177E+00
          1   -1    0    0  502    0  0.00000000000E+00  0.00000000000E+00  0.13402229031E+04  0.13402229031E+04  0.00000000000E+00 0. -1.
         -1   -1    0    0    0  501 -0.00000000000E+00 -0.00000000000E+00 -0.69061088673E+02  0.69061088673E+02  0.00000000000E+00 0.  1.
          6    2    1    2  502    0 -0.21563444047E+03 -0.11378222750E+03  0.49471307775E+03  0.57747852742E+03  0.17116019723E+03 0.  0.
         24    2    3    3    0    0 -0.61186285117E+02  0.47833066709E+01  0.21079947406E+03  0.23318062886E+03  0.78550276290E+02 0.  0.
         -6    2    1    2    0  501  0.21563444047E+03  0.11378222750E+03  0.77644873663E+03  0.83180546431E+03  0.17199733321E+03 0.  0.
        -24    2    5    5    0    0  0.15690539741E+03  0.14306834568E+03  0.52434988991E+03  0.57126238585E+03  0.79435830485E+02 0.  0.
          5    1    3    3  502    0 -0.15444815535E+03 -0.11856553417E+03  0.28391360369E+03  0.34429789855E+03  0.47000000000E+01 0. -1.
        -13    1    4    4    0    0 -0.73158855073E+02 -0.14217668986E+02  0.18193701300E+03  0.19660985959E+03  0.00000000000E+00 0.  1.
         14    1    4    4    0    0  0.11972569956E+02  0.19000975657E+02  0.28862461056E+02  0.36570769277E+02  0.00000000000E+00 0. -1.
         -5    1    5    5    0  501  0.58729043065E+02 -0.29286118183E+02  0.25209884672E+03  0.26054307846E+03  0.47000000000E+01 0.  1.
         11    1    6    6    0    0  0.37522252049E+02  0.10634542300E+01  0.13249318739E+03  0.13770800644E+03  0.00000000000E+00 0. -1.
        -12    1    6    6    0    0  0.11938314536E+03  0.14200489145E+03  0.39185670252E+03  0.43355437941E+03  0.00000000000E+00 0.  1.
</event>
<event>
12    1  0.1081556E+000  0.5629497E+03  0.7818608E-02  0.9985403E-01
          1   -1    0    0  502    0  0.00000000000E+00  0.00000000000E+00  0.16619998037E+04  0.16619998037E+04  0.00000000000E+00 0. -1.
         -1   -1    0    0    0  501 -0.00000000000E+00 -0.00000000000E+00 -0.99010988957E+03  0.99010988957E+03  0.00000000000E+00 0.  1.
          6    2    1    2  502    0 -0.11371205287E+03 -0.52405067244E+03 -0.85555391350E+03  0.10243600931E+04  0.17257335563E+03 0.  0.
         24    2    3    3    0    0 -0.13634338604E+02 -0.13178638509E+03 -0.29102451658E+03  0.32966422433E+03  0.80185317049E+02 0.  0.
         -6    2    1    2    0  501  0.11371205287E+03  0.52405067244E+03  0.15274438277E+04  0.16277496003E+04  0.17007226763E+03 0.  0.
        -24    2    5    5    0    0  0.20255732495E+02  0.27990966047E+03  0.95681803171E+03  0.10000754758E+04  0.76749584411E+02 0.  0.
          5    1    3    3  502    0 -0.10007771427E+03 -0.39226428735E+03 -0.56452939692E+03  0.69469586872E+03  0.47000000000E+01 0. -1.
        -11    1    4    4    0    0 -0.20521715447E+01 -0.10339681199E+03 -0.27751587425E+03  0.29615903261E+03  0.00000000000E+00 0.  1.
         12    1    4    4    0    0 -0.11582167059E+02 -0.28389573101E+02 -0.13508642331E+02  0.33505191721E+02  0.00000000000E+00 0. -1.
         -5    1    5    5    0  501  0.93456320376E+02  0.24414101197E+03  0.57062579596E+03  0.62767412450E+03  0.47000000000E+01 0.  1.
         13    1    6    6    0    0  0.19314357501E+02  0.69472403136E+02  0.15257044053E+03  0.16875188451E+03  0.00000000000E+00 0. -1.
        -14    1    6    6    0    0  0.94137499398E+00  0.21043725733E+03  0.80424759118E+03  0.83132359126E+03  0.00000000000E+00 0.  1.
</event>
<event>
12    1  0.1081556E+000  0.2483257E+03  0.7818608E-02  0.1114368E+00
          2   -1    0    0  502    0  0.00000000000E+00  0.00000000000E+00  0.31475086741E+03  0.31475086741E+03  0.00000000000E+00 0. -1.
         -2   -1    0    0    0  501 -0.00000000000E+00 -0.00000000000E+00 -0.37014582420E+03  0.37014582420E+03  0.00000000000E+00 0.  1.
          6    2    1    2  502    0  0.24761497266E+02  0.17825459344E+03 -0.26266595279E+03  0.36174735124E+03  0.17169715067E+03 0.  0.
         24    2    3    3    0    0 -0.40194249777E+02  0.15148041803E+03 -0.21017749208E+03  0.27392233174E+03  0.79353455429E+02 0.  0.
         -6    2    1    2    0  501 -0.24761497266E+02 -0.17825459344E+03  0.20727099600E+03  0.32314934036E+03  0.17051803002E+03 0.  0.
        -24    2    5    5    0    0  0.47656258430E+02 -0.13235829669E+03  0.14284094027E+03  0.21579887004E+03  0.79848484179E+02 0.  0.
          5    1    3    3  502    0  0.64955747043E+02  0.26774175413E+02 -0.52488460712E+02  0.87825019504E+02  0.47000000000E+01 0. -1.
        -11    1    4    4    0    0  0.22242749555E+00  0.11246594591E+03 -0.10109240079E+03  0.15122272303E+03  0.00000000000E+00 0.  1.
         12    1    4    4    0    0 -0.40416677273E+02  0.39014472120E+02 -0.10908509128E+03  0.12269960871E+03  0.00000000000E+00 0. -1.
         -5    1    5    5    0  501 -0.72417755696E+02 -0.45896296755E+02  0.64430055736E+02  0.10735047032E+03  0.47000000000E+01 0.  1.
         11    1    6    6    0    0  0.27470846753E+02 -0.38820245427E+02  0.10044898203E+03  0.11113800820E+03  0.00000000000E+00 0. -1.
        -12    1    6    6    0    0  0.20185411677E+02 -0.93538051258E+02  0.42391958237E+02  0.10466086184E+03  0.00000000000E+00 0.  1.
</event>
<event>
12    1  0.1081556E+000  0.5424917E+03  0.7818608E-02  0.1003247E+00
          1   -1    0    0  502    0  0.00000000000E+00  0.00000000000E+00  0.91657859015E+03  0.91657859015E+03  0.00000000000E+00 0. -1.
         -1   -1    0    0    0  501 -0.00000000000E+00 -0.00000000000E+00 -0.32164967441E+03  0.32164967441E+03  0.00000000000E+00 0.  1.
          6    2    1    2  502    0 -0.18629795766E+03  0.47839261940E+03  0.32269970171E+03  0.63008244422E+03  0.17117932619E+03 0.  0.
         24    2    3    3    0    0 -0.91443188525E+02  0.31227538956E+03  0.13250158456E+03  0.36028664173E+03  0.79824924976E+02 0.  0.
         -6    2    1    2    0  501  0.18629795766E+03 -0.47839261940E+03  0.27222921404E+03  0.60814582034E+03  0.17934928630E+03 0.  0.
        -24    2    5    5    0    0  0.86811973250E+02 -0.14270358598E+03  0.14915135406E+03  0.23699243175E+03  0.77579985394E+02 0.  0.
          5    1    3    3  502    0 -0.94854769130E+02  0.16611722984E+03  0.19019811714E+03  0.26979580249E+03  0.47000000000E+01 0. -1.
        -11    1    4    4    0    0 -0.74754516700E+02  0.11585555631E+03  0.56908999185E+02  0.14916226695E+03  0.00000000000E+00 0.  1.
         12    1    4    4    0    0 -0.16688671825E+02  0.19641983325E+03  0.75592585379E+02  0.21112437478E+03  0.00000000000E+00 0. -1.
         -5    1    5    5    0  501  0.99485984405E+02 -0.33568903341E+03  0.12307785998E+03  0.37115338859E+03  0.47000000000E+01 0.  1.
         13    1    6    6    0    0  0.43580806650E+01 -0.51343454527E+02  0.81867936101E+02  0.96734182951E+02  0.00000000000E+00 0. -1.
        -14    1    6    6    0    0  0.82453892585E+02 -0.91360131455E+02  0.67283417963E+02  0.14025824879E+03  0.00000000000E+00 0.  1.
</event>
<event>
12    1  0.1081556E+000  0.6145349E+03  0.7818608E-02  0.9875701E-01
         -1   -1    0    0    0  501 -0.00000000000E+00  0.00000000000E+00  0.42825153256E+03  0.42825153256E+03  0.00000000000E+00 0.  1.
          1   -1    0    0  502    0  0.00000000000E+00 -0.00000000000E+00 -0.13888173847E+04  0.13888173847E+04  0.00000000000E+00 0. -1.
          6    2    1    2  502    0 -0.42220171701E+03 -0.41229928090E+03  0.68654117831E+02  0.61832442569E+03  0.17136720992E+03 0.  0.
         24    2    3    3    0    0 -0.35912099897E+03 -0.30769776065E+03  0.10443226937E+03  0.49095558666E+03  0.80532511343E+02 0.  0.
         -6    2    1    2    0  501  0.42220171701E+03  0.41229928090E+03 -0.10292199700E+04  0.11987444916E+04  0.17160892341E+03 0.  0.
        -24    2    5    5    0    0  0.91218843375E+02  0.12913790384E+03 -0.33898640479E+03  0.38254936012E+03  0.80216922769E+02 0.  0.
          5    1    3    3  502    0 -0.63080718040E+02 -0.10460152025E+03 -0.35778151541E+02  0.12736883903E+03  0.47000000000E+01 0. -1.
        -13    1    4    4    0    0 -0.10048191666E+03 -0.70696742648E+02 -0.64926128874E+01  0.12303169925E+03  0.00000000000E+00 0.  1.
         14    1    4    4    0    0 -0.25863908230E+03 -0.23700101800E+03  0.11092488226E+03  0.36792388742E+03  0.00000000000E+00 0. -1.
         -5    1    5    5    0  501  0.33098287363E+03  0.28316137706E+03 -0.69023356518E+03  0.81619513145E+03  0.47000000000E+01 0.  1.
         13    1    6    6    0    0  0.10262494603E+03  0.12634632911E+03 -0.29396632227E+03  0.33602302459E+03  0.00000000000E+00 0. -1.
        -14    1    6    6    0    0 -0.11406102654E+02  0.27915747302E+01 -0.45020082524E+02  0.46526335528E+02  0.00000000000E+00 0.  1.
</event>
<event>
12    1  0.1081556E+000  0.1127133E+04  0.7818608E-02  0.9179142E-01
          2   -1    0    0  502    0  0.00000000000E+00  0.00000000000E+00  0.39217474345E+04  0.39217474345E+04  0.00000000000E+00 0. -1.
         -2   -1    0    0    0  501 -0.00000000000E+00 -0.00000000000E+00 -0.37176769061E+03  0.37176769061E+03  0.00000000000E+00 0.  1.
          6    2    1    2  502    0  0.88579806403E+03 -0.67543594049E+03  0.25448987178E+04  0.27833190243E+04  0.17176550019E+03 0.  0.
         24    2    3    3    0    0  0.76773445732E+03 -0.51522612625E+03  0.20781076907E+04  0.22758526187E+04  0.78098717893E+02 0.  0.
         -6    2    1    2    0  501 -0.88579806403E+03  0.67543594049E+03  0.10050810261E+04  0.15101961008E+04  0.17219893726E+03 0.  0.
        -24    2    5    5    0    0 -0.79412757720E+03  0.58085282260E+03  0.94084540100E+03  0.13635749909E+04  0.78218136089E+02 0.  0.
          5    1    3    3  502    0  0.11806360671E+03 -0.16020981424E+03  0.46679102703E+03  0.50746640551E+03  0.47000000000E+01 0. -1.
        -11    1    4    4    0    0  0.58562312066E+03 -0.43105769113E+03  0.16425737118E+04  0.17963333686E+04  0.00000000000E+00 0.  1.
         12    1    4    4    0    0  0.18211133667E+03 -0.84168435122E+02  0.43553397899E+03  0.47951925015E+03  0.00000000000E+00 0. -1.
         -5    1    5    5    0  501 -0.91670486834E+02  0.94583117893E+02  0.64235625070E+02  0.14662110992E+03  0.47000000000E+01 0.  1.
         13    1    6    6    0    0 -0.29772806241E+03  0.25210778100E+03  0.40915813279E+03  0.56534123325E+03  0.00000000000E+00 0. -1.
        -14    1    6    6    0    0 -0.49639951479E+03  0.32874504160E+03  0.53168726821E+03  0.79823375764E+03  0.00000000000E+00 0.  1.
</event>
<event>
12    1  0.1081556E+000  0.3684114E+03  0.7818608E-02  0.1055302E+00
         -2   -1    0    0    0  501 -0.00000000000E+00  0.00000000000E+00  0.59351209639E+03  0.59351209639E+03  0.00000000000E+00 0.  1.
          2   -1    0    0  502    0  0.00000000000E+00 -0.00000000000E+00 -0.98432384789E+03  0.98432384789E+03  0.00000000000E+00 0. -1.
          6    2    1    2  502    0  0.29221978903E+03 -0.14095281889E+03  0.49570863490E+03  0.61815580343E+03  0.17643538291E+03 0.  0.
         24    2    3    3    0    0  0.20800990558E+03 -0.13277223941E+03  0.25566156245E+03  0.36359163991E+03  0.77067877395E+02 0.  0.
         -6    2    1    2    0  501 -0.29221978903E+03  0.14095281889E+03 -0.88652038641E+03  0.95968014084E+03  0.17264841430E+03 0.  0.
        -24    2    5    5    0    0 -0.15409573743E+03  0.10300813392E+03 -0.67267971929E+03  0.70225447456E+03  0.79417695428E+02 0.  0.
          5    1    3    3  502    0  0.84209883455E+02 -0.81805794768E+01  0.24004707246E+03  0.25456416352E+03  0.47000000000E+01 0. -1.
        -13    1    4    4    0    0  0.14366374620E+03 -0.63469796061E+02  0.19838440128E+03  0.25302975647E+03  0.00000000000E+00 0.  1.
         14    1    4    4    0    0  0.64346159373E+02 -0.69302443347E+02  0.57277161161E+02  0.11056188344E+03  0.00000000000E+00 0. -1.
         -5    1    5    5    0  501 -0.13812405160E+03  0.37944684969E+02 -0.21384066711E+03  0.25742566628E+03  0.47000000000E+01 0.  1.
         11    1    6    6    0    0 -0.83220227395E+02  0.87982165393E+01 -0.28868541103E+03  0.30056992765E+03  0.00000000000E+00 0. -1.
        -12    1    6    6    0    0 -0.70875510037E+02  0.94209917377E+02 -0.38399430826E+03  0.40168454692E+03  0.00000000000E+00 0.  1.
</event>
<event>
12    1  0.1081556E+000  0.4451553E+03  0.7818608E-02  0.1029177E+00
          2   -1    0    0  502    0  0.00000000000E+00  0.00000000000E+00  0.31043735102E+03  0.31043735102E+03  0.00000000000E+00 0. -1.
         -2   -1    0    0    0  501 -0.00000000000E+00 -0.00000000000E+00 -0.16135400037E+04  0.16135400037E+04  0.00000000000E+00 0.  1.
          6    2    1    2  502    0  0.29457660382E+03  0.28551252342E+03 -0.13998115504E+04  0.14690926623E+04  0.17455113113E+03 0.  0.
         24    2    3    3    0    0  0.18764260968E+03  0.16446884764E+03 -0.10709405658E+04  0.11026712314E+04  0.81917020506E+02 0.  0.
         -6    2    1    2    0  501 -0.29457660382E+03 -0.28551252342E+03  0.96708897682E+02  0.45488469241E+03  0.17109849780E+03 0.  0.
        -24    2    5    5    0    0 -0.82857982833E+02 -0.10374671417E+03  0.80986848185E+02  0.17536214104E+03  0.81019657558E+02 0.  0.
          5    1    3    3  502    0  0.10693399413E+03  0.12104367579E+03 -0.32887098454E+03  0.36642143090E+03  0.47000000000E+01 0. -1.
        -13    1    4    4    0    0  0.12693839303E+03  0.14974463450E+03 -0.72345000564E+03  0.74961104704E+03  0.00000000000E+00 0.  1.
         14    1    4    4    0    0  0.60704216654E+02  0.14724213137E+02 -0.34749056017E+03  0.35306018436E+03  0.00000000000E+00 0. -1.
         -5    1    5    5    0  501 -0.21171862098E+03 -0.18176580925E+03  0.15722049497E+02  0.27952255137E+03  0.47000000000E+01 0.  1.
         11    1    6    6    0    0 -0.64455815864E+02 -0.11561317033E+03  0.76912772224E+02  0.15308994704E+03  0.00000000000E+00 0. -1.
        -12    1    6    6    0    0 -0.18402166970E+02  0.11866456156E+02  0.40740759601E+01  0.22272194005E+02  0.00000000000E+00 0.  1.
</event>
<event>
12    1  0.1081556E+000  0.8251908E+03  0.7818608E-02  0.9524254E-01
         -2   -1    0    0    0  501 -0.00000000000E+00  0.00000000000E+00  0.17652791636E+04  0.17652791636E+04  0.00000000000E+00 0.  1.
          2   -1    0    0  502    0  0.00000000000E+00 -0.00000000000E+00 -0.45812126469E+03  0.45812126469E+03  0.00000000000E+00 0. -1.
          6    2    1    2  502    0 -0.12549519792E+03 -0.79708491839E+03  0.10953700901E+04  0.13713293825E+04  0.17209075848E+03 0.  0.
         24    2    3    3    0    0 -0.28297088408E+02 -0.51036473911E+03  0.76095765396E+03  0.92020888733E+03  0.80342722572E+02 0.  0.
         -6    2    1    2    0  501  0.12549519792E+03  0.79708491839E+03  0.21178780879E+03  0.85207104579E+03  0.17342888826E+03 0.  0.
        -24    2    5    5    0    0  0.27122114335E+02  0.23114885584E+03  0.20272392874E+02  0.24654554260E+03  0.78792969370E+02 0.  0.
          5    1    3    3  502    0 -0.97198109516E+02 -0.28672017929E+03  0.33441243616E+03  0.45112049517E+03  0.47000000000E+01 0. -1.
        -13    1    4    4    0    0 -0.36574133549E+02 -0.23351146073E+03  0.40839726772E+03  0.47186184187E+03  0.00000000000E+00 0.  1.
         14    1    4    4    0    0  0.82770451407E+01 -0.27685327838E+03  0.35256038624E+03  0.44834704546E+03  0.00000000000E+00 0. -1.
         -5    1    5    5    0  501  0.98373083590E+02  0.56593606256E+03  0.19151541592E+03  0.60552550319E+03  0.47000000000E+01 0.  1.
         11    1    6    6    0    0  0.30502962699E+02  0.21812376231E+03 -0.23093135416E+01  0.22025834682E+03  0.00000000000E+00 0. -1.
        -12    1    6    6    0    0 -0.33808483639E+01  0.13025093530E+02  0.22581706416E+02  0.26287195776E+02  0.00000000000E+00 0.  1.
</event>
<event>
12    1  0.1081556E+000  0.2703344E+03  0.7818608E-02  0.1101088E+00
          1   -1    0    0  502    0  0.00000000000E+00  0.00000000000E+00  0.39443425382E+03  0.39443425382E+03  0.00000000000E+00 0. -1.
         -1   -1    0    0    0  501 -0.00000000000E+00 -0.00000000000E+00 -0.55324084763E+03  0.55324084763E+03  0.00000000000E+00 0.  1.
          6    2    1    2  502    0  0.80765655892E+02  0.19187355740E+03 -0.46579563291E+03  0.53835794069E+03  0.17182883189E+03 0.  0.
         24    2    3    3    0    0  0.11713587737E+03  0.15870058764E+03 -0.42141410145E+03  0.47191210359E+03  0.78768638016E+02 0.  0.
         -6    2    1    2    0  501 -0.80765655892E+02 -0.19187355740E+03  0.30698903910E+03  0.40931716076E+03  0.17308874824E+03 0.  0.
        -24    2    5    5    0    0  0.15440568954E+02 -0.10305920372E+03  0.11572926623E+03  0.17748528669E+03  0.85136086870E+02 0.  0.
          5    1    3    3  502    0 -0.36370221478E+02  0.33172969753E+02 -0.44381531467E+02  0.66445837100E+02  0.47000000000E+01 0. -1.
        -11    1    4    4    0    0  0.79402763984E+02  0.13438720617E+03 -0.25008511091E+03  0.29480041182E+03  0.00000000000E+00 0.  1.
         12    1    4    4    0    0  0.37733113386E+02  0.24313381472E+02 -0.17132899054E+03  0.17711169177E+03  0.00000000000E+00 0. -1.
         -5    1    5    5    0  501 -0.96206224846E+02 -0.88814353677E+02  0.19125977287E+03  0.23183187407E+03  0.47000000000E+01 0.  1.
         11    1    6    6    0    0  0.24713114579E+02  0.47734332692E+01  0.31622570856E+02  0.40416712941E+02  0.00000000000E+00 0. -1.
        -12    1    6    6    0    0 -0.92725456255E+01 -0.10783263699E+03  0.84106695373E+02  0.13706857375E+03  0.00000000000E+00 0.  1.
</event>
<event>
12    1  0.1081556E+000  0.2015719E+03  0.7818608E-02  0.1148420E+00
         -2   -1    0    0    0  501 -0.00000000000E+00  0.00000000000E+00  0.42929922262E+02  0.42929922262E+02  0.00000000000E+00 0.  1.
          2   -1    0    0  502    0  0.00000000000E+00 -0.00000000000E+00 -0.99890797237E+03  0.99890797237E+03  0.00000000000E+00 0. -1.
          6    2    1    2  502    0  0.24016486124E+02 -0.10498207637E+03 -0.35475671343E+03  0.40716239953E+03  0.16831775277E+03 0.  0.
         24    2    3    3    0    0  0.17905198831E+02 -0.14090450389E+03 -0.29858744074E+03  0.34004425126E+03  0.79378571949E+02 0.  0.
         -6    2    1    2    0  501 -0.24016486124E+02  0.10498207637E+03 -0.60122133668E+03  0.63467549511E+03  0.17247568075E+03 0.  0.
        -24    2    5    5    0    0 -0.46666578902E+02  0.11984382061E+03 -0.34288097215E+03  0.37487608770E+03  0.80152411958E+02 0.  0.
          5    1    3    3  502    0  0.61112872929E+01  0.35922427525E+02 -0.56169272690E+02  0.67118148263E+02  0.47000000000E+01 0. -1.
        -13    1    4    4    0    0  0.37710803501E+02 -0.12268780313E+03 -0.19834058230E+03  0.23624857317E+03  0.00000000000E+00 0.  1.
         14    1    4    4    0    0 -0.19805604670E+02 -0.18216700762E+02 -0.10024685844E+03  0.10379567809E+03  0.00000000000E+00 0. -1.
         -5    1    5    5    0  501  0.22650092778E+02 -0.14861744243E+02 -0.25834036453E+03  0.25979940741E+03  0.47000000000E+01 0.  1.
         11    1    6    6    0    0 -0.60265457768E+02  0.67889012452E+02 -0.26624475931E+03  0.28129542348E+03  0.00000000000E+00 0. -1.
        -12    1    6    6    0    0  0.13598878866E+02  0.51954808160E+02 -0.76636212839E+02  0.93580664219E+02  0.00000000000E+00 0.  1.
</event>
<event>
12    1  0.1081556E+000  0.7873049E+03  0.7818608E-02  0.9578577E-01
         -2   -1    0    0    0  501 -0.00000000000E+00  0.00000000000E+00  0.92895546882E+03  0.92895546882E+03  0.00000000000E+00 0.  1.
          2   -1    0    0  502    0  0.00000000000E+00 -0.00000000000E+00 -0.67881364465E+03  0.67881364465E+03  0.00000000000E+00 0. -1.
          6    2    1    2  502    0 -0.50374126946E+03  0.57879790291E+03  0.20031341805E+02  0.78667387517E+03  0.17231439943E+03 0.  0.
         24    2    3    3    0    0 -0.46120963476E+03  0.52392312491E+03  0.62255842980E+02  0.70527866825E+03  0.79576641584E+02 0.  0.
         -6    2    1    2    0  501  0.50374126946E+03 -0.57879790291E+03  0.23011048236E+03  0.82109523831E+03  0.18023395160E+03 0.  0.
        -24    2    5    5    0    0  0.48737064752E+03 -0.58625924033E+03  0.21214287548E+03  0.79523805911E+03  0.78542511491E+02 0.  0.
          5    1    3    3  502    0 -0.42531634697E+02  0.54874777999E+02 -0.42224501175E+02  0.81395206922E+02  0.47000000000E+01 0. -1.
        -11    1    4    4    0    0 -0.18997609127E+03  0.20848565822E+03 -0.13679069963E+02  0.28239033604E+03  0.00000000000E+00 0.  1.
         12    1    4    4    0    0 -0.27123354349E+03  0.31543746670E+03  0.75934912943E+02  0.42288833221E+03  0.00000000000E+00 0. -1.
         -5    1    5    5    0  501  0.16370621936E+02  0.74613374185E+01  0.17967606886E+02  0.25857179193E+02  0.47000000000E+01 0.  1.
         11    1    6    6    0    0  0.34039935500E+03 -0.44543012786E+03  0.18234716092E+03  0.58951692663E+03  0.00000000000E+00 0. -1.
        -12    1    6    6    0    0  0.14697129252E+03 -0.14082911247E+03  0.29795714562E+02  0.20572113249E+03  0.00000000000E+00 0.  1.
</event>
<event>
12    1  0.1081556E+000  0.6110457E+03  0.7818608E-02  0.9882751E-01
         -2   -1    0    0    0  501 -0.00000000000E+00  0.00000000000E+00  0.66555918820E+03  0.66555918820E+03  0.00000000000E+00 0.  1.
          2   -1    0    0  502    0  0.00000000000E+00 -0.00000000000E+00 -0.10532144967E+04  0.10532144967E+04  0.00000000000E+00 0. -1.
          6    2    1    2  502    0  0.92855332699E+02 -0.57857290904E+03  0.39363903976E+03  0.72703339239E+03  0.17394578507E+03 0.  0.
         24    2    3    3    0    0  0.31894292975E+02 -0.51526412802E+03  0.31967177824E+03  0.61206602356E+03  0.76944160599E+02 0.  0.
         -6    2    1    2    0  501 -0.92855332699E+02  0.57857290904E+03 -0.78129434828E+03  0.99174029252E+03  0.17250862375E+03 0.  0.
        -24    2    5    5    0    0 -0.11263641705E+03  0.57166950566E+03 -0.76425294259E+03  0.96432774459E+03  0.79702274520E+02 0.  0.
          5    1    3    3  502    0  0.60961039724E+02 -0.63308781020E+02  0.73967261520E+02  0.11496736883E+03  0.47000000000E+01 0. -1.
        -13    1    4    4    0    0  0.23680094261E+01 -0.45335905054E+03  0.27817791577E+03  0.53190505638E+03  0.00000000000E+00 0.  1.
         14    1    4    4    0    0  0.29526283549E+02 -0.61905077475E+02  0.41493862472E+02  0.80160967187E+02  0.00000000000E+00 0. -1.
         -5    1    5    5    0  501  0.19781084353E+02  0.69034033724E+01 -0.17041405688E+02  0.27412547932E+02  0.47000000000E+01 0.  1.
         11    1    6    6    0    0 -0.54708211724E+02  0.36121350785E+03 -0.41949683883E+03  0.55627851340E+03  0.00000000000E+00 0. -1.
        -12    1    6    6    0    0 -0.57928205328E+02  0.21045599781E+03 -0.34475610376E+03  0.40804923118E+03  0.00000000000E+00 0.  1.
</event>
<event>
12    1  0.1081556E+000  0.2459461E+03  0.7818608E-02  0.1115894E+00
          1   -1    0    0  502    0  0.00000000000E+00  0.00000000000E+00  0.13292151067E+04  0.13292151067E+04  0.00000000000E+00 0. -1.
         -1   -1    0    0    0  501 -0.00000000000E+00 -0.00000000000E+00 -0.45870012524E+02  0.45870012524E+02  0.00000000000E+00 0.  1.
          6    2    1    2  502    0 -0.29976426847E+02 -0.17293212855E+03  0.57949672613E+03  0.62936549257E+03  0.17169845775E+03 0.  0.
         24    2    3    3    0    0 -0.44671880204E+01 -0.62614053188E+02  0.12120605398E+03  0.15727097958E+03  0.78120279512E+02 0.  0.
         -6    2    1    2    0  501  0.29976426847E+02  0.17293212855E+03  0.70384836806E+03  0.74571962667E+03  0.17289051196E+03 0.  0.
        -24    2    5    5    0    0 -0.35041255834E+02  0.29523617778E+02  0.29455867675E+03  0.30716125948E+03  0.74051952412E+02 0.  0.
          5    1    3    3  502    0 -0.25509238826E+02 -0.11031807536E+03  0.45829067216E+03  0.47209451300E+03  0.47000000000E+01 0. -1.
        -13    1    4    4    0    0 -0.12400703187E+02 -0.79968653922E+02  0.93922474401E+02  0.12397658750E+03  0.00000000000E+00 0.  1.
         14    1    4    4    0    0  0.79335151670E+01  0.17354600734E+02  0.27283579575E+02  0.33294392080E+02  0.00000000000E+00 0. -1.
         -5    1    5    5    0  501  0.65017682680E+02  0.14340851077E+03  0.40928969131E+03  0.43855836719E+03  0.47000000000E+01 0.  1.
         11    1    6    6    0    0 -0.21712568965E+02  0.48941769548E+02  0.12513603663E+03  0.13610936824E+03  0.00000000000E+00 0. -1.
        -12    1    6    6    0    0 -0.13328686869E+02 -0.19418151770E+02  0.16942264012E+03  0.17105189124E+03  0.00000000000E+00 0.  1.
</event>
<event>
12    1  0.1081556E+000  0.1847630E+03  0.7818608E-02  0.1163271E+00
          2   -1    0    0  502    0  0.00000000000E+00  0.00000000000E+00  0.39470407227E+03  0.39470407227E+03  0.00000000000E+00 0. -1.
         -2   -1    0    0    0  501 -0.00000000000E+00 -0.00000000000E+00 -0.23634098330E+03  0.23634098330E+03  0.00000000000E+00 0.  1.
          6    2    1    2  502    0  0.66166006637E+02 -0.98899801033E+01 -0.17204397586E+03  0.25253923006E+03  0.17234030563E+03 0.  0.
         24    2    3    3    0    0  0.76667165347E+02  0.65947528316E+01 -0.19290819104E+03  0.22356637675E+03  0.82746659363E+02 0.  0.
         -6    2    1    2    0  501 -0.66166006637E+02  0.98899801033E+01  0.33040706484E+03  0.37850582552E+03  0.17211066009E+03 0.  0.
        -24    2    5    5    0    0 -0.34131181807E+01  0.65040415867E+02  0.15192659067E+03  0.18138437759E+03  0.74677295141E+02 0.  0.
          5    1    3    3  502    0 -0.10501158710E+02 -0.16484732935E+02  0.20864215170E+02  0.28972853309E+02  0.47000000000E+01 0. -1.
        -11    1    4    4    0    0 -0.14516089487E+02  0.99452005049E+01 -0.13118611785E+02  0.21948162617E+02  0.00000000000E+00 0.  1.
         12    1    4    4    0    0  0.91183254834E+02 -0.33504476734E+01 -0.17978957925E+03  0.20161821413E+03  0.00000000000E+00 0. -1.
         -5    1    5    5    0  501 -0.62752888456E+02 -0.55150435764E+02  0.17848047417E+03  0.19712144793E+03  0.47000000000E+01 0.  1.
         11    1    6    6    0    0 -0.33395775338E+02  0.38103387937E+02  0.11900572023E+03  0.12934259712E+03  0.00000000000E+00 0. -1.
        -12    1    6    6    0    0  0.29982657158E+02  0.26937027930E+02  0.32920870442E+02  0.52041780471E+02  0.00000000000E+00 0.  1.
</event>
<event>
12    1  0.1081556E+000  0.6578410E+03  0.7818608E-02  0.9792176E-01
          1   -1    0    0  502    0  0.00000000000E+00  0.00000000000E+00  0.25679283176E+03  0.25679283176E+03  0.00000000000E+00 0. -1.
         -1   -1    0    0    0  501 -0.00000000000E+00 -0.00000000000E+00 -0.25125479630E+04  0.25125479630E+04  0.00000000000E+00 0.  1.
          6    2    1    2  502    0  0.41961637375E+03  0.47707502904E+03 -0.19227096402E+04  0.20322108311E+04  0.17143516803E+03 0.  0.
         24    2    3    3    0    0  0.26539901988E+03  0.39391494831E+03 -0.14617027449E+04  0.15390090075E+04  0.79800904559E+02 0.  0.
         -6    2    1    2    0  501 -0.41961637375E+03 -0.47707502904E+03 -0.33304549102E+03  0.73712996370E+03  0.16959599004E+03 0.  0.
        -24    2    5    5    0    0 -0.21539707221E+03 -0.17749005001E+03 -0.10595549245E+03  0.30928812349E+03  0.80832916447E+02 0.  0.
          5    1    3    3  502    0  0.15421735387E+03  0.83160080729E+02 -0.46100689527E+03  0.49320182355E+03  0.47000000000E+01 0. -1.
        -11    1    4    4    0    0  0.14122558392E+03  0.13935249137E+03 -0.60288791959E+03  0.63469490781E+03  0.00000000000E+00 0.  1.
         12    1    4    4    0    0  0.12417343596E+03  0.25456245694E+03 -0.85881482535E+03  0.90431409971E+03  0.00000000000E+00 0. -1.
         -5    1    5    5    0  501 -0.20421930153E+03 -0.29958497903E+03 -0.22708999857E+03  0.42784184021E+03  0.47000000000E+01 0.  1.
         13    1    6    6    0    0 -0.21313942982E+03 -0.14466192254E+03 -0.96109976478E+02  0.27494111361E+03  0.00000000000E+00 0. -1.
        -14    1    6    6    0    0 -0.22576423898E+01 -0.32828127475E+02 -0.98455159694E+01  0.34347009875E+02  0.00000000000E+00 0.  1.
</event>
<event>
12    1  0.1081556E+000  0.2472000E+03  0.7818608E-02  0.1115087E+00
          2   -1    0    0  502    0  0.00000000000E+00  0.00000000000E+00  0.31862551201E+04  0.31862551201E+04  0.00000000000E+00 0. -1.
         -2   -1    0    0    0  501 -0.00000000000E+00 -0.00000000000E+00 -0.80221510338E+02  0.80221510338E+02  0.00000000000E+00 0.  1.
          6    2    1    2  502    0 -0.10655613709E+03  0.14229031700E+03  0.12969343850E+03  0.27996350077E+03  0.17308503432E+03 0.  0.
         24    2    3    3    0    0 -0.71844101698E+02  0.15335690680E+03  0.14852984649E+03  0.23868039191E+03  0.78913233175E+02 0.  0.
         -6    2    1    2    0  501  0.10655613709E+03 -0.14229031700E+03  0.29763401713E+04  0.29865131297E+04  0.17046733990E+03 0.  0.
        -24    2    5    5    0    0  0.40682226785E+02 -0.16446938522E+02  0.70013799333E+03  0.70587848713E+03  0.78394409991E+02 0.  0.
          5    1    3    3  502    0 -0.34712035390E+02 -0.11066589800E+02 -0.18836407993E+02  0.41283108856E+02  0.47000000000E+01 0. -1.
        -13    1    4    4    0    0 -0.61971458501E+02  0.81840855839E+02  0.44106959687E+02  0.11173097711E+03  0.00000000000E+00 0.  1.
         14    1    4    4    0    0 -0.98726431973E+01  0.71516050964E+02  0.10442288680E+03  0.12694941480E+03  0.00000000000E+00 0. -1.
         -5    1    5    5    0  501  0.65873910303E+02 -0.12584337848E+03  0.22762021780E+04  0.22806346426E+04  0.47000000000E+01 0.  1.
         11    1    6    6    0    0  0.53554379557E+02 -0.33056200587E+02  0.39152159593E+03  0.39654753063E+03  0.00000000000E+00 0. -1.
        -12    1    6    6    0    0 -0.12872152771E+02  0.16609262065E+02  0.30861639740E+03  0.30933095650E+03  0.00000000000E+00 0.  1.
</event>
<event>
12    1  0.1081556E+000  0.2345681E+03  0.7818608E-02  0.1123465E+00
          2   -1    0    0  502    0  0.00000000000E+00  0.00000000000E+00  0.56321044525E+03  0.56321044525E+03  0.00000000000E+00 0. -1.
         -2   -1    0    0    0  501 -0.00000000000E+00 -0.00000000000E+00 -0.19845119630E+03  0.19845119630E+03  0.00000000000E+00 0.  1.
          6    2    1    2  502    0  0.15297802026E+03  0.15773503176E+02 -0.89577754991E+02  0.24961240837E+03  0.17501743381E+03 0.  0.
         24    2    3    3    0    0  0.15262892274E+03 -0.22336347737E+02 -0.11044834403E+03  0.20590709870E+03  0.80027470976E+02 0.  0.
         -6    2    1    2    0  501 -0.15297802026E+03 -0.15773503176E+02  0.45433700393E+03  0.51204923318E+03  0.17922395481E+03 0.  0.
        -24    2    5    5    0    0 -0.17076841956E+03 -0.20003064052E+02  0.28049744260E+03  0.33718737177E+03  0.73854808145E+02 0.  0.
          5    1    3    3  502    0  0.34909752097E+00  0.38109850913E+02  0.20870589043E+02  0.43705309662E+02  0.47000000000E+01 0. -1.
        -11    1    4    4    0    0  0.36354037897E+02 -0.19591490912E+02  0.55187678379E+01  0.41664125888E+02  0.00000000000E+00 0.  1.
         12    1    4    4    0    0  0.11627488484E+03 -0.27448568250E+01 -0.11596711187E+03  0.16424297282E+03  0.00000000000E+00 0. -1.
         -5    1    5    5    0  501  0.17790399299E+02  0.42295608766E+01  0.17383956134E+03  0.17486186142E+03  0.47000000000E+01 0.  1.
         11    1    6    6    0    0 -0.64367097081E+02  0.27125676444E+02  0.89499609056E+02  0.11353019656E+03  0.00000000000E+00 0. -1.
        -12    1    6    6    0    0 -0.10640132248E+03 -0.47128740496E+02  0.19099783354E+03  0.22365717521E+03  0.00000000000E+00 0.  1.
</event>
<event>
12    1  0.1081556E+000  0.4866072E+03  0.7818608E-02  0.1017335E+00
          2   -1    0    0  502    0  0.00000000000E+00  0.00000000000E+00  0.54165319090E+03  0.54165319090E+03  0.00000000000E+00 0. -1.
         -2   -1    0    0    0  501 -0.00000000000E+00 -0.00000000000E+00 -0.75086112498E+03  0.75086112498E+03  0.00000000000E+00 0.  1.
          6    2    1    2  502    0 -0.39526940835E+03  0.22601629120E+03 -0.52232375816E+03  0.71385936670E+03  0.17161531987E+03 0.  0.
         24    2    3    3    0    0 -0.39029977357E+03  0.20858789778E+03 -0.52890448629E+03  0.69401391004E+03  0.77926422732E+02 0.  0.
         -6    2    1    2    0  501  0.39526940835E+03 -0.22601629120E+03  0.31311582409E+03  0.57865494918E+03  0.17169380262E+03 0.  0.
        -24    2    5    5    0    0  0.25410802746E+03 -0.18349247021E+03  0.27838606504E+03  0.42711928682E+03  0.81802858868E+02 0.  0.
          5    1    3    3  502    0 -0.49696347753E+01  0.17428393426E+02  0.65807281286E+01  0.19845456656E+02  0.47000000000E+01 0. -1.
        -13    1    4    4    0    0 -0.37209587392E+03  0.19381183064E+03 -0.46679935205E+03  0.62763046465E+03  0.00000000000E+00 0.  1.
         14    1    4    4    0    0 -0.18203899654E+02  0.14776067135E+02 -0.62105134239E+02  0.66383445387E+02  0.00000000000E+00 0. -1.
         -5    1    5    5    0  501  0.14116138088E+03 -0.42523820989E+02  0.34729759046E+02  0.15153566236E+03  0.47000000000E+01 0.  1.
         11    1    6    6    0    0  0.10433738818E+03 -0.34962573131E+02  0.68861245258E+02  0.12980964214E+03  0.00000000000E+00 0. -1.
        -12    1    6    6    0    0  0.14977063928E+03 -0.14852989708E+03  0.20952481978E+03  0.29730964468E+03  0.00000000000E+00 0.  1.
</event>
<event>
12    1  0.1081556E+000  0.6212141E+03  0.7818608E-02  0.9862345E-01
         -2   -1    0    0    0  501 -0.00000000000E+00  0.00000000000E+00  0.21200676735E+03  0.21200676735E+03  0.00000000000E+00 0.  1.
          2   -1    0    0  502    0  0.00000000000E+00 -0.00000000000E+00 -0.20334565506E+04  0.20334565506E+04  0.00000000000E+00 0. -1.
          6    2    1    2  502    0 -0.25541873351E+03 -0.53953104630E+03 -0.54736795550E+03  0.82806463422E+03  0.17247283957E+03 0.  0.
         24    2    3    3    0    0 -0.15305218253E+03 -0.41709954098E+03 -0.46959970063E+03  0.65047416229E+03  0.72081615653E+02 0.  0.
         -6    2    1    2    0  501  0.25541873351E+03  0.53953104630E+03 -0.12740818278E+04  0.14173986837E+04  0.17147024659E+03 0.  0.
        -24    2    5    5    0    0  0.15993163883E+03  0.46228944885E+03 -0.98614175060E+03  0.11043242075E+04  0.88129106390E+02 0.  0.
          5    1    3    3  502    0 -0.10236655098E+03 -0.12243150531E+03 -0.77768254870E+02  0.17759047193E+03  0.47000000000E+01 0. -1.
        -11    1    4    4    0    0 -0.99273716204E+02 -0.34973062024E+03 -0.36920720845E+03  0.51815127157E+03  0.00000000000E+00 0.  1.
         12    1    4    4    0    0 -0.53778466326E+02 -0.67368920743E+02 -0.10039249218E+03  0.13232289072E+03  0.00000000000E+00 0. -1.
         -5    1    5    5    0  501  0.95487094685E+02  0.77241597445E+02 -0.28794007716E+03  0.31307447622E+03  0.47000000000E+01 0.  1.
         11    1    6    6    0    0  0.70628146272E+02  0.11227328385E+03 -0.21240822085E+03  0.25042140004E+03  0.00000000000E+00 0. -1.
        -12    1    6    6    0    0  0.89303492555E+02  0.35001616500E+03 -0.77373352974E+03  0.85390280746E+03  0.00000000000E+00 0.  1.
</event>
<event>
12    1  0.1081556E+000  0.3399402E+03  0.7818608E-02  0.1066821E+00
          2   -1    0    0  502    0  0.00000000000E+00  0.00000000000E+00  0.34954334187E+03  0.34954334187E+03  0.00000000000E+00 0. -1.
         -2   -1    0    0    0  501 -0.00000000000E+00 -0.00000000000E+00 -0.91921144308E+03  0.91921144308E+03  0.00000000000E+00 0.  1.
          6    2    1    2  502    0  0.22885862304E+03  0.18223489764E+03 -0.79265753333E+03  0.86272046138E+03  0.17434105103E+03 0.  0.
         24    2    3    3    0    0  0.24221566996E+03  0.13490692999E+03 -0.70762858021E+03  0.76438247231E+03  0.81694834097E+02 0.  0.
         -6    2    1    2    0  501 -0.22885862304E+03 -0.18223489764E+03  0.22298943212E+03  0.40603432358E+03  0.17191206424E+03 0.  0.
        -24    2    5    5    0    0 -0.15646258277E+03 -0.64644270981E+02  0.66130693754E+02  0.19699964721E+03  0.76001123445E+02 0.  0.
          5    1    3    3  502    0 -0.13357046921E+02  0.47327967643E+02 -0.85028953124E+02  0.98337989063E+02  0.47000000000E+01 0. -1.
        -13    1    4    4    0    0  0.10488900591E+03  0.55417146424E+02 -0.20002812754E+03  0.23255970306E+03  0.00000000000E+00 0.  1.
         14    1    4    4    0    0  0.13732666405E+03  0.79489783571E+02 -0.50760045267E+03  0.53182276926E+03  0.00000000000E+00 0. -1.
         -5    1    5    5    0  501 -0.72396040268E+02 -0.11759062666E+03  0.15685873837E+03  0.20903467637E+03  0.47000000000E+01 0.  1.
         13    1    6    6    0    0 -0.74541231042E+02 -0.28728148560E+02  0.71747048283E+02  0.10737476697E+03  0.00000000000E+00 0. -1.
        -14    1    6    6    0    0 -0.81921351728E+02 -0.35916122421E+02 -0.56163545286E+01  0.89624880234E+02  0.00000000000E+00 0.  1.
</event>
<event>
12    1  0.1081556E+000  0.5550823E+03  0.7818608E-02  0.1000324E+00
         -2   -1    0    0    0  501 -0.00000000000E+00  0.00000000000E+00  0.61360986021E+03  0.61360986021E+03  0.00000000000E+00 0.  1.
          2   -1    0    0  502    0  0.00000000000E+00 -0.00000000000E+00 -0.10318853092E+04  0.10318853092E+04  0.00000000000E+00 0. -1.
          6    2    1    2  502    0  0.23440142527E+03  0.47018827846E+03  0.38003679679E+03  0.67417363633E+03  0.18455644025E+03 0.  0.
         24    2    3    3    0    0  0.21099559753E+03  0.25608969828E+03  0.22899716024E+03  0.41107461198E+03  0.80259338836E+02 0.  0.
         -6    2    1    2    0  501 -0.23440142527E+03 -0.47018827846E+03 -0.79831224580E+03  0.97132153309E+03  0.17361461196E+03 0.  0.
        -24    2    5    5    0    0 -0.25091171658E+03 -0.40444217460E+03 -0.66576168100E+03  0.82236891606E+03  0.80758009516E+02 0.  0.
          5    1    3    3  502    0  0.23405827740E+02  0.21409858018E+03  0.15103963655E+03  0.26309902435E+03  0.47000000000E+01 0. -1.
        -13    1    4    4    0    0  0.12869214258E+03  0.21099992645E+03  0.15709208391E+03  0.29284903850E+03  0.00000000000E+00 0.  1.
         14    1    4    4    0    0  0.82303454957E+02  0.45089771825E+02  0.71905076339E+02  0.11822557348E+03  0.00000000000E+00 0. -1.
         -5    1    5    5    0  501  0.16510291309E+02 -0.65746103858E+02 -0.13255056481E+03  0.14895261704E+03  0.47000000000E+01 0.  1.
         11    1    6    6    0    0 -0.14457390675E+03 -0.30126441968E+03 -0.47701761947E+03  0.58241537957E+03  0.00000000000E+00 0. -1.
        -12    1    6    6    0    0 -0.10633780983E+03 -0.10317775492E+03 -0.18874406153E+03  0.23995353649E+03  0.00000000000E+00 0.  1.
</event>
<event>
12    1  0.1081556E+000  0.2677871E+03  0.7818608E-02  0.1102553E+00
          2   -1    0    0  502    0  0.00000000000E+00  0.00000000000E+00  0.11044446013E+04  0.11044446013E+04  0.00000000000E+00 0. -1.
         -2   -1    0    0    0  501 -0.00000000000E+00 -0.00000000000E+00 -0.71718158716E+02  0.71718158716E+02  0.00000000000E+00 0.  1.
          6    2    1    2  502    0  0.19674652016E+03  0.63248058747E+02  0.33641099321E+03  0.43033273729E+03  0.17118527476E+03 0.  0.
         24    2    3    3    0    0  0.20024201524E+03  0.34747309416E+02  0.33660882248E+03  0.40123565265E+03  0.79876838968E+02 0.  0.
         -6    2    1    2    0  501 -0.19674652016E+03 -0.63248058747E+02  0.69631544941E+03  0.74583002277E+03  0.16940397763E+03 0.  0.
        -24    2    5    5    0    0 -0.18043259868E+03 -0.40553857812E+02  0.68785183240E+03  0.71625142234E+03  0.75335374289E+02 0.  0.
          5    1    3    3  502    0 -0.34954950747E+01  0.28500749330E+02 -0.19782927010E+00  0.29097084641E+02  0.47000000000E+01 0. -1.
        -11    1    4    4    0    0  0.10515891626E+03  0.45366500764E+02  0.12814417883E+03  0.17186462006E+03  0.00000000000E+00 0.  1.
         12    1    4    4    0    0  0.95083098975E+02 -0.10619191347E+02  0.20846464365E+03  0.22937103259E+03  0.00000000000E+00 0. -1.
         -5    1    5    5    0  501 -0.16313921487E+02 -0.22694200935E+02  0.84636170143E+01  0.29578600429E+02  0.47000000000E+01 0.  1.
         11    1    6    6    0    0 -0.14649677671E+03 -0.41472227795E+02  0.63815411785E+03  0.65606549170E+03  0.00000000000E+00 0. -1.
        -12    1    6    6    0    0 -0.33935821965E+02  0.91836998398E+00  0.49697714542E+02  0.60185930636E+02  0.00000000000E+00 0.  1.
</event>
<event>
12    1  0.1081556E+000  0.1922442E+03  0.7818608E-02  0.1156453E+00
         -2   -1    0    0    0  501 -0.00000000000E+00  0.00000000000E+00  0.41877523210E+02  0.41877523210E+02  0.00000000000E+00 0.  1.
          2   -1    0    0  502    0  0.00000000000E+00 -0.00000000000E+00 -0.15657423665E+04  0.15657423665E+04  0.00000000000E+00 0. -1.
          6    2    1    2  502    0  0.55385254497E+02  0.68550217355E+02 -0.23205283039E+03  0.30165332814E+03  0.17140465445E+03 0.  0.
         24    2    3    3    0    0  0.44114335226E+02  0.72163732516E+02 -0.65836748251E+02  0.13495009759E+03  0.81996174031E+02 0.  0.
         -6    2    1    2    0  501 -0.55385254497E+02 -0.68550217355E+02 -0.12918120129E+04  0.13059665615E+04  0.17030479900E+03 0.  0.
        -24    2    5    5    0    0 -0.11861333768E+02 -0.58297308846E+02 -0.36584249128E+03  0.37890610034E+03  0.78675517121E+02 0.  0.
          5    1    3    3  502    0  0.11270919271E+02 -0.36135151608E+01 -0.16621608214E+03  0.16670323055E+03  0.47000000000E+01 0. -1.
        -13    1    4    4    0    0  0.52992302059E+02  0.86112637691E+02 -0.58927964837E+02  0.11703023322E+03  0.00000000000E+00 0.  1.
         14    1    4    4    0    0 -0.88779668333E+01 -0.13948905176E+02 -0.69087834140E+01  0.17919864368E+02  0.00000000000E+00 0. -1.
         -5    1    5    5    0  501 -0.43523920729E+02 -0.10252908509E+02 -0.92596952159E+03  0.92706046120E+03  0.47000000000E+01 0.  1.
         11    1    6    6    0    0 -0.18633384607E+02  0.10606273278E+02 -0.36214929076E+02  0.42085830665E+02  0.00000000000E+00 0. -1.
        -12    1    6    6    0    0  0.67720508392E+01 -0.68903582124E+02 -0.32962756220E+03  0.33682026968E+03  0.00000000000E+00 0.  1.
</event>
<event>
12    1  0.1081556E+000  0.5127297E+03  0.7818608E-02  0.1010509E+00
         -2   -1    0    0    0  501 -0.00000000000E+00  0.00000000000E+00  0.28841040258E+03  0.28841040258E+03  0.00000000000E+00 0.  1.
          2   -1    0    0  502    0  0.00000000000E+00 -0.00000000000E+00 -0.18918821709E+04  0.18918821709E+04  0.00000000000E+00 0. -1.
          6    2    1    2  502    0 -0.47654508479E+03  0.76818595684E+02 -0.16865163683E+02  0.51284622659E+03  0.17242535747E+03 0.  0.
         24    2    3    3    0    0 -0.19725315193E+03 -0.19476962533E+02 -0.35770698175E+02  0.21677811360E+03  0.80156407556E+02 0.  0.
         -6    2    1    2    0  501  0.47654508479E+03 -0.76818595684E+02 -0.15866066047E+04  0.16674463469E+04  0.17337960495E+03 0.  0.
        -24    2    5    5    0    0  0.24132181025E+03 -0.42419050584E+02 -0.61129847404E+03  0.66357316905E+03  0.81289202005E+02 0.  0.
          5    1    3    3  502    0 -0.27929193286E+03  0.96295558217E+02  0.18905534492E+02  0.29606811299E+03  0.47000000000E+01 0. -1.
        -11    1    4    4    0    0 -0.76150146320E+02  0.31240710280E+02 -0.91980572579E+01  0.82821682069E+02  0.00000000000E+00 0.  1.
         12    1    4    4    0    0 -0.12110300561E+03 -0.50717672813E+02 -0.26572640917E+02  0.13395643153E+03  0.00000000000E+00 0. -1.
         -5    1    5    5    0  501  0.23522327455E+03 -0.34399545099E+02 -0.97530813064E+03  0.10038731779E+04  0.47000000000E+01 0.  1.
         11    1    6    6    0    0  0.60190213544E+02  0.15770126238E+02 -0.21752688687E+03  0.22625097834E+03  0.00000000000E+00 0. -1.
        -12    1    6    6    0    0  0.18113159670E+03 -0.58189176822E+02 -0.39377158717E+03  0.43732219071E+03  0.00000000000E+00 0.  1.
</event>
<event>
12    1  0.1081556E+000  0.4824146E+03  0.7818608E-02  0.1018474E+00
          2   -1    0    0  502    0  0.00000000000E+00  0.00000000000E+00  0.28363666636E+04  0.28363666636E+04  0.00000000000E+00 0. -1.
         -2   -1    0    0    0  501 -0.00000000000E+00 -0.00000000000E+00 -0.95433580725E+02  0.95433580725E+02  0.00000000000E+00 0.  1.
          6    2    1    2  502    0 -0.23153803642E+03 -0.38661487638E+03  0.82139738387E+03  0.95256182907E+03  0.17204490990E+03 0.  0.
         24    2    3    3    0    0 -0.21763638490E+03 -0.37968747696E+03  0.69676456725E+03  0.82687700995E+03  0.81954567988E+02 0.  0.
         -6    2    1    2    0  501  0.23153803642E+03  0.38661487638E+03  0.19195356990E+04  0.19792384152E+04  0.17229764865E+03 0.  0.
        -24    2    5    5    0    0  0.33975076767E+02  0.90882382890E+02  0.53860895448E+03  0.55324066124E+03  0.81004382827E+02 0.  0.
          5    1    3    3  502    0 -0.13901651520E+02 -0.69273994132E+01  0.12463281663E+03  0.12568481912E+03  0.47000000000E+01 0. -1.
        -11    1    4    4    0    0 -0.15573402583E+03 -0.19587961336E+03  0.42049294543E+03  0.48932221173E+03  0.00000000000E+00 0.  1.
         12    1    4    4    0    0 -0.61902359066E+02 -0.18380786361E+03  0.27627162181E+03  0.33755479822E+03  0.00000000000E+00 0. -1.
         -5    1    5    5    0  501  0.19756295965E+03  0.29573249349E+03  0.13809267445E+04  0.14259977540E+04  0.47000000000E+01 0.  1.
         11    1    6    6    0    0  0.55415819402E+02  0.35783346552E+02  0.24412272914E+03  0.25287797020E+03  0.00000000000E+00 0. -1.
        -12    1    6    6    0    0 -0.21440742635E+02  0.55099036339E+02  0.29448622535E+03  0.30036269104E+03  0.00000000000E+00 0.  1.
</event>
<event>
12    1  0.1081556E+000  0.5194813E+03  0.7818608E-02  0.1008815E+00
         -1   -1    0    0    0  501 -0.00000000000E+00  0.00000000000E+00  0.22455711236E+04  0.22455711236E+04  0.00000000000E+00 0.  1.
          1   -1    0    0  502    0  0.00000000000E+00 -0.00000000000E+00 -0.63690866763E+03  0.63690866763E+03  0.00000000000E+00 0. -1.
          6    2    1    2  502    0 -0.14679418426E+03  0.46846640545E+03  0.21023034778E+04  0.21653738553E+04  0.16779366858E+03 0.  0.
         24    2    3    3    0    0 -0.17242690324E+03  0.44686437271E+03  0.19490379719E+04  0.20084149773E+04  0.74584855587E+02 0.  0.
         -6    2    1    2    0  501  0.14679418426E+03 -0.46846640545E+03 -0.49364102184E+03  0.71710593583E+03  0.17190159739E+03 0.  0.
        -24    2    5    5    0    0  0.11108596404E+03 -0.40066524561E+03 -0.47991090533E+03  0.63911439547E+03  0.72663629155E+02 0.  0.
          5    1    3    3  502    0  0.25632718974E+02  0.21602032743E+02  0.15326550586E+03  0.15695887801E+03  0.47000000000E+01 0. -1.
        -11    1    4    4    0    0 -0.45835253322E+02  0.21305718212E+03  0.94048877093E+03  0.96540839107E+03  0.00000000000E+00 0.  1.
         12    1    4    4    0    0 -0.12659164992E+03  0.23380719059E+03  0.10085492010E+04  0.10430065863E+04  0.00000000000E+00 0. -1.
         -5    1    5    5    0  501  0.35708220225E+02 -0.67801159845E+02 -0.13730116514E+02  0.77991540359E+02  0.47000000000E+01 0.  1.
         13    1    6    6    0    0 -0.11241999243E+01 -0.47340578229E+02 -0.29617784249E+02  0.55853444982E+02  0.00000000000E+00 0. -1.
        -14    1    6    6    0    0  0.11221016396E+03 -0.35332466738E+03 -0.45029312108E+03  0.58326095049E+03  0.00000000000E+00 0.  1.
</event>
<event>
12    1  0.1176887E+000  0.1795172E+03  0.7818608E-02  0.1168271E+00
          1   -1    0    0  502    0  0.00000000000E+00  0.00000000000E+00  0.40746937856E+03  0.40746937856E+03  0.00000000000E+00 0. -1.
         -1   -1    0    0    0  501 -0.00000000000E+00 -0.00000000000E+00 -0.98859893142E+03  0.98859893142E+03  0.00000000000E+00 0.  1.
          6    2    1    2  502    0  0.26621857148E+02 -0.44592947994E+02 -0.96007041815E+03  0.97667461260E+03  0.17164159401E+03 0.  0.
         24    2    3    3    0    0  0.71158588769E+02 -0.66967690522E+02 -0.59354387903E+03  0.60674496598E+03  0.79353015564E+02 0.  0.
         -6    2    1    2    0  501 -0.26621857148E+02  0.44592947994E+02  0.37894086529E+03  0.41939369738E+03  0.17203964581E+03 0.  0.
        -24    2    5    5    0    0 -0.31104994707E+01  0.58093495201E+02  0.37929063009E+03  0.39187532079E+03  0.79500664027E+02 0.  0.
          5    1    3    3  502    0 -0.44536731621E+02  0.22374742528E+02 -0.36652653912E+03  0.36992964661E+03  0.47000000000E+01 0. -1.
        -13    1    4    4    0    0  0.15748147562E+02 -0.65051510239E+02 -0.39387758146E+03  0.39952378191E+03  0.00000000000E+00 0.  1.
         14    1    4    4    0    0  0.55410441208E+02 -0.19161802825E+01 -0.19966629758E+03  0.20722118408E+03  0.00000000000E+00 0. -1.
         -5    1    5    5    0  501 -0.23511357678E+02 -0.13500547207E+02 -0.34976480094E+00  0.27518376590E+02  0.47000000000E+01 0.  1.
         11    1    6    6    0    0 -0.29802080863E+02  0.54068176872E+01  0.21832757581E+03  0.22041852930E+03  0.00000000000E+00 0. -1.
        -12    1    6    6    0    0  0.26691581392E+02  0.52686677514E+02  0.16096305428E+03  0.17145679149E+03  0.00000000000E+00 0.  1.
</event>
<event>
12    1  0.1081556E+000  0.8314628E+03  0.7818608E-02  0.9515560E-01
          2   -1    0    0  502    0  0.00000000000E+00  0.00000000000E+00  0.20181421215E+04  0.20181421215E+04  0.00000000000E+00 0. -1.
         -2   -1    0    0    0  501 -0.00000000000E+00 -0.00000000000E+00 -0.90191108511E+03  0.90191108511E+03  0.00000000000E+00 0.  1.
          6    2    1    2  502    0  0.25374758110E+03  0.77270042765E+03 -0.59150332709E+03  0.10209706122E+04  0.17621299373E+03 0.  0.
         24    2    3    3    0    0  0.54401265882E+02  0.21765071299E+03 -0.12364982294E+03  0.26815713562E+03  0.79294640908E+02 0.  0.
         -6    2    1    2    0  501 -0.25374758110E+03 -0.77270042765E+03  0.17077343635E+04  0.18990825944E+04  0.16942331150E+03 0.  0.
        -24    2    5    5    0    0 -0.84875230547E+02 -0.39913597409E+03  0.94811362915E+03  0.10358827208E+04  0.87293911548E+02 0.  0.
          5    1    3    3  502    0  0.19934631522E+03  0.55504971466E+03 -0.46785350415E+03  0.75281347655E+03  0.47000000000E+01 0. -1.
        -13    1    4    4    0    0  0.56495948666E+02  0.17192525301E+03 -0.12875641565E+03  0.22209975103E+03  0.00000000000E+00 0.  1.
         14    1    4    4    0    0 -0.20946827844E+01  0.45725459980E+02  0.51065927023E+01  0.46057384591E+02  0.00000000000E+00 0. -1.
         -5    1    5    5    0  501 -0.16887235055E+03 -0.37356445355E+03  0.75962073430E+03  0.86319987356E+03  0.47000000000E+01 0.  1.
         13    1    6    6    0    0 -0.92498392744E+02 -0.26733342393E+03  0.59288340254E+03  0.65691235429E+03  0.00000000000E+00 0. -1.
        -14    1    6    6    0    0  0.76231621977E+01 -0.13180255016E+03  0.35523022661E+03  0.37897036655E+03  0.00000000000E+00 0.  1.
</event>
<event>
12    1  0.1081556E+000  0.5449726E+03  0.7818608E-02  0.1002664E+00
          2   -1    0    0  502    0  0.00000000000E+00  0.00000000000E+00  0.53579757809E+03  0.53579757809E+03  0.00000000000E+00 0.  1.
         -2   -1    0    0    0  501 -0.00000000000E+00 -0.00000000000E+00 -0.58391267176E+03  0.58391267176E+03  0.00000000000E+00 0. -1.
          6    2    1    2  502    0  0.27964412846E+03 -0.43542180255E+03 -0.15010325615E+03  0.56477550513E+03  0.16925542521E+03 0.  0.
         24    2    3    3    0    0  0.19128001597E+03 -0.32519507425E+03 -0.46320430199E+02  0.38941555254E+03  0.84610930028E+02 0.  0.
         -6    2    1    2    0  501 -0.27964412846E+03  0.43542180255E+03  0.10198816247E+03  0.55493474472E+03  0.17250507498E+03 0.  0.
        -24    2    5    5    0    0 -0.18046244437E+03  0.30231641864E+03  0.13410758112E+03  0.38579634949E+03  0.83018486859E+02 0.  0.
          5    1    3    3  502    0  0.88364112493E+02 -0.11022672831E+03 -0.10378282595E+03  0.17535995259E+03  0.47000000000E+01 0. -1.
        -11    1    4    4    0    0  0.40035819353E+02 -0.56054007648E+02  0.23704048119E+02  0.72847789959E+02  0.00000000000E+00 0.  1.
         12    1    4    4    0    0  0.15124419662E+03 -0.26914106660E+03 -0.70024478318E+02  0.31656776258E+03  0.00000000000E+00 0. -1.
         -5    1    5    5    0  501 -0.99181684088E+02  0.13310538392E+03 -0.32119418651E+02  0.16913839523E+03  0.47000000000E+01 0.  1.
         13    1    6    6    0    0 -0.17196439463E+02  0.32084589542E+01 -0.42687633770E+01  0.18006501043E+02  0.00000000000E+00 0. -1.
        -14    1    6    6    0    0 -0.16326600491E+03  0.29910795968E+03  0.13837634450E+03  0.36778984845E+03  0.00000000000E+00 0.  1.
</event>
<event>
12    1  0.1081556E+000  0.2481018E+03  0.7818608E-02  0.1114510E+00
         -1   -1    0    0    0  501 -0.00000000000E+00  0.00000000000E+00  0.30389094926E+03  0.30389094926E+03  0.00000000000E+00 0.  1.
          1   -1    0    0  502    0  0.00000000000E+00 -0.00000000000E+00 -0.99814342516E+03  0.99814342516E+03  0.00000000000E+00 0. -1.
          6    2    1    2  502    0 -0.40609649951E+02 -0.17377537141E+03  0.23402753279E+03  0.34123088399E+03  0.17269223117E+03 0.  0.
         24    2    3    3    0    0 -0.53806937157E+02 -0.17989876137E+03  0.14430853466E+03  0.25021850615E+03  0.80781166214E+02 0.  0.
         -6    2    1    2    0  501  0.40609649951E+02  0.17377537141E+03 -0.92828000869E+03  0.96080349042E+03  0.17202485078E+03 0.  0.
        -24    2    5    5    0    0 -0.14610232829E+02  0.17358847804E+03 -0.75495132953E+03  0.77883043911E+03  0.79239663746E+02 0.  0.
          5    1    3    3  502    0  0.13197287206E+02  0.61233899640E+01  0.89718998132E+02  0.91012377839E+02  0.47000000000E+01 0. -1.
        -11    1    4    4    0    0 -0.32247775206E+02 -0.17904603372E+03  0.12119341662E+03  0.21859836557E+03  0.00000000000E+00 0.  1.
         12    1    4    4    0    0 -0.21559161951E+02 -0.85272765270E+00  0.23115118044E+02  0.31620140586E+02  0.00000000000E+00 0. -1.
         -5    1    5    5    0  501  0.55219882780E+02  0.18689336975E+00 -0.17332867917E+03  0.18197305132E+03  0.47000000000E+01 0.  1.
         13    1    6    6    0    0 -0.19497813618E+02  0.87525625837E+02 -0.53728500075E+03  0.54471650603E+03  0.00000000000E+00 0. -1.
        -14    1    6    6    0    0  0.48875807890E+01  0.86062852202E+02 -0.21766632878E+03  0.23411393307E+03  0.00000000000E+00 0.  1.
</event>
<event>
12    1  0.1081556E+000  0.2990989E+03  0.7818608E-02  0.1085692E+00
         -1   -1    0    0    0  501 -0.00000000000E+00  0.00000000000E+00  0.28712712377E+03  0.28712712377E+03  0.00000000000E+00 0.  1.
          1   -1    0    0  502    0  0.00000000000E+00 -0.00000000000E+00 -0.37201341612E+03  0.37201341612E+03  0.00000000000E+00 0. -1.
          6    2    1    2  502    0  0.36967055502E+02  0.24193475723E+03  0.90388831099E+02  0.31256031850E+03  0.17211862758E+03 0.  0.
         24    2    3    3    0    0  0.28448253158E+02  0.20917581679E+03  0.10869988964E+02  0.22600944082E+03  0.79989282039E+02 0.  0.
         -6    2    1    2    0  501 -0.36967055502E+02 -0.24193475723E+03 -0.17527512345E+03  0.34658022139E+03  0.17174833625E+03 0.  0.
        -24    2    5    5    0    0 -0.62095508942E+02 -0.25187180545E+03 -0.15654213009E+03  0.31336577965E+03  0.79983840558E+02 0.  0.
          5    1    3    3  502    0  0.85188023447E+01  0.32758940443E+02  0.79518842136E+02  0.86550877679E+02  0.47000000000E+01 0. -1.
        -13    1    4    4    0    0  0.21961385648E+02  0.52581642330E+02  0.35820975337E+02  0.67307308993E+02  0.00000000000E+00 0.  1.
         14    1    4    4    0    0  0.64868675095E+01  0.15659417446E+03 -0.24950986373E+02  0.15870213182E+03  0.00000000000E+00 0. -1.
         -5    1    5    5    0  501  0.25128453440E+02  0.99370482194E+01 -0.18732993364E+02  0.33214441738E+02  0.47000000000E+01 0.  1.
         11    1    6    6    0    0  0.17765288241E+02 -0.23027410962E+02 -0.17072797729E+02  0.33724583677E+02  0.00000000000E+00 0. -1.
        -12    1    6    6    0    0 -0.79860797183E+02 -0.22884439449E+03 -0.13946933236E+03  0.27964119597E+03  0.00000000000E+00 0.  1.
</event>
<event>
12    1  0.1081556E+000  0.2486091E+03  0.7818608E-02  0.1114187E+00
          1   -1    0    0  502    0  0.00000000000E+00  0.00000000000E+00  0.30682492786E+03  0.30682492786E+03  0.00000000000E+00 0. -1.
         -1   -1    0    0    0  501 -0.00000000000E+00 -0.00000000000E+00 -0.37646958779E+03  0.37646958779E+03  0.00000000000E+00 0.  1.
          6    2    1    2  502    0 -0.17462296531E+03 -0.38315485256E+02 -0.26766497984E+03  0.36435947363E+03  0.17073965025E+03 0.  0.
         24    2    3    3    0    0 -0.47264662947E+02  0.33190707442E+02 -0.13453579587E+03  0.16667603376E+03  0.79658323078E+02 0.  0.
         -6    2    1    2    0  501  0.17462296531E+03  0.38315485256E+02  0.19802031991E+03  0.31893504201E+03  0.17477487664E+03 0.  0.
        -24    2    5    5    0    0  0.13768865955E+03  0.83262357130E+02  0.10191358682E+03  0.20649413141E+03  0.79766283882E+02 0.  0.
          5    1    3    3  502    0 -0.12735830237E+03 -0.71506192698E+02 -0.13312918397E+03  0.19768343987E+03  0.47000000000E+01 0. -1.
        -11    1    4    4    0    0 -0.60205659265E+02  0.48603612500E+02 -0.96953497847E+02  0.12404440052E+03  0.00000000000E+00 0.  1.
         12    1    4    4    0    0  0.12940996318E+02 -0.15412905058E+02 -0.37582298023E+02  0.42631633240E+02  0.00000000000E+00 0. -1.
         -5    1    5    5    0  501  0.36934305764E+02 -0.44946871873E+02  0.96106733083E+02  0.11244091060E+03  0.47000000000E+01 0.  1.
         11    1    6    6    0    0  0.35023310198E+02  0.13316145726E+02  0.68130653169E+02  0.77754343258E+02  0.00000000000E+00 0. -1.
        -12    1    6    6    0    0  0.10266534935E+03  0.69946211404E+02  0.33782933653E+02  0.12873978815E+03  0.00000000000E+00 0.  1.
</event>
<event>
12    1  0.1081556E+000  0.2151620E+03  0.7818608E-02  0.1137542E+00
         -1   -1    0    0    0  501 -0.00000000000E+00  0.00000000000E+00  0.13774765842E+03  0.13774765842E+03  0.00000000000E+00 0.  1.
          1   -1    0    0  502    0  0.00000000000E+00 -0.00000000000E+00 -0.50149727627E+03  0.50149727627E+03  0.00000000000E+00 0. -1.
          6    2    1    2  502    0  0.11665680401E+03  0.55502518014E+02  0.15838040675E+01  0.21535480294E+03  0.17229580171E+03 0.  0.
         24    2    3    3    0    0  0.14965452386E+03  0.37612465853E+02 -0.12116801810E+02  0.17512173094E+03  0.81912329127E+02 0.  0.
         -6    2    1    2    0  501 -0.11665680401E+03 -0.55502518014E+02 -0.36533342192E+03  0.42389013176E+03  0.17182838881E+03 0.  0.
        -24    2    5    5    0    0 -0.62917531541E+02 -0.92662521676E+02 -0.30537583022E+03  0.33508822817E+03  0.80528034113E+02 0.  0.
          5    1    3    3  502    0 -0.32997719845E+02  0.17890052161E+02  0.13700605877E+02  0.40233072002E+02  0.47000000000E+01 0. -1.
        -13    1    4    4    0    0  0.49154542572E+02 -0.22850795329E+02 -0.19490719043E+02  0.57603958471E+02  0.00000000000E+00 0.  1.
         14    1    4    4    0    0  0.10049998128E+03  0.60463261181E+02  0.73739172330E+01  0.11751777247E+03  0.00000000000E+00 0. -1.
         -5    1    5    5    0  501 -0.53739272469E+02  0.37160003662E+02 -0.59957591698E+02  0.88801903583E+02  0.47000000000E+01 0.  1.
         11    1    6    6    0    0 -0.58529014184E+01 -0.92235718487E+01  0.23592510614E+01  0.11175723611E+02  0.00000000000E+00 0. -1.
        -12    1    6    6    0    0 -0.57064630123E+02 -0.83438949827E+02 -0.30773508128E+03  0.32391250456E+03  0.00000000000E+00 0.  1.
</event>
<event>
12    1  0.1081556E+000  0.4054901E+03  0.7818608E-02  0.1041895E+00
         -2   -1    0    0    0  501 -0.00000000000E+00  0.00000000000E+00  0.13613344102E+04  0.13613344102E+04  0.00000000000E+00 0.  1.
          2   -1    0    0  502    0  0.00000000000E+00 -0.00000000000E+00 -0.50343564836E+03  0.50343564836E+03  0.00000000000E+00 0. -1.
          6    2    1    2  502    0  0.18342970715E+03 -0.31826154341E+03  0.12419130845E+04  0.13065349547E+04  0.17247785593E+03 0.  0.
         24    2    3    3    0    0  0.99901672576E+02 -0.75538708790E+02  0.47297206766E+03  0.49586628966E+03  0.80587590429E+02 0.  0.
         -6    2    1    2    0  501 -0.18342970715E+03  0.31826154341E+03 -0.38401432269E+03  0.55823510389E+03  0.17094608420E+03 0.  0.
        -24    2    5    5    0    0 -0.43077258063E+02  0.14900086767E+03 -0.10758491290E+03  0.20498831351E+03  0.79929884660E+02 0.  0.
          5    1    3    3  502    0  0.83528034571E+02 -0.24272283462E+03  0.76894101689E+03  0.81066866503E+03  0.47000000000E+01 0. -1.
        -13    1    4    4    0    0  0.92739555002E+02 -0.72980144394E+02  0.47374441326E+03  0.48822176890E+03  0.00000000000E+00 0.  1.
         14    1    4    4    0    0  0.71621175739E+01 -0.25585643963E+01 -0.77234560137E+00  0.76445207594E+01  0.00000000000E+00 0. -1.
         -5    1    5    5    0  501 -0.14035244908E+03  0.16926067574E+03 -0.27642940980E+03  0.35324679038E+03  0.47000000000E+01 0.  1.
         11    1    6    6    0    0 -0.14643388588E+02  0.10757003583E+03 -0.11017173913E+03  0.15467240717E+03  0.00000000000E+00 0. -1.
        -12    1    6    6    0    0 -0.28433869475E+02  0.41430831841E+02  0.25868262294E+01  0.50315906335E+02  0.00000000000E+00 0.  1.
</event>
<event>
12    1  0.1081556E+000  0.8717128E+03  0.7818608E-02  0.9461649E-01
          2   -1    0    0  502    0  0.00000000000E+00  0.00000000000E+00  0.40049461282E+03  0.40049461282E+03  0.00000000000E+00 0. -1.
         -2   -1    0    0    0  501 -0.00000000000E+00 -0.00000000000E+00 -0.25831652394E+04  0.25831652394E+04  0.00000000000E+00 0.  1.
          6    2    1    2  502    0 -0.81663767726E+03 -0.25258351124E+03 -0.18603785191E+04  0.20546506242E+04  0.17287402104E+03 0.  0.
         24    2    3    3    0    0 -0.77133269749E+03 -0.27126269963E+03 -0.17231194163E+04  0.19088301710E+04  0.77165513468E+02 0.  0.
         -6    2    1    2    0  501  0.81663767726E+03  0.25258351124E+03 -0.32229210743E+03  0.92900922796E+03  0.16879104551E+03 0.  0.
        -24    2    5    5    0    0  0.65190968679E+03  0.25856653268E+03 -0.24795366232E+03  0.74812417658E+03  0.79786423497E+02 0.  0.
          5    1    3    3  502    0 -0.45304979770E+02  0.18679188388E+02 -0.13725910284E+03  0.14582045324E+03  0.47000000000E+01 0. -1.
        -13    1    4    4    0    0 -0.50166123468E+02 -0.39127566414E+02 -0.12810525140E+03  0.14303342907E+03  0.00000000000E+00 0.  1.
         14    1    4    4    0    0 -0.72116657402E+03 -0.23213513322E+03 -0.15950141649E+04  0.17657967419E+04  0.00000000000E+00 0. -1.
         -5    1    5    5    0  501  0.16472799047E+03 -0.59830214366E+01 -0.74338445105E+02  0.18088505137E+03  0.47000000000E+01 0.  1.
         13    1    6    6    0    0  0.57395793880E+03  0.20159784535E+03 -0.20034601306E+03  0.64047477055E+03  0.00000000000E+00 0. -1.
        -14    1    6    6    0    0  0.77951747992E+02  0.56968687332E+02 -0.47607649262E+02  0.10764940603E+03  0.00000000000E+00 0.  1.
</event>
<event>
12    1  0.1081556E+000  0.6430603E+03  0.7818608E-02  0.9819889E-01
         -2   -1    0    0    0  501 -0.00000000000E+00  0.00000000000E+00  0.78679219800E+03  0.78679219800E+03  0.00000000000E+00 0.  1.
          2   -1    0    0  502    0  0.00000000000E+00 -0.00000000000E+00 -0.55361695313E+03  0.55361695313E+03  0.00000000000E+00 0. -1.
          6    2    1    2  502    0  0.42650116642E+03  0.44939412836E+03  0.26738550206E+03  0.69637863808E+03  0.17201707272E+03 0.  0.
         24    2    3    3    0    0  0.25639139240E+03  0.25941789006E+03  0.23097676121E+03  0.43874325087E+03  0.78174088946E+02 0.  0.
         -6    2    1    2    0  501 -0.42650116642E+03 -0.44939412836E+03 -0.34210257188E+02  0.64403051305E+03  0.17247212089E+03 0.  0.
        -24    2    5    5    0    0 -0.27150902474E+03 -0.18992476084E+03 -0.29955544325E+02  0.34172750406E+03  0.78049901348E+02 0.  0.
          5    1    3    3  502    0  0.17010977401E+03  0.18997623830E+03  0.36408740842E+02  0.25763538721E+03  0.47000000000E+01 0. -1.
        -13    1    4    4    0    0  0.22013594855E+03  0.20825124097E+03  0.15545463031E+03  0.34057973706E+03  0.00000000000E+00 0.  1.
         14    1    4    4    0    0  0.36255443852E+02  0.51166649091E+02  0.75522130900E+02  0.98163513812E+02  0.00000000000E+00 0. -1.
         -5    1    5    5    0  501 -0.15499214167E+03 -0.25946936752E+03 -0.42547128629E+01  0.30230300899E+03  0.47000000000E+01 0.  1.
         11    1    6    6    0    0 -0.13509499882E+03 -0.14134559934E+03 -0.13472466984E+02  0.19598659272E+03  0.00000000000E+00 0. -1.
        -12    1    6    6    0    0 -0.13641402592E+03 -0.48579161496E+02 -0.16483077341E+02  0.14574091134E+03  0.00000000000E+00 0.  1.
</event>
<event>
12    1  0.1081556E+000  0.7175552E+03  0.7818608E-02  0.9687673E-01
          1   -1    0    0  502    0  0.00000000000E+00  0.00000000000E+00  0.58816501358E+03  0.58816501358E+03  0.00000000000E+00 0. -1.
         -1   -1    0    0    0  501 -0.00000000000E+00 -0.00000000000E+00 -0.14557824575E+04  0.14557824575E+04  0.00000000000E+00 0.  1.
          6    2    1    2  502    0 -0.69650983928E+03  0.28552892366E+02 -0.10789779035E+04  0.12956315009E+04  0.16889773820E+03 0.  0.
         24    2    3    3    0    0 -0.46098802901E+03  0.57707620996E+02 -0.80593848731E+03  0.93383993920E+03  0.81731599206E+02 0.  0.
         -6    2    1    2    0  501  0.69650983928E+03 -0.28552892366E+02  0.21136045960E+03  0.74831597019E+03  0.17135437983E+03 0.  0.
        -24    2    5    5    0    0  0.61938830104E+03 -0.43497627684E+02  0.13892072362E+03  0.64135484584E+03  0.80642171049E+02 0.  0.
          5    1    3    3  502    0 -0.23552181027E+03 -0.29154728630E+02 -0.27303941623E+03  0.36179156172E+03  0.47000000000E+01 0. -1.
        -11    1    4    4    0    0 -0.23115492997E+03 -0.12165098430E+02 -0.39059342069E+03  0.45403062844E+03  0.00000000000E+00 0.  1.
         12    1    4    4    0    0 -0.22983309904E+03  0.69872719426E+02 -0.41534506661E+03  0.47980931076E+03  0.00000000000E+00 0. -1.
         -5    1    5    5    0  501  0.77121538233E+02  0.14944735318E+02  0.72439735975E+02  0.10696112435E+03  0.47000000000E+01 0.  1.
         11    1    6    6    0    0  0.26901895481E+03  0.20442613411E+02  0.67459116483E+02  0.27810039714E+03  0.00000000000E+00 0. -1.
        -12    1    6    6    0    0  0.35036934623E+03 -0.63940241095E+02  0.71461607139E+02  0.36325444870E+03  0.00000000000E+00 0.  1.
</event>
<event>
12    1  0.1081556E+000  0.3395212E+03  0.7818608E-02  0.1067000E+00
         -2   -1    0    0    0  501 -0.00000000000E+00  0.00000000000E+00  0.55677850669E+02  0.55677850669E+02  0.00000000000E+00 0.  1.
          2   -1    0    0  502    0  0.00000000000E+00 -0.00000000000E+00 -0.24209486630E+04  0.24209486630E+04  0.00000000000E+00 0. -1.
          6    2    1    2  502    0 -0.64877402403E+02  0.28594820448E+03 -0.71058806038E+03  0.78741381683E+03  0.17061557490E+03 0.  0.
         24    2    3    3    0    0 -0.39618695862E+02  0.17879892762E+03 -0.28569943127E+03  0.34847030460E+03  0.79175062857E+02 0.  0.
         -6    2    1    2    0  501  0.64877402403E+02 -0.28594820448E+03 -0.16546827520E+04  0.16892126969E+04  0.17172382643E+03 0.  0.
        -24    2    5    5    0    0  0.30893891664E+02 -0.29213400474E+03 -0.14490532139E+04  0.14806491812E+04  0.79183785393E+02 0.  0.
          5    1    3    3  502    0 -0.25258706541E+02  0.10714927686E+03 -0.42488862911E+03  0.43894351223E+03  0.47000000000E+01 0. -1.
        -11    1    4    4    0    0 -0.39568709706E+01  0.15269011723E+03 -0.24298900998E+03  0.28700799239E+03  0.00000000000E+00 0.  1.
         12    1    4    4    0    0 -0.35661824892E+02  0.26108810392E+02 -0.42710421293E+02  0.61462312206E+02  0.00000000000E+00 0. -1.
         -5    1    5    5    0  501  0.33983510739E+02  0.61858002597E+01 -0.20562953808E+03  0.20856351564E+03  0.47000000000E+01 0.  1.
         13    1    6    6    0    0 -0.16612778698E+02 -0.16368806153E+03 -0.69035794852E+03  0.70969279480E+03  0.00000000000E+00 0. -1.
        -14    1    6    6    0    0  0.47506670362E+02 -0.12844594321E+03 -0.75869526541E+03  0.77095638645E+03  0.00000000000E+00 0.  1.
</event>
<event>
12    1  0.1081556E+000  0.4314220E+03  0.7818608E-02  0.1033412E+00
          2   -1    0    0  502    0  0.00000000000E+00  0.00000000000E+00  0.22628586163E+04  0.22628586163E+04  0.00000000000E+00 0. -1.
         -2   -1    0    0    0  501 -0.00000000000E+00 -0.00000000000E+00 -0.12612956432E+03  0.12612956432E+03  0.00000000000E+00 0.  1.
          6    2    1    2  502    0  0.39207219280E+03 -0.54069220081E+02  0.36344323449E+03  0.56391839056E+03  0.17108150569E+03 0.  0.
         24    2    3    3    0    0  0.15327003499E+03 -0.19597629650E+02  0.22910797830E+03  0.28772495802E+03  0.80121252086E+02 0.  0.
         -6    2    1    2    0  501 -0.39207219280E+03  0.54069220081E+02  0.17732858175E+04  0.18250697900E+04  0.17231675231E+03 0.  0.
        -24    2    5    5    0    0 -0.17518958483E+03  0.21346292067E+02  0.57218078374E+03  0.60409303034E+03  0.79940510427E+02 0.  0.
          5    1    3    3  502    0  0.23880215781E+03 -0.34471590431E+02  0.13433525619E+03  0.27619343254E+03  0.47000000000E+01 0. -1.
        -13    1    4    4    0    0  0.59290033928E+02 -0.15905220035E+02  0.31770822720E+02  0.69120686656E+02  0.00000000000E+00 0.  1.
         14    1    4    4    0    0  0.93980001066E+02 -0.36924096144E+01  0.19733715558E+03  0.21860427137E+03  0.00000000000E+00 0. -1.
         -5    1    5    5    0  501 -0.21688260797E+03  0.32722928014E+02  0.12011050337E+04  0.12209767597E+04  0.47000000000E+01 0.  1.
         11    1    6    6    0    0 -0.14411212951E+03  0.47392317369E+02  0.47960997993E+03  0.50303088421E+03  0.00000000000E+00 0. -1.
        -12    1    6    6    0    0 -0.31077455328E+02 -0.26046025301E+02  0.92570803808E+02  0.10106214613E+03  0.00000000000E+00 0.  1.
</event>
<event>
12    1  0.1081556E+000  0.2753446E+03  0.7818608E-02  0.1098259E+00
         -2   -1    0    0    0  501 -0.00000000000E+00  0.00000000000E+00  0.19220983971E+03  0.19220983971E+03  0.00000000000E+00 0.  1.
          2   -1    0    0  502    0  0.00000000000E+00 -0.00000000000E+00 -0.14287577228E+04  0.14287577228E+04  0.00000000000E+00 0. -1.
          6    2    1    2  502    0 -0.17785699659E+03  0.11949725290E+03  0.71594622567E+02  0.28406911277E+03  0.17221139962E+03 0.  0.
         24    2    3    3    0    0 -0.14005528772E+03  0.14802851672E+03  0.87123909259E+02  0.23400664225E+03  0.75103979068E+02 0.  0.
         -6    2    1    2    0  501  0.17785699659E+03 -0.11949725290E+03 -0.13081425057E+04  0.13368984498E+04  0.17363163638E+03 0.  0.
        -24    2    5    5    0    0  0.13831456629E+02 -0.15917026898E+02 -0.33936766505E+03  0.34888021977E+03  0.78117441895E+02 0.  0.
          5    1    3    3  502    0 -0.37801708874E+02 -0.28531263820E+02 -0.15529286692E+02  0.50062470515E+02  0.47000000000E+01 0. -1.
        -13    1    4    4    0    0 -0.16951207624E+02  0.21146516991E+02  0.44581219314E+02  0.52172825650E+02  0.00000000000E+00 0.  1.
         14    1    4    4    0    0 -0.12310408009E+03  0.12688199973E+03  0.42542689944E+02  0.18183381660E+03  0.00000000000E+00 0. -1.
         -5    1    5    5    0  501  0.16402553996E+03 -0.10358022601E+03 -0.96877484066E+03  0.98801823003E+03  0.47000000000E+01 0.  1.
         13    1    6    6    0    0  0.45431128958E+02 -0.46768272437E+01 -0.22978913060E+03  0.23428381236E+03  0.00000000000E+00 0. -1.
        -14    1    6    6    0    0 -0.31599672329E+02 -0.11240199654E+02 -0.10957853445E+03  0.11459640741E+03  0.00000000000E+00 0.  1.
</event>
<event>
12    1  0.1081556E+000  0.5193177E+03  0.7818608E-02  0.1008856E+00
          1   -1    0    0  502    0  0.00000000000E+00  0.00000000000E+00  0.15467570995E+04  0.15467570995E+04  0.00000000000E+00 0. -1.
         -1   -1    0    0    0  501 -0.00000000000E+00 -0.00000000000E+00 -0.63175999612E+03  0.63175999612E+03  0.00000000000E+00 0.  1.
          6    2    1    2  502    0  0.37375489916E+03  0.31479152498E+03 -0.46904325327E+03  0.70067875065E+03  0.17933964795E+03 0.  0.
         24    2    3    3    0    0  0.36650610778E+03  0.32793203954E+03 -0.47011912460E+03  0.68491595907E+03  0.78941307760E+02 0.  0.
         -6    2    1    2    0  501 -0.37375489916E+03 -0.31479152498E+03  0.13840403566E+04  0.14778383450E+04  0.17219766596E+03 0.  0.
        -24    2    5    5    0    0 -0.35996019699E+03 -0.29564990789E+03  0.11614067507E+04  0.12539086511E+04  0.80256172269E+02 0.  0.
          5    1    3    3  502    0  0.72487913840E+01 -0.13140514560E+02  0.10758713286E+01  0.15762791585E+02  0.47000000000E+01 0. -1.
        -11    1    4    4    0    0  0.21015687888E+03  0.13611038495E+03 -0.24711272659E+03  0.35179063414E+03  0.00000000000E+00 0.  1.
         12    1    4    4    0    0  0.15634922890E+03  0.19182165460E+03 -0.22300639801E+03  0.33312532492E+03  0.00000000000E+00 0. -1.
         -5    1    5    5    0  501 -0.13794702173E+02 -0.19141617098E+02  0.22263360595E+03  0.22392969390E+03  0.47000000000E+01 0.  1.
         11    1    6    6    0    0 -0.31302867545E+03 -0.23532535380E+03  0.10293419419E+04  0.11013218454E+04  0.00000000000E+00 0. -1.
        -12    1    6    6    0    0 -0.46931521543E+02 -0.60324554083E+02  0.13206480880E+03  0.15258680566E+03  0.00000000000E+00 0.  1.
</event>
<event>
12    1  0.1081556E+000  0.1252176E+04  0.7818608E-02  0.9068374E-01
          2   -1    0    0  502    0  0.00000000000E+00  0.00000000000E+00  0.28883431898E+04  0.28883431898E+04  0.00000000000E+00 0. -1.
         -2   -1    0    0    0  501 -0.00000000000E+00 -0.00000000000E+00 -0.86255493367E+03  0.86255493367E+03  0.00000000000E+00 0.  1.
          6    2    1    2  502    0 -0.77518439173E+01  0.12399905126E+04 -0.12870339449E+03  0.12591409979E+04  0.17673405585E+03 0.  0.
         24    2    3    3    0    0  0.47246810952E+02  0.10667189126E+04 -0.10674780376E+03  0.10759688456E+04  0.78691572464E+02 0.  0.
         -6    2    1    2    0  501  0.77518439173E+01 -0.12399905126E+04  0.21544916506E+04  0.24917571256E+04  0.17141393750E+03 0.  0.
        -24    2    5    5    0    0 -0.10557605443E+01 -0.10987748980E+04  0.19915693413E+04  0.22759210939E+04  0.78491996191E+02 0.  0.
          5    1    3    3  502    0 -0.54998654869E+02  0.17327160000E+03 -0.21955590723E+02  0.18317215227E+03  0.47000000000E+01 0. -1.
        -13    1    4    4    0    0  0.29511016419E+02  0.61495914648E+03 -0.10051560173E+03  0.62381811301E+03  0.00000000000E+00 0.  1.
         14    1    4    4    0    0  0.17735794533E+02  0.45175976609E+03 -0.62322020364E+01  0.45215073262E+03  0.00000000000E+00 0. -1.
         -5    1    5    5    0  501  0.88076044616E+01 -0.14121561451E+03  0.16292230936E+03  0.21583603167E+03  0.47000000000E+01 0.  1.
         11    1    6    6    0    0 -0.16901441125E+02 -0.84838282837E+03  0.14755665516E+04  0.17021562004E+04  0.00000000000E+00 0. -1.
        -12    1    6    6    0    0  0.15845680581E+02 -0.25039206967E+03  0.51600278967E+03  0.57376489357E+03  0.00000000000E+00 0.  1.
</event>
<event>
12    1  0.1081556E+000  0.5777163E+03  0.7818608E-02  0.9952748E-01
         -1   -1    0    0    0  501 -0.00000000000E+00  0.00000000000E+00  0.39425406827E+03  0.39425406827E+03  0.00000000000E+00 0.  1.
          1   -1    0    0  502    0  0.00000000000E+00 -0.00000000000E+00 -0.99142169174E+03  0.99142169174E+03  0.00000000000E+00 0. -1.
          6    2    1    2  502    0 -0.47085065309E+03  0.28720397741E+03 -0.33749269906E+02  0.57872658160E+03  0.17204354352E+03 0.  0.
         24    2    3    3    0    0 -0.42398358808E+03  0.26976220554E+03 -0.74243234513E+02  0.51420845733E+03  0.79778124965E+02 0.  0.
         -6    2    1    2    0  501  0.47085065309E+03 -0.28720397741E+03 -0.56341835356E+03  0.80694917841E+03  0.17187284037E+03 0.  0.
        -24    2    5    5    0    0  0.37609299365E+03 -0.24700911137E+03 -0.52793534248E+03  0.69797314731E+03  0.77403795521E+02 0.  0.
          5    1    3    3  502    0 -0.46867065017E+02  0.17441771877E+02  0.40493964607E+02  0.64518124269E+02  0.47000000000E+01 0. -1.
        -13    1    4    4    0    0 -0.15523105723E+03  0.96528742724E+02  0.11523324872E+02  0.18315912840E+03  0.00000000000E+00 0.  1.
         14    1    4    4    0    0 -0.26875253085E+03  0.17323346281E+03 -0.85766559385E+02  0.33104932893E+03  0.00000000000E+00 0. -1.
         -5    1    5    5    0  501  0.94757659441E+02 -0.40194866047E+02 -0.35483011080E+02  0.10897603110E+03  0.47000000000E+01 0.  1.
         13    1    6    6    0    0  0.71625112629E+02 -0.71535794186E+02 -0.15873712651E+03  0.18826843055E+03  0.00000000000E+00 0. -1.
        -14    1    6    6    0    0  0.30446788102E+03 -0.17547331718E+03 -0.36919821596E+03  0.50970471676E+03  0.00000000000E+00 0.  1.
</event>
<event>
12    1  0.1081556E+000  0.5709198E+03  0.7818608E-02  0.9967645E-01
          1   -1    0    0  502    0  0.00000000000E+00  0.00000000000E+00  0.90972086021E+03  0.90972086021E+03  0.00000000000E+00 0. -1.
         -1   -1    0    0    0  501 -0.00000000000E+00 -0.00000000000E+00 -0.41671921101E+03  0.41671921101E+03  0.00000000000E+00 0.  1.
          6    2    1    2  502    0  0.39981827803E+03 -0.36834264843E+03 -0.17243515475E+01  0.57120264307E+03  0.17532405415E+03 0.  0.
         24    2    3    3    0    0  0.35335316445E+03 -0.37237396840E+03 -0.22295404197E+02  0.52001166215E+03  0.79963820309E+02 0.  0.
         -6    2    1    2    0  501 -0.39981827803E+03  0.36834264843E+03  0.49472600074E+03  0.75523742815E+03  0.17349004285E+03 0.  0.
        -24    2    5    5    0    0 -0.17017291121E+03  0.24761157866E+03  0.27656625026E+03  0.41622599407E+03  0.80528713874E+02 0.  0.
          5    1    3    3  502    0  0.46465113581E+02  0.40313199618E+01  0.20571052650E+02  0.51190980923E+02  0.47000000000E+01 0. -1.
        -13    1    4    4    0    0  0.22369918100E+03 -0.18774579131E+03  0.93733411290E+01  0.29219456747E+03  0.00000000000E+00 0.  1.
         14    1    4    4    0    0  0.12965398345E+03 -0.18462817709E+03 -0.31668745326E+02  0.22781709468E+03  0.00000000000E+00 0. -1.
         -5    1    5    5    0  501 -0.22964536682E+03  0.12073106978E+03  0.21815975048E+03  0.33901143408E+03  0.47000000000E+01 0.  1.
         13    1    6    6    0    0 -0.50525238021E+02  0.74257801859E+02  0.13604751505E+03  0.16302130893E+03  0.00000000000E+00 0. -1.
        -14    1    6    6    0    0 -0.11964767319E+03  0.17335377680E+03  0.14051873521E+03  0.25320468514E+03  0.00000000000E+00 0.  1.
</event>
<event>
12    1  0.1081556E+000  0.3133900E+03  0.7818608E-02  0.1078732E+00
          1   -1    0    0  502    0  0.00000000000E+00  0.00000000000E+00  0.16486120253E+04  0.16486120253E+04  0.00000000000E+00 0. -1.
         -1   -1    0    0    0  501 -0.00000000000E+00 -0.00000000000E+00 -0.12774765243E+03  0.12774765243E+03  0.00000000000E+00 0.  1.
          6    2    1    2  502    0  0.25612101246E+03  0.56113415910E+02  0.11219204592E+03  0.33336205175E+03  0.17261666754E+03 0.  0.
         24    2    3    3    0    0  0.20631510050E+03  0.97036164664E+02  0.11697706252E+03  0.26855243352E+03  0.80342009219E+02 0.  0.
         -6    2    1    2    0  501 -0.25612101246E+03 -0.56113415910E+02  0.14086723270E+04  0.14429976260E+04  0.17069778964E+03 0.  0.
        -24    2    5    5    0    0 -0.19019694267E+03 -0.91480861891E+02  0.85097222557E+03  0.88028248285E+03  0.78739417339E+02 0.  0.
          5    1    3    3  502    0  0.49805911960E+02 -0.40922748754E+02 -0.47850166014E+01  0.64809618234E+02  0.47000000000E+01 0. -1.
        -11    1    4    4    0    0  0.10561888360E+03  0.67656502290E+02  0.22600253161E+02  0.12745007775E+03  0.00000000000E+00 0.  1.
         12    1    4    4    0    0  0.10069621690E+03  0.29379662374E+02  0.94376809357E+02  0.14110235577E+03  0.00000000000E+00 0. -1.
         -5    1    5    5    0  501 -0.65924069791E+02  0.35367445981E+02  0.55770010142E+03  0.56271514316E+03  0.47000000000E+01 0.  1.
         13    1    6    6    0    0 -0.15947406992E+03 -0.55036117746E+02  0.74835088158E+03  0.76713101567E+03  0.00000000000E+00 0. -1.
        -14    1    6    6    0    0 -0.30722872745E+02 -0.36444744145E+02  0.10262134399E+03  0.11315146719E+03  0.00000000000E+00 0.  1.
</event>
<event>
12    1  0.1081556E+000  0.3804556E+03  0.7818608E-02  0.1050765E+00
         -4   -1    0    0    0  501 -0.00000000000E+00  0.00000000000E+00  0.10015346978E+04  0.10015346978E+04  0.00000000000E+00 0.  1.
          4   -1    0    0  502    0  0.00000000000E+00 -0.00000000000E+00 -0.33647423752E+03  0.33647423752E+03  0.00000000000E+00 0. -1.
          6    2    1    2  502    0  0.12245085553E+03 -0.31630624838E+03  0.83772413174E+03  0.91995643605E+03  0.17173895464E+03 0.  0.
         24    2    3    3    0    0  0.29022556857E+02 -0.14370027404E+03  0.52300149150E+03  0.54901964945E+03  0.79999611295E+02 0.  0.
         -6    2    1    2    0  501 -0.12245085553E+03  0.31630624838E+03 -0.17266367147E+03  0.41805249926E+03  0.17294881876E+03 0.  0.
        -24    2    5    5    0    0 -0.10753147644E+03  0.20881256256E+03 -0.49122771707E+02  0.25354741036E+03  0.81899559758E+02 0.  0.
          5    1    3    3  502    0  0.93428298673E+02 -0.17260597434E+03  0.31472264024E+03  0.37093678660E+03  0.47000000000E+01 0. -1.
        -13    1    4    4    0    0  0.45546421153E+02 -0.13898471855E+03  0.49510106363E+03  0.51625215901E+03  0.00000000000E+00 0.  1.
         14    1    4    4    0    0 -0.16523864296E+02 -0.47155554961E+01  0.27900427866E+02  0.32767490445E+02  0.00000000000E+00 0. -1.
         -5    1    5    5    0  501 -0.14919379088E+02  0.10749368581E+03 -0.12354089976E+03  0.16450508890E+03  0.47000000000E+01 0.  1.
         13    1    6    6    0    0 -0.71637053924E+01  0.39664761622E+02 -0.39796090286E+02  0.56642217396E+02  0.00000000000E+00 0. -1.
        -14    1    6    6    0    0 -0.10036777105E+03  0.16914780094E+03 -0.93266814212E+01  0.19690519296E+03  0.00000000000E+00 0.  1.
</event>
<event>
12    1  0.1081556E+000  0.3611199E+03  0.7818608E-02  0.1058141E+00
          1   -1    0    0  502    0  0.00000000000E+00  0.00000000000E+00  0.59224888217E+03  0.59224888217E+03  0.00000000000E+00 0. -1.
         -1   -1    0    0    0  501 -0.00000000000E+00 -0.00000000000E+00 -0.84364332392E+03  0.84364332392E+03  0.00000000000E+00 0.  1.
          6    2    1    2  502    0  0.26694964216E+03  0.17166780191E+03 -0.74289169411E+03  0.82606539022E+03  0.17252250310E+03 0.  0.
         24    2    3    3    0    0  0.13121351904E+03  0.84109424694E+02 -0.54027975259E+03  0.56690433337E+03  0.72020339031E+02 0.  0.
         -6    2    1    2    0  501 -0.26694964216E+03 -0.17166780191E+03  0.49149725236E+03  0.60982681587E+03  0.17200944922E+03 0.  0.
        -24    2    5    5    0    0 -0.14981657075E+03 -0.12608661326E+03  0.40755104804E+03  0.45860890558E+03  0.76690498760E+02 0.  0.
          5    1    3    3  502    0  0.13573612312E+03  0.87558377215E+02 -0.20261194152E+03  0.25916105685E+03  0.47000000000E+01 0. -1.
        -11    1    4    4    0    0  0.73299008779E+02  0.80014655200E+02 -0.28148235192E+03  0.30167433464E+03  0.00000000000E+00 0.  1.
         12    1    4    4    0    0  0.57914510259E+02  0.40947694940E+01 -0.25879740066E+03  0.26522999873E+03  0.00000000000E+00 0. -1.
         -5    1    5    5    0  501 -0.11713307140E+03 -0.45581188652E+02  0.83946204318E+02  0.15121791030E+03  0.47000000000E+01 0.  1.
         13    1    6    6    0    0 -0.54825766962E+02 -0.15362000625E+02  0.65754378780E+02  0.86979848901E+02  0.00000000000E+00 0. -1.
        -14    1    6    6    0    0 -0.94990803793E+02 -0.11072461263E+03  0.34179666926E+03  0.37162905668E+03  0.00000000000E+00 0.  1.
</event>
<event>
12    1  0.1081556E+000  0.3735643E+03  0.7818608E-02  0.1053338E+00
          1   -1    0    0  502    0  0.00000000000E+00  0.00000000000E+00  0.73977635701E+03  0.73977635701E+03  0.00000000000E+00 0. -1.
         -1   -1    0    0    0  501 -0.00000000000E+00 -0.00000000000E+00 -0.21230682775E+03  0.21230682775E+03  0.00000000000E+00 0.  1.
          6    2    1    2  502    0 -0.25047260302E+03 -0.21769335808E+03  0.42254413395E+03  0.56385501692E+03  0.17106142744E+03 0.  0.
         24    2    3    3    0    0 -0.81204485062E+02 -0.51661049079E+02  0.85603297461E+02  0.15182390076E+03  0.80371263029E+02 0.  0.
         -6    2    1    2    0  501  0.25047260302E+03  0.21769335808E+03  0.10492539531E+03  0.38822816784E+03  0.17200246716E+03 0.  0.
        -24    2    5    5    0    0  0.14923612989E+03  0.89279483882E+02  0.11697868207E+03  0.22419671263E+03  0.79610961480E+02 0.  0.
          5    1    3    3  502    0 -0.16926811796E+03 -0.16603230900E+03  0.33694083649E+03  0.41203111616E+03  0.47000000000E+01 0. -1.
        -13    1    4    4    0    0 -0.61378805674E+02 -0.67863396799E+01  0.11288334024E+02  0.62776099570E+02  0.00000000000E+00 0.  1.
         14    1    4    4    0    0 -0.19825679388E+02 -0.44874709399E+02  0.74314963436E+02  0.89047801193E+02  0.00000000000E+00 0. -1.
         -5    1    5    5    0  501  0.10123647313E+03  0.12841387420E+03 -0.12053286759E+02  0.16403145521E+03  0.47000000000E+01 0.  1.
         13    1    6    6    0    0  0.15646915080E+03  0.93777498402E+02  0.10887223198E+03  0.21243817278E+03  0.00000000000E+00 0. -1.
        -14    1    6    6    0    0 -0.72330209144E+01 -0.44980145205E+01  0.81064500910E+01  0.11758539844E+02  0.00000000000E+00 0.  1.
</event>
<event>
12    1  0.1081556E+000  0.5866231E+03  0.7818608E-02  0.9933554E-01
         -2   -1    0    0    0  501 -0.00000000000E+00  0.00000000000E+00  0.10931781258E+04  0.10931781258E+04  0.00000000000E+00 0.  1.
          2   -1    0    0  502    0  0.00000000000E+00 -0.00000000000E+00 -0.31683760811E+03  0.31683760811E+03  0.00000000000E+00 0. -1.
          6    2    1    2  502    0  0.39232075794E+03  0.40109876047E+03  0.33175750080E+03  0.67419665541E+03  0.17228551323E+03 0.  0.
         24    2    3    3    0    0  0.11315014386E+03  0.82562298212E+02  0.11952919630E+03  0.20041964797E+03  0.79128492850E+02 0.  0.
         -6    2    1    2    0  501 -0.39232075794E+03 -0.40109876047E+03  0.44458301691E+03  0.73581907852E+03  0.17023473390E+03 0.  0.
        -24    2    5    5    0    0 -0.33906166567E+03 -0.27637786376E+03  0.29369355101E+03  0.53288669099E+03  0.79779614143E+02 0.  0.
          5    1    3    3  502    0  0.27917061408E+03  0.31853646226E+03  0.21222830449E+03  0.47377700744E+03  0.47000000000E+01 0. -1.
        -13    1    4    4    0    0  0.40281177261E+02  0.50028118512E+02  0.10154451027E+02  0.65026907961E+02  0.00000000000E+00 0.  1.
         14    1    4    4    0    0  0.72868966604E+02  0.32534179700E+02  0.10937474528E+03  0.13539274001E+03  0.00000000000E+00 0. -1.
         -5    1    5    5    0  501 -0.53259092275E+02 -0.12472089671E+03  0.15088946591E+03  0.20293238753E+03  0.47000000000E+01 0.  1.
         11    1    6    6    0    0 -0.15428682446E+03 -0.17588027283E+03  0.16519355038E+03  0.28640391698E+03  0.00000000000E+00 0. -1.
        -12    1    6    6    0    0 -0.18477484121E+03 -0.10049759093E+03  0.12850000063E+03  0.24648277402E+03  0.00000000000E+00 0.  1.
</event>
<event>
12    1  0.1081556E+000  0.3132862E+03  0.7818608E-02  0.1078781E+00
         -4   -1    0    0    0  501 -0.00000000000E+00  0.00000000000E+00  0.10978460479E+04  0.10978460479E+04  0.00000000000E+00 0.  1.
          4   -1    0    0  502    0  0.00000000000E+00 -0.00000000000E+00 -0.99334115496E+02  0.99334115496E+02  0.00000000000E+00 0. -1.
          6    2    1    2  502    0 -0.25921806132E+03 -0.41085674386E+02  0.68740596984E+03  0.75510309107E+03  0.16962215307E+03 0.  0.
         24    2    3    3    0    0 -0.22865701559E+03 -0.29169210133E+02  0.67990916464E+03  0.72112851638E+03  0.67933727871E+02 0.  0.
         -6    2    1    2    0  501  0.25921806132E+03  0.41085674386E+02  0.31110596260E+03  0.44207707236E+03  0.17252009156E+03 0.  0.
        -24    2    5    5    0    0  0.21120418618E+03 -0.50674742656E+01  0.15855209535E+03  0.27555314691E+03  0.78472175168E+02 0.  0.
          5    1    3    3  502    0 -0.30561045735E+02 -0.11916464253E+02  0.74968052004E+01  0.33974574684E+02  0.47000000000E+01 0. -1.
        -11    1    4    4    0    0 -0.22167434186E+03 -0.36496365276E+02  0.60180388141E+03  0.64237015046E+03  0.00000000000E+00 0.  1.
         12    1    4    4    0    0 -0.69826737237E+01  0.73271551434E+01  0.78105283227E+02  0.78758365923E+02  0.00000000000E+00 0. -1.
         -5    1    5    5    0  501  0.48013875140E+02  0.46153148652E+02  0.15255386725E+03  0.16652392545E+03  0.47000000000E+01 0.  1.
         13    1    6    6    0    0  0.94881733270E+02  0.52774237336E+01  0.11893120953E+03  0.15223346251E+03  0.00000000000E+00 0. -1.
        -14    1    6    6    0    0  0.11632245291E+03 -0.10344897999E+02  0.39620885824E+02  0.12331968440E+03  0.00000000000E+00 0.  1.
</event>
<event>
12    1  0.1081556E+000  0.5611302E+03  0.7818608E-02  0.9989501E-01
          2   -1    0    0  502    0  0.00000000000E+00  0.00000000000E+00  0.62564898485E+03  0.62564898485E+03  0.00000000000E+00 0. -1.
         -2   -1    0    0    0  501 -0.00000000000E+00 -0.00000000000E+00 -0.10838941810E+04  0.10838941810E+04  0.00000000000E+00 0.  1.
          6    2    1    2  502    0 -0.52332236763E+03 -0.10721434755E+03 -0.85471640747E+03  0.10223943693E+04  0.17143188848E+03 0.  0.
         24    2    3    3    0    0 -0.30511534804E+03  0.47493002639E+01 -0.45565804181E+03  0.55397166379E+03  0.78373603683E+02 0.  0.
         -6    2    1    2    0  501  0.52332236763E+03  0.10721434755E+03  0.39647121132E+03  0.68714879655E+03  0.17211284209E+03 0.  0.
        -24    2    5    5    0    0  0.38748171305E+03  0.67337026679E+02  0.36332588067E+03  0.54167169491E+03  0.82013269628E+02 0.  0.
          5    1    3    3  502    0 -0.21820701960E+03 -0.11196364782E+03 -0.39905836566E+03  0.46842270551E+03  0.47000000000E+01 0. -1.
        -11    1    4    4    0    0 -0.10528294459E+03 -0.15776451969E+02 -0.21933530991E+03  0.24380601516E+03  0.00000000000E+00 0.  1.
         12    1    4    4    0    0 -0.19983240345E+03  0.20525752233E+02 -0.23632273190E+03  0.31016564862E+03  0.00000000000E+00 0. -1.
         -5    1    5    5    0  501  0.13584065458E+03  0.39877320874E+02  0.33145330650E+02  0.14547710164E+03  0.47000000000E+01 0.  1.
         11    1    6    6    0    0  0.89154694053E+02  0.12826026092E+02  0.40554041903E+02  0.98781054518E+02  0.00000000000E+00 0. -1.
        -12    1    6    6    0    0  0.29832701900E+03  0.54511000588E+02  0.32277183877E+03  0.44289064039E+03  0.00000000000E+00 0.  1.
</event>
<event>
12    1  0.1081556E+000  0.6143122E+03  0.7818608E-02  0.9876150E-01
          1   -1    0    0  502    0  0.00000000000E+00  0.00000000000E+00  0.82787862069E+03  0.82787862069E+03  0.00000000000E+00 0. -1.
         -1   -1    0    0    0  501 -0.00000000000E+00 -0.00000000000E+00 -0.55212262992E+03  0.55212262992E+03  0.00000000000E+00 0.  1.
          6    2    1    2  502    0 -0.55152420028E+03  0.20962196774E+03 -0.15026738379E+03  0.63240915694E+03  0.17099924647E+03 0.  0.
         24    2    3    3    0    0 -0.55351481662E+03  0.18598434638E+03 -0.15140195949E+03  0.60820013055E+03  0.77562981797E+02 0.  0.
         -6    2    1    2    0  501  0.55152420028E+03 -0.20962196774E+03  0.42602337457E+03  0.74759209367E+03  0.17110730545E+03 0.  0.
        -24    2    5    5    0    0  0.41423948609E+03 -0.10295173787E+03  0.25360147371E+03  0.50269000591E+03  0.78677330950E+02 0.  0.
          5    1    3    3  502    0  0.19906163357E+01  0.23637621357E+02  0.11345756990E+01  0.24209026392E+02  0.47000000000E+01 0. -1.
        -11    1    4    4    0    0 -0.33856112622E+03  0.14182881664E+03 -0.12192197594E+03  0.38678678575E+03  0.00000000000E+00 0.  1.
         12    1    4    4    0    0 -0.21495369040E+03  0.44155529745E+02 -0.29479983553E+02  0.22141334480E+03  0.00000000000E+00 0. -1.
         -5    1    5    5    0  501  0.13728471419E+03 -0.10667022987E+03  0.17242190086E+03  0.24490208776E+03  0.47000000000E+01 0.  1.
         13    1    6    6    0    0  0.37030215448E+03 -0.10360149337E+03  0.24989972905E+03  0.45859222586E+03  0.00000000000E+00 0. -1.
        -14    1    6    6    0    0  0.43937331615E+02  0.64975550359E+00  0.37017446555E+01  0.44097780048E+02  0.00000000000E+00 0.  1.
</event>
<event>
12    1  0.1081556E+000  0.1819421E+03  0.7818608E-02  0.1165937E+00
          2   -1    0    0  502    0  0.00000000000E+00  0.00000000000E+00  0.59978884584E+03  0.59978884584E+03  0.00000000000E+00 0. -1.
         -2   -1    0    0    0  501 -0.00000000000E+00 -0.00000000000E+00 -0.55225944583E+02  0.55225944583E+02  0.00000000000E+00 0.  1.
          6    2    1    2  502    0 -0.47150046147E+02 -0.37574835190E+02  0.26486409844E+03  0.32162849513E+03  0.17221179734E+03 0.  0.
         24    2    3    3    0    0 -0.90654094602E+02 -0.11941476616E+02  0.12843391597E+03  0.17607796784E+03  0.78405460625E+02 0.  0.
         -6    2    1    2    0  501  0.47150046147E+02  0.37574835190E+02  0.27969880282E+03  0.33338629530E+03  0.17111401610E+03 0.  0.
        -24    2    5    5    0    0 -0.94203185587E+01 -0.35512477214E+02  0.12546859650E+03  0.15352243585E+03  0.80479134938E+02 0.  0.
          5    1    3    3  502    0  0.43504048454E+02 -0.25633358574E+02  0.13643018247E+03  0.14555052728E+03  0.47000000000E+01 0. -1.
        -13    1    4    4    0    0 -0.91245345139E+02 -0.33347358978E+02  0.11603390719E+03  0.15133283510E+03  0.00000000000E+00 0.  1.
         14    1    4    4    0    0  0.59125053713E+00  0.21405882362E+02  0.12400008783E+02  0.24745132748E+02  0.00000000000E+00 0. -1.
         -5    1    5    5    0  501  0.56570364706E+02  0.73087312403E+02  0.15423020631E+03  0.17986385945E+03  0.47000000000E+01 0.  1.
         11    1    6    6    0    0  0.32221301950E+02 -0.33825263894E+02  0.69512145077E+02  0.83751412466E+02  0.00000000000E+00 0. -1.
        -12    1    6    6    0    0 -0.41641620509E+02 -0.16872133196E+01  0.55956451424E+02  0.69771023379E+02  0.00000000000E+00 0.  1.
</event>
<event>
12    1  0.1081556E+000  0.6083451E+03  0.7818608E-02  0.9888242E-01
          1   -1    0    0  502    0  0.00000000000E+00  0.00000000000E+00  0.11684405077E+04  0.11684405077E+04  0.00000000000E+00 0. -1.
         -1   -1    0    0    0  501 -0.00000000000E+00 -0.00000000000E+00 -0.31689389309E+03  0.31689389309E+03  0.00000000000E+00 0.  1.
          6    2    1    2  502    0  0.15682788453E+03 -0.56400586440E+03  0.40777869616E+03  0.73064175858E+03  0.15765885291E+03 0.  0.
         24    2    3    3    0    0  0.85683977767E+02 -0.31294773034E+03  0.29777716496E+03  0.44742087480E+03  0.78969445110E+02 0.  0.
         -6    2    1    2    0  501 -0.15682788453E+03  0.56400586440E+03  0.44376791845E+03  0.75469264220E+03  0.17301276921E+03 0.  0.
        -24    2    5    5    0    0 -0.13228581189E+03  0.33623219749E+03  0.34345462612E+03  0.50455667261E+03  0.77876370084E+02 0.  0.
          5    1    3    3  502    0  0.71143906766E+02 -0.25105813406E+03  0.11000153120E+03  0.28322088378E+03  0.47000000000E+01 0. -1.
        -13    1    4    4    0    0  0.43084408593E+02 -0.92867623524E+02  0.52189914383E+02  0.11491061277E+03  0.00000000000E+00 0.  1.
         14    1    4    4    0    0  0.42599569174E+02 -0.22008010682E+03  0.24558725058E+03  0.33251026203E+03  0.00000000000E+00 0. -1.
         -5    1    5    5    0  501 -0.24542072641E+02  0.22777366691E+03  0.10031329233E+03  0.25013596959E+03  0.47000000000E+01 0.  1.
         13    1    6    6    0    0  0.17459532292E+01  0.18441304176E+02  0.44216103935E+02  0.47939481637E+02  0.00000000000E+00 0. -1.
        -14    1    6    6    0    0 -0.13403176512E+03  0.31779089331E+03  0.29923852218E+03  0.45661719097E+03  0.00000000000E+00 0.  1.
</event>
<event>
12    1  0.1081556E+000  0.4636513E+03  0.7818608E-02  0.1023728E+00
          1   -1    0    0  502    0  0.00000000000E+00  0.00000000000E+00  0.24285434229E+04  0.24285434229E+04  0.00000000000E+00 0. -1.
         -1   -1    0    0    0  501 -0.00000000000E+00 -0.00000000000E+00 -0.25286858250E+03  0.25286858250E+03  0.00000000000E+00 0.  1.
          6    2    1    2  502    0  0.84109008456E+02  0.42132502547E+03  0.76100679270E+01  0.46448542212E+03  0.17635104718E+03 0.  0.
         24    2    3    3    0    0  0.10292171165E+03  0.42246367240E+03 -0.26163305217E+01  0.44253357611E+03  0.82223400405E+02 0.  0.
         -6    2    1    2    0  501 -0.84109008456E+02 -0.42132502547E+03  0.21680647724E+04  0.22169265832E+04  0.17224841251E+03 0.  0.
        -24    2    5    5    0    0 -0.44144145661E+02 -0.34701514591E+03  0.19528703020E+04  0.19857342422E+04  0.84082382512E+02 0.  0.
          5    1    3    3  502    0 -0.18812703193E+02 -0.11386469285E+01  0.10226398449E+02  0.21951846016E+02  0.47000000000E+01 0. -1.
        -13    1    4    4    0    0  0.29778491193E+02  0.27744140646E+03  0.13164298482E+02  0.27934529047E+03  0.00000000000E+00 0.  1.
         14    1    4    4    0    0  0.73143220456E+02  0.14502226594E+03 -0.15780629004E+02  0.16318828563E+03  0.00000000000E+00 0. -1.
         -5    1    5    5    0  501 -0.39964862795E+02 -0.74309879559E+02  0.21519447043E+03  0.23119234105E+03  0.47000000000E+01 0.  1.
         13    1    6    6    0    0 -0.51630505092E+02 -0.13661420943E+03  0.93287167130E+03  0.94423445520E+03  0.00000000000E+00 0. -1.
        -14    1    6    6    0    0  0.74863594309E+01 -0.21040093648E+03  0.10199986307E+04  0.10414997870E+04  0.00000000000E+00 0.  1.
</event>
<event>
12    1  0.1081556E+000  0.4501420E+03  0.7818608E-02  0.1027680E+00
          2   -1    0    0  502    0  0.00000000000E+00  0.00000000000E+00  0.10471641060E+03  0.10471641060E+03  0.00000000000E+00 0. -1.
         -2   -1    0    0    0  501 -0.00000000000E+00 -0.00000000000E+00 -0.27219401762E+04  0.27219401762E+04  0.00000000000E+00 0.  1.
          6    2    1    2  502    0  0.41244762126E+03  0.55455024381E+02 -0.20686960303E+04  0.21171208473E+04  0.17178217736E+03 0.  0.
         24    2    3    3    0    0  0.14124173530E+03  0.59481805771E+01 -0.54990968024E+03  0.57350897019E+03  0.80791545481E+02 0.  0.
         -6    2    1    2    0  501 -0.41244762126E+03 -0.55455024381E+02 -0.54852773531E+03  0.70953573946E+03  0.17137674626E+03 0.  0.
        -24    2    5    5    0    0 -0.36610717460E+03 -0.74701698253E+02 -0.53533912712E+03  0.65744062608E+03  0.77623377803E+02 0.  0.
          5    1    3    3  502    0  0.27120588596E+03  0.49506843804E+02 -0.15187863501E+04  0.15436118772E+04  0.47000000000E+01 0. -1.
        -11    1    4    4    0    0  0.21158394110E+01  0.16357793562E+02 -0.12969364600E+03  0.13073827289E+03  0.00000000000E+00 0.  1.
         12    1    4    4    0    0  0.13912589589E+03 -0.10409612985E+02 -0.42021603425E+03  0.44277069730E+03  0.00000000000E+00 0. -1.
         -5    1    5    5    0  501 -0.46340446664E+02  0.19246673872E+02 -0.13188608185E+02  0.52095113379E+02  0.47000000000E+01 0.  1.
         13    1    6    6    0    0 -0.16628888819E+03 -0.64341891399E+02 -0.20985351042E+03  0.27537314532E+03  0.00000000000E+00 0. -1.
        -14    1    6    6    0    0 -0.19981828641E+03 -0.10359806855E+02 -0.32548561670E+03  0.38206748077E+03  0.00000000000E+00 0.  1.
</event>
<event>
12    1  0.1081556E+000  0.4826047E+03  0.7818608E-02  0.1018422E+00
         -2   -1    0    0    0  501 -0.00000000000E+00  0.00000000000E+00  0.12067305664E+03  0.12067305664E+03  0.00000000000E+00 0.  1.
          2   -1    0    0  502    0  0.00000000000E+00 -0.00000000000E+00 -0.22745899155E+04  0.22745899155E+04  0.00000000000E+00 0. -1.
          6    2    1    2  502    0  0.20798488317E+03  0.39639352582E+03 -0.61708036238E+03  0.78540028827E+03  0.18889123919E+03 0.  0.
         24    2    3    3    0    0  0.37815109494E+02  0.49465252102E+02 -0.15684070474E+03  0.18443472233E+03  0.74433638011E+02 0.  0.
         -6    2    1    2    0  501 -0.20798488317E+03 -0.39639352582E+03 -0.15368364965E+04  0.16098626839E+04  0.17148150061E+03 0.  0.
        -24    2    5    5    0    0 -0.13582580446E+03 -0.34233724796E+03 -0.10680236079E+04  0.11324355917E+04  0.78054480090E+02 0.  0.
          5    1    3    3  502    0  0.17016977367E+03  0.34692827371E+03 -0.46023965764E+03  0.60096556594E+03  0.47000000000E+01 0. -1.
        -13    1    4    4    0    0  0.58440521161E+02  0.49225317669E+02 -0.12268192936E+03  0.14453124992E+03  0.00000000000E+00 0.  1.
         14    1    4    4    0    0 -0.20625411666E+02  0.23993443302E+00 -0.34158775380E+02  0.39903472410E+02  0.00000000000E+00 0. -1.
         -5    1    5    5    0  501 -0.72159078710E+02 -0.54056277860E+02 -0.46881288862E+03  0.47742709218E+03  0.47000000000E+01 0.  1.
         11    1    6    6    0    0 -0.13745396929E+02 -0.89727432048E+02 -0.18794303883E+03  0.20871639572E+03  0.00000000000E+00 0. -1.
        -12    1    6    6    0    0 -0.12208040753E+03 -0.25260981591E+03 -0.88008056905E+03  0.92371919598E+03  0.00000000000E+00 0.  1.
</event>
<event>
12    1  0.1081556E+000  0.3132895E+03  0.7818608E-02  0.1078780E+00
          1   -1    0    0  502    0  0.00000000000E+00  0.00000000000E+00  0.27096630474E+03  0.27096630474E+03  0.00000000000E+00 0. -1.
         -1   -1    0    0    0  501 -0.00000000000E+00 -0.00000000000E+00 -0.52617786739E+03  0.52617786739E+03  0.00000000000E+00 0.  1.
          6    2    1    2  502    0 -0.24569296973E+03 -0.89419243361E+02 -0.34999488559E+03  0.46950151959E+03  0.17197215036E+03 0.  0.
         24    2    3    3    0    0 -0.17300963825E+03 -0.12059004733E+03 -0.30160611731E+03  0.37666807416E+03  0.80238978375E+02 0.  0.
         -6    2    1    2    0  501  0.24569296973E+03  0.89419243361E+02  0.94783322928E+02  0.32764265255E+03  0.17321949372E+03 0.  0.
        -24    2    5    5    0    0  0.25312615045E+03  0.80662897899E+02  0.11866574291E+03  0.30072823734E+03  0.76003704226E+02 0.  0.
          5    1    3    3  502    0 -0.72683331476E+02  0.31170803965E+02 -0.48388768278E+02  0.92833445426E+02  0.47000000000E+01 0. -1.
        -13    1    4    4    0    0 -0.11033242628E+03 -0.60540428835E+02 -0.23742102123E+03  0.26871384247E+03  0.00000000000E+00 0.  1.
         14    1    4    4    0    0 -0.62677211969E+02 -0.60049618490E+02 -0.64185096079E+02  0.10795423169E+03  0.00000000000E+00 0. -1.
         -5    1    5    5    0  501 -0.74331807233E+01  0.87563454616E+01 -0.23882419981E+02  0.26914415201E+02  0.47000000000E+01 0.  1.
         13    1    6    6    0    0  0.84769636494E+02  0.14736504370E+01  0.10265076736E+02  0.85401608400E+02  0.00000000000E+00 0. -1.
        -14    1    6    6    0    0  0.16835651396E+03  0.79189247462E+02  0.10840066617E+03  0.21532662894E+03  0.00000000000E+00 0.  1.
</event>
<event>
12    1  0.1081556E+000  0.5189981E+03  0.7818608E-02  0.1008936E+00
          2   -1    0    0  502    0  0.00000000000E+00  0.00000000000E+00  0.74773914582E+03  0.74773914582E+03  0.00000000000E+00 0. -1.
         -2   -1    0    0    0  501 -0.00000000000E+00 -0.00000000000E+00 -0.39066584736E+03  0.39066584736E+03  0.00000000000E+00 0.  1.
          6    2    1    2  502    0  0.37835155831E+03 -0.30681253470E+03  0.33720843876E+03  0.61839972731E+03  0.17727057975E+03 0.  0.
         24    2    3    3    0    0  0.10567421119E+03 -0.53422913584E+02  0.60566231074E+02  0.15459779028E+03  0.78810924412E+02 0.  0.
         -6    2    1    2    0  501 -0.37835155831E+03  0.30681253470E+03  0.19864859710E+02  0.52000526587E+03  0.18090613796E+03 0.  0.
        -24    2    5    5    0    0 -0.37250455894E+03  0.24208125234E+03  0.15881242070E+01  0.45232620428E+03  0.85049948679E+02 0.  0.
          5    1    3    3  502    0  0.27267734712E+03 -0.25338962112E+03  0.27664220768E+03  0.46380193703E+03  0.47000000000E+01 0. -1.
        -13    1    4    4    0    0  0.43973546001E+02 -0.65735854662E+02  0.29307937665E+02  0.84343526996E+02  0.00000000000E+00 0.  1.
         14    1    4    4    0    0  0.61700665191E+02  0.12312941078E+02  0.31258293409E+02  0.70254263285E+02  0.00000000000E+00 0. -1.
         -5    1    5    5    0  501 -0.58469993744E+01  0.64731282360E+02  0.18276735503E+02  0.67679061595E+02  0.47000000000E+01 0.  1.
         13    1    6    6    0    0 -0.28258446177E+03  0.20713459618E+03 -0.27817460358E+02  0.35147194777E+03  0.00000000000E+00 0. -1.
        -14    1    6    6    0    0 -0.89920097165E+02  0.34946656162E+02  0.29405584565E+02  0.10085425650E+03  0.00000000000E+00 0.  1.
</event>
<event>
12    1  0.1081556E+000  0.7268590E+03  0.7818608E-02  0.9672371E-01
          1   -1    0    0  502    0  0.00000000000E+00  0.00000000000E+00  0.26666852282E+04  0.26666852282E+04  0.00000000000E+00 0. -1.
         -1   -1    0    0    0  501 -0.00000000000E+00 -0.00000000000E+00 -0.12232101100E+04  0.12232101100E+04  0.00000000000E+00 0.  1.
          6    2    1    2  502    0 -0.70606562810E+03  0.92475261645E+01 -0.10587596213E+04  0.12842072950E+04  0.17205305249E+03 0.  0.
         24    2    3    3    0    0 -0.24875725332E+03  0.39400486218E+02 -0.44346633979E+03  0.51697326099E+03  0.84654525340E+02 0.  0.
         -6    2    1    2    0  501  0.70606562810E+03 -0.92475261645E+01  0.25022347396E+04  0.26056880432E+04  0.17267686272E+03 0.  0.
        -24    2    5    5    0    0  0.18579202744E+03  0.20843560658E+01  0.83756557460E+03  0.86156690357E+03  0.79110148313E+02 0.  0.
          5    1    3    3  502    0 -0.45730837479E+03 -0.30152960053E+02 -0.61529328152E+03  0.76723403400E+03  0.47000000000E+01 0. -1.
        -13    1    4    4    0    0 -0.10536924099E+03 -0.22845381991E+02 -0.20909854395E+03  0.23525898390E+03  0.00000000000E+00 0.  1.
         14    1    4    4    0    0 -0.14338801233E+03  0.62245868209E+02 -0.23436779584E+03  0.28171427709E+03  0.00000000000E+00 0. -1.
         -5    1    5    5    0  501  0.52027360066E+03 -0.11331882230E+02  0.16646691650E+04  0.17441211397E+04  0.47000000000E+01 0.  1.
         13    1    6    6    0    0  0.12715689546E+03 -0.35787309018E+02  0.53928596831E+03  0.55522874851E+03  0.00000000000E+00 0. -1.
        -14    1    6    6    0    0  0.58635131981E+02  0.37871665084E+02  0.29827960629E+03  0.30633815506E+03  0.00000000000E+00 0.  1.
</event>
<event>
12    1  0.1081556E+000  0.2371467E+03  0.7818608E-02  0.1121708E+00
         -2   -1    0    0    0  501 -0.00000000000E+00  0.00000000000E+00  0.26498471015E+02  0.26498471015E+02  0.00000000000E+00 0.  1.
          2   -1    0    0  502    0  0.00000000000E+00 -0.00000000000E+00 -0.25532039305E+04  0.25532039305E+04  0.00000000000E+00 0. -1.
          6    2    1    2  502    0  0.15812686186E+03  0.20176777676E+02 -0.74607748806E+03  0.78371695174E+03  0.17935839942E+03 0.  0.
         24    2    3    3    0    0  0.14895294184E+03 -0.13229929457E+02 -0.72070152656E+03  0.74051743424E+03  0.81199569594E+02 0.  0.
         -6    2    1    2    0  501 -0.15812686186E+03 -0.20176777676E+02 -0.17806279714E+04  0.17959854498E+04  0.17180383119E+03 0.  0.
        -24    2    5    5    0    0 -0.84897742280E+02 -0.51498857522E+02 -0.14599708709E+04  0.14655514280E+04  0.80413215589E+02 0.  0.
          5    1    3    3  502    0  0.91739200229E+01  0.33406707133E+02 -0.25375961500E+02  0.43199517498E+02  0.47000000000E+01 0. -1.
        -11    1    4    4    0    0  0.38722438659E+02 -0.34817680307E+02 -0.14771694397E+03  0.15662692506E+03  0.00000000000E+00 0.  1.
         12    1    4    4    0    0  0.11023050318E+03  0.21587750850E+02 -0.57298458259E+03  0.58389050918E+03  0.00000000000E+00 0. -1.
         -5    1    5    5    0  501 -0.73229119582E+02  0.31322079846E+02 -0.32065710054E+03  0.33043402181E+03  0.47000000000E+01 0.  1.
         11    1    6    6    0    0 -0.97110781963E+02 -0.54411261145E+02 -0.13910117767E+04  0.13954586530E+04  0.00000000000E+00 0. -1.
        -12    1    6    6    0    0  0.12213039683E+02  0.29124036223E+01 -0.68959094159E+02  0.70092774952E+02  0.00000000000E+00 0.  1.
</event>
<event>
12    1  0.1081556E+000  0.3542197E+03  0.7818608E-02  0.1060896E+00
          4   -1    0    0  502    0  0.00000000000E+00  0.00000000000E+00  0.55054206298E+03  0.55054206298E+03  0.00000000000E+00 0. -1.
         -4   -1    0    0    0  501 -0.00000000000E+00 -0.00000000000E+00 -0.31051270511E+03  0.31051270511E+03  0.00000000000E+00 0.  1.
          6    2    1    2  502    0 -0.23710397921E+03  0.19896185110E+03 -0.10205011313E+03  0.36860739055E+03  0.17220066092E+03 0.  0.
         24    2    3    3    0    0 -0.20865995530E+03  0.17666402362E+03 -0.28182656355E+02  0.28623781621E+03  0.79929163142E+02 0.  0.
         -6    2    1    2    0  501  0.23710397921E+03 -0.19896185110E+03  0.34207947100E+03  0.49244737753E+03  0.17228447408E+03 0.  0.
        -24    2    5    5    0    0  0.24273265500E+03 -0.19192899635E+03  0.26604427547E+03  0.41573633533E+03  0.79380492302E+02 0.  0.
          5    1    3    3  502    0 -0.28444023919E+02  0.22297827481E+02 -0.73867456774E+02  0.82369574342E+02  0.47000000000E+01 0. -1.
        -11    1    4    4    0    0 -0.11191185632E+03  0.73275366556E+02 -0.50326940385E+02  0.14292076076E+03  0.00000000000E+00 0.  1.
         12    1    4    4    0    0 -0.96748098977E+02  0.10338865706E+03  0.22144284030E+02  0.14331705544E+03  0.00000000000E+00 0. -1.
         -5    1    5    5    0  501 -0.56286757840E+01 -0.70328547491E+01  0.76035195531E+02  0.76711042206E+02  0.47000000000E+01 0.  1.
         13    1    6    6    0    0  0.13233274662E+03 -0.12324784924E+03  0.20092712172E+03  0.27032146865E+03  0.00000000000E+00 0. -1.
        -14    1    6    6    0    0  0.11039990838E+03 -0.68681147116E+02  0.65117153749E+02  0.14541486668E+03  0.00000000000E+00 0.  1.
</event>
<event>
12    1  0.1081556E+000  0.2925274E+03  0.7818608E-02  0.1089037E+00
         -1   -1    0    0    0  501 -0.00000000000E+00  0.00000000000E+00  0.17319025931E+04  0.17319025931E+04  0.00000000000E+00 0.  1.
          1   -1    0    0  502    0  0.00000000000E+00 -0.00000000000E+00 -0.80289530518E+03  0.80289530518E+03  0.00000000000E+00 0. -1.
          6    2    1    2  502    0 -0.11270117669E+03  0.20852199462E+03  0.16922003220E+04  0.17171505309E+04  0.16994422210E+03 0.  0.
         24    2    3    3    0    0 -0.12930322764E+03  0.14125237490E+03  0.99314795625E+03  0.10146570221E+04  0.80712151979E+02 0.  0.
         -6    2    1    2    0  501  0.11270117669E+03 -0.20852199462E+03 -0.76319303401E+03  0.81764736741E+03  0.17291799446E+03 0.  0.
        -24    2    5    5    0    0  0.35038551770E+02 -0.11574847438E+03 -0.58310708010E+03  0.60064172195E+03  0.78301991361E+02 0.  0.
          5    1    3    3  502    0  0.16602050951E+02  0.67269619721E+02  0.69905236574E+03  0.70249350878E+03  0.47000000000E+01 0. -1.
        -11    1    4    4    0    0 -0.11035582234E+03  0.94272246990E+02  0.86070956939E+03  0.87286117277E+03  0.00000000000E+00 0.  1.
         12    1    4    4    0    0 -0.18947405299E+02  0.46980127907E+02  0.13243838685E+03  0.14179584937E+03  0.00000000000E+00 0. -1.
         -5    1    5    5    0  501  0.77662624921E+02 -0.92773520242E+02 -0.18008595391E+03  0.21700564546E+03  0.47000000000E+01 0.  1.
         11    1    6    6    0    0  0.55424565923E+02 -0.51163630814E+02 -0.27327578024E+03  0.28349471193E+03  0.00000000000E+00 0. -1.
        -12    1    6    6    0    0 -0.20386014153E+02 -0.64584843561E+02 -0.30983129987E+03  0.31714701003E+03  0.00000000000E+00 0.  1.
</event>
<event>
12    1  0.1081556E+000  0.3676603E+03  0.7818608E-02  0.1055591E+00
          1   -1    0    0  502    0  0.00000000000E+00  0.00000000000E+00  0.22280926891E+04  0.22280926891E+04  0.00000000000E+00 0. -1.
         -1   -1    0    0    0  501 -0.00000000000E+00 -0.00000000000E+00 -0.60716455188E+02  0.60716455188E+02  0.00000000000E+00 0.  1.
          6    2    1    2  502    0  0.31833618524E+03 -0.57284864370E+02  0.11121059608E+04  0.11709164371E+04  0.17218058031E+03 0.  0.
         24    2    3    3    0    0  0.15537509024E+03 -0.70295904761E+02  0.75559951645E+03  0.77868622348E+03  0.79615780382E+02 0.  0.
         -6    2    1    2    0  501 -0.31833618524E+03  0.57284864370E+02  0.10552702732E+04  0.11178927072E+04  0.17739580836E+03 0.  0.
        -24    2    5    5    0    0 -0.57623288102E+02 -0.93075064435E+01  0.32472818330E+03  0.33935587848E+03  0.79416284348E+02 0.  0.
          5    1    3    3  502    0  0.16296109500E+03  0.13011040391E+02  0.35650644430E+03  0.39223021363E+03  0.47000000000E+01 0. -1.
        -11    1    4    4    0    0  0.10116949122E+03 -0.24365069963E+02  0.29897772640E+03  0.31657006092E+03  0.00000000000E+00 0.  1.
         12    1    4    4    0    0  0.54205599019E+02 -0.45930834798E+02  0.45662179005E+03  0.46211616256E+03  0.00000000000E+00 0. -1.
         -5    1    5    5    0  501 -0.26071289714E+03  0.66592370814E+02  0.73054208986E+03  0.77853682870E+03  0.47000000000E+01 0.  1.
         11    1    6    6    0    0 -0.28616075166E+02 -0.12996042358E+02  0.30894829612E+02  0.44071162586E+02  0.00000000000E+00 0. -1.
        -12    1    6    6    0    0 -0.29007212936E+02  0.36885359147E+01  0.29383335369E+03  0.29528471589E+03  0.00000000000E+00 0.  1.
</event>
<event>
12    1  0.1081556E+000  0.5194620E+03  0.7818608E-02  0.1008820E+00
         -1   -1    0    0    0  501 -0.00000000000E+00  0.00000000000E+00  0.42532178270E+03  0.42532178270E+03  0.00000000000E+00 0.  1.
          1   -1    0    0  502    0  0.00000000000E+00 -0.00000000000E+00 -0.13879692168E+04  0.13879692168E+04  0.00000000000E+00 0. -1.
          6    2    1    2  502    0  0.12865221859E+03 -0.47317817616E+03  0.18676971458E+03  0.55188352492E+03  0.17100736549E+03 0.  0.
         24    2    3    3    0    0  0.11380394876E+03 -0.46938704592E+03  0.15051163918E+03  0.51224034371E+03  0.80379590452E+02 0.  0.
         -6    2    1    2    0  501 -0.12865221859E+03  0.47317817616E+03 -0.11494171486E+04  0.12614074745E+04  0.17187220683E+03 0.  0.
        -24    2    5    5    0    0 -0.86251510863E+02  0.34040050478E+03 -0.96530983913E+03  0.10304414133E+04  0.81698187954E+02 0.  0.
          5    1    3    3  502    0  0.14848269825E+02 -0.37911302441E+01  0.36258075398E+02  0.39643181216E+02  0.47000000000E+01 0. -1.
        -13    1    4    4    0    0  0.59234893129E+02 -0.18413602537E+03  0.22076867668E+02  0.19468496729E+03  0.00000000000E+00 0.  1.
         14    1    4    4    0    0  0.54569055636E+02 -0.28525102055E+03  0.12843477151E+03  0.31755537641E+03  0.00000000000E+00 0. -1.
         -5    1    5    5    0  501 -0.42400707727E+02  0.13277767138E+03 -0.18410730951E+03  0.23096606124E+03  0.47000000000E+01 0.  1.
         11    1    6    6    0    0 -0.69689064364E+02  0.22783622875E+03 -0.74976893696E+03  0.78671428845E+03  0.00000000000E+00 0. -1.
        -12    1    6    6    0    0 -0.16562446499E+02  0.11256427603E+03 -0.21554090216E+03  0.24372712483E+03  0.00000000000E+00 0.  1.
</event>
<event>
12    1  0.1081556E+000  0.3281923E+03  0.7818608E-02  0.1071940E+00
          2   -1    0    0  502    0  0.00000000000E+00  0.00000000000E+00  0.83405885207E+03  0.83405885207E+03  0.00000000000E+00 0. -1.
         -2   -1    0    0    0  501 -0.00000000000E+00 -0.00000000000E+00 -0.14633986478E+03  0.14633986478E+03  0.00000000000E+00 0.  1.
          6    2    1    2  502    0 -0.46051890095E+02 -0.27575156280E+03  0.17606210245E+03  0.37268230565E+03  0.17243704954E+03 0.  0.
         24    2    3    3    0    0 -0.59656884139E+02 -0.25898878099E+03  0.19189153816E+03  0.34550239116E+03  0.10915771790E+03 0.  0.
         -6    2    1    2    0  501  0.46051890095E+02  0.27575156280E+03  0.51165688484E+03  0.60771641120E+03  0.17136734716E+03 0.  0.
        -24    2    5    5    0    0  0.68269820986E+02  0.12276201945E+03  0.18044949373E+03  0.24217590352E+03  0.79723688972E+02 0.  0.
          5    1    3    3  502    0  0.13604994044E+02 -0.16762781811E+02 -0.15829435701E+02  0.27179914489E+02  0.47000000000E+01 0. -1.
        -11    1    4    4    0    0 -0.90877656887E+02 -0.17799490950E+03  0.14436268143E+03  0.24653908436E+03  0.00000000000E+00 0.  1.
         12    1    4    4    0    0  0.31220772748E+02 -0.80993871492E+02  0.47528856724E+02  0.98963306795E+02  0.00000000000E+00 0. -1.
         -5    1    5    5    0  501 -0.22217930891E+02  0.15298954335E+03  0.33120739112E+03  0.36554050768E+03  0.47000000000E+01 0.  1.
         11    1    6    6    0    0  0.51796517878E+02  0.34179382288E+02  0.11546427624E+03  0.13108435653E+03  0.00000000000E+00 0. -1.
        -12    1    6    6    0    0  0.16473303107E+02  0.88582637165E+02  0.64985217482E+02  0.11109154699E+03  0.00000000000E+00 0.  1.
</event>
<event>
12    1  0.1081556E+000  0.3882143E+03  0.7818608E-02  0.1047939E+00
          2   -1    0    0  502    0  0.00000000000E+00  0.00000000000E+00  0.29795925189E+04  0.29795925189E+04  0.00000000000E+00 0. -1.
         -2   -1    0    0    0  501 -0.00000000000E+00 -0.00000000000E+00 -0.64352190044E+02  0.64352190044E+02  0.00000000000E+00 0.  1.
          6    2    1    2  502    0  0.34651084671E+03 -0.29923228975E+02  0.75273194017E+03  0.84681708763E+03  0.17183899334E+03 0.  0.
         24    2    3    3    0    0  0.20209373665E+03 -0.90955421412E+01  0.29813193556E+03  0.36935154080E+03  0.81322213523E+02 0.  0.
         -6    2    1    2    0  501 -0.34651084671E+03  0.29923228975E+02  0.21625083886E+04  0.21971276213E+04  0.17309559979E+03 0.  0.
        -24    2    5    5    0    0 -0.11425865223E+03 -0.47644125738E+01  0.57728611562E+03  0.59459959992E+03  0.84921644473E+02 0.  0.
          5    1    3    3  502    0  0.14441711006E+03 -0.20827686834E+02  0.45460000461E+03  0.47746554683E+03  0.47000000000E+01 0. -1.
        -11    1    4    4    0    0  0.18662216801E+03 -0.18156298532E+01  0.29873632189E+03  0.35224213280E+03  0.00000000000E+00 0.  1.
         12    1    4    4    0    0  0.15471568648E+02 -0.72799122880E+01 -0.60438633256E+00  0.17109408002E+02  0.00000000000E+00 0. -1.
         -5    1    5    5    0  501 -0.23225219448E+03  0.34687641549E+02  0.15852222730E+04  0.16025280214E+04  0.47000000000E+01 0.  1.
         13    1    6    6    0    0 -0.96674875917E+02 -0.31893012990E+02  0.50856963351E+03  0.51865814179E+03  0.00000000000E+00 0. -1.
        -14    1    6    6    0    0 -0.17583776317E+02  0.27128600416E+02  0.68716482105E+02  0.75941458130E+02  0.00000000000E+00 0.  1.
</event>
<event>
12    1  0.1081556E+000  0.3835092E+03  0.7818608E-02  0.1049644E+00
         -1   -1    0    0    0  501 -0.00000000000E+00  0.00000000000E+00  0.11643932157E+03  0.11643932157E+03  0.00000000000E+00 0.  1.
          1   -1    0    0  502    0  0.00000000000E+00 -0.00000000000E+00 -0.13173643409E+04  0.13173643409E+04  0.00000000000E+00 0. -1.
          6    2    1    2  502    0  0.28482869705E+03 -0.19042671758E+03 -0.74594701058E+03  0.83877085422E+03  0.17236554722E+03 0.  0.
         24    2    3    3    0    0  0.27070755048E+03 -0.19078498909E+03 -0.58434892857E+03  0.67648849151E+03  0.80569962601E+02 0.  0.
         -6    2    1    2    0  501 -0.28482869705E+03  0.19042671758E+03 -0.45497800873E+03  0.59503280824E+03  0.17224788248E+03 0.  0.
        -24    2    5    5    0    0 -0.69261217077E+02  0.10415903822E+03 -0.22201074418E+03  0.26608404737E+03  0.76588042787E+02 0.  0.
          5    1    3    3  502    0  0.14121146578E+02  0.35827151495E+00 -0.16159808201E+03  0.16228236271E+03  0.47000000000E+01 0. -1.
        -13    1    4    4    0    0  0.12942297664E+03 -0.13566766938E+03 -0.35617570654E+03  0.40251354925E+03  0.00000000000E+00 0.  1.
         14    1    4    4    0    0  0.14128457383E+03 -0.55117319715E+02 -0.22817322203E+03  0.27397494226E+03  0.00000000000E+00 0. -1.
         -5    1    5    5    0  501 -0.21556747998E+03  0.86267679352E+02 -0.23296726455E+03  0.32894876087E+03  0.47000000000E+01 0.  1.
         13    1    6    6    0    0 -0.83496787087E+02  0.82270867180E+02 -0.20051489705E+03  0.23226371430E+03  0.00000000000E+00 0. -1.
        -14    1    6    6    0    0  0.14235570011E+02  0.21888171043E+02 -0.21495847130E+02  0.33820333071E+02  0.00000000000E+00 0.  1.
</event>
<event>
12    1  0.1081556E+000  0.6783717E+03  0.7818608E-02  0.9754951E-01
          1   -1    0    0  502    0  0.00000000000E+00  0.00000000000E+00  0.13485314910E+04  0.13485314910E+04  0.00000000000E+00 0. -1.
         -1   -1    0    0    0  501 -0.00000000000E+00 -0.00000000000E+00 -0.10527712982E+04  0.10527712982E+04  0.00000000000E+00 0.  1.
          6    2    1    2  502    0  0.26898070578E+03 -0.59894217036E+03 -0.83915089198E+03  0.10793114135E+04  0.17221081376E+03 0.  0.
         24    2    3    3    0    0  0.55174383408E+02 -0.25955472689E+03 -0.34861986781E+03  0.44563976675E+03  0.81523742827E+02 0.  0.
         -6    2    1    2    0  501 -0.26898070578E+03  0.59894217036E+03  0.11349110847E+04  0.13219913757E+04  0.16898427007E+03 0.  0.
        -24    2    5    5    0    0 -0.21752094706E+03  0.32800089909E+03  0.69605864958E+03  0.80365670666E+03  0.80414589991E+02 0.  0.
          5    1    3    3  502    0  0.21380632237E+03 -0.33938744347E+03 -0.49053102417E+03  0.63367164679E+03  0.47000000000E+01 0. -1.
        -11    1    4    4    0    0  0.42274315829E+02 -0.23076489338E+03 -0.25338953894E+03  0.34531986946E+03  0.00000000000E+00 0.  1.
         12    1    4    4    0    0  0.12900067579E+02 -0.28789833503E+02 -0.95230328866E+02  0.10031989729E+03  0.00000000000E+00 0. -1.
         -5    1    5    5    0  501 -0.51459758724E+02  0.27094127127E+03  0.43885243516E+03  0.51833466901E+03  0.47000000000E+01 0.  1.
         11    1    6    6    0    0 -0.99393574701E+02  0.12148162756E+03  0.35133450889E+03  0.38480229426E+03  0.00000000000E+00 0. -1.
        -12    1    6    6    0    0 -0.11812737236E+03  0.20651927153E+03  0.34472414069E+03  0.41885441240E+03  0.00000000000E+00 0.  1.
</event>
<event>
12    1  0.1081556E+000  0.3564389E+03  0.7818608E-02  0.1060003E+00
         -2   -1    0    0    0  501 -0.00000000000E+00  0.00000000000E+00  0.54103879064E+03  0.54103879064E+03  0.00000000000E+00 0.  1.
          2   -1    0    0  502    0  0.00000000000E+00 -0.00000000000E+00 -0.48286122581E+03  0.48286122581E+03  0.00000000000E+00 0. -1.
          6    2    1    2  502    0  0.19219878720E+03  0.24614346941E+03  0.39601386638E+03  0.53283133208E+03  0.17191644699E+03 0.  0.
         24    2    3    3    0    0  0.17513616000E+03  0.24301916356E+03  0.40701930887E+03  0.51175754983E+03  0.80623095989E+02 0.  0.
         -6    2    1    2    0  501 -0.19219878720E+03 -0.24614346941E+03 -0.33783630155E+03  0.49106868437E+03  0.17172100857E+03 0.  0.
        -24    2    5    5    0    0 -0.70648789772E+02 -0.55466767978E+02 -0.63609388467E+02  0.13560490815E+03  0.79213148948E+02 0.  0.
          5    1    3    3  502    0  0.17062627200E+02  0.31243058497E+01 -0.11005442495E+02  0.21073782255E+02  0.47000000000E+01 0. -1.
        -13    1    4    4    0    0  0.68940276818E+02  0.11471742759E+03  0.11920565329E+03  0.17922845125E+03  0.00000000000E+00 0.  1.
         14    1    4    4    0    0  0.10619588319E+03  0.12830173597E+03  0.28781365558E+03  0.33252909857E+03  0.00000000000E+00 0. -1.
         -5    1    5    5    0  501 -0.12154999743E+03 -0.19067670144E+03 -0.27422691309E+03  0.35546377622E+03  0.47000000000E+01 0.  1.
         11    1    6    6    0    0 -0.33229678369E+02 -0.57156582664E+02 -0.71439490312E+02  0.97338005128E+02  0.00000000000E+00 0. -1.
        -12    1    6    6    0    0 -0.37419111403E+02  0.16898146852E+01  0.78301018442E+01  0.38266903020E+02  0.00000000000E+00 0.  1.
</event>
<event>
12    1  0.1336457E+000  0.1022156E+04  0.7818608E-02  0.9284573E-01
          2   -1    0    0  502    0  0.00000000000E+00  0.00000000000E+00  0.15953362904E+04  0.15953362904E+04  0.00000000000E+00 0. -1.
         -2   -1    0    0    0  501 -0.00000000000E+00 -0.00000000000E+00 -0.89697356581E+03  0.89697356581E+03  0.00000000000E+00 0.  1.
          6    2    1    2  502    0  0.97781584048E+03  0.24402498182E+03 -0.29809726825E+03  0.10650507068E+04  0.17262391783E+03 0.  0.
         24    2    3    3    0    0  0.57469112719E+03  0.12822554075E+03 -0.24325835989E+03  0.64202772762E+03  0.79456229509E+02 0.  0.
         -6    2    1    2    0  501 -0.97781584048E+03 -0.24402498182E+03  0.99645999283E+03  0.14272591494E+04  0.16871322615E+03 0.  0.
        -24    2    5    5    0    0 -0.21754621001E+03 -0.81077303567E+02  0.22491118058E+03  0.33187268039E+03  0.75196769874E+02 0.  0.
          5    1    3    3  502    0  0.40312471330E+03  0.11579944107E+03 -0.54838908363E+02  0.42302297916E+03  0.47000000000E+01 0. -1.
        -11    1    4    4    0    0  0.46008698166E+03  0.12494724142E+03 -0.17092174968E+03  0.50646430115E+03  0.00000000000E+00 0.  1.
         12    1    4    4    0    0  0.11460414553E+03  0.32782993348E+01 -0.72336610206E+02  0.13556342647E+03  0.00000000000E+00 0. -1.
         -5    1    5    5    0  501 -0.76026963047E+03 -0.16294767826E+03  0.77154881225E+03  0.10953864690E+04  0.47000000000E+01 0.  1.
         13    1    6    6    0    0 -0.18076507554E+03 -0.35864146548E+02  0.15462466490E+03  0.24056399676E+03  0.00000000000E+00 0. -1.
        -14    1    6    6    0    0 -0.36781134473E+02 -0.45213157019E+02  0.70286515684E+02  0.91308683638E+02  0.00000000000E+00 0.  1.
</event>
<event>
12    1  0.1081556E+000  0.2449224E+03  0.7818608E-02  0.1116556E+00
         -2   -1    0    0    0  501 -0.00000000000E+00  0.00000000000E+00  0.38838205285E+03  0.38838205285E+03  0.00000000000E+00 0.  1.
          2   -1    0    0  502    0  0.00000000000E+00 -0.00000000000E+00 -0.80423669909E+03  0.80423669909E+03  0.00000000000E+00 0. -1.
          6    2    1    2  502    0 -0.17421848464E+03  0.61954320710E+01  0.32804702513E+03  0.40948209283E+03  0.17225060199E+03 0.  0.
         24    2    3    3    0    0 -0.15380951379E+03  0.12886794657E+02  0.34183415257E+03  0.38353069002E+03  0.80135924047E+02 0.  0.
         -6    2    1    2    0  501  0.17421848464E+03 -0.61954320710E+01 -0.74390167137E+03  0.78313665911E+03  0.17182219417E+03 0.  0.
        -24    2    5    5    0    0  0.11197368407E+03  0.62776852538E+02 -0.42363074644E+03  0.44962931797E+03  0.78895342753E+02 0.  0.
          5    1    3    3  502    0 -0.20408970859E+02 -0.66913625858E+01 -0.13787127439E+02  0.25951402809E+02  0.47000000000E+01 0. -1.
        -11    1    4    4    0    0 -0.85798060075E+02  0.22637986854E+02  0.10781906423E+03  0.13963787514E+03  0.00000000000E+00 0.  1.
         12    1    4    4    0    0 -0.68011453711E+02 -0.97511921968E+01  0.23401508833E+03  0.24389281489E+03  0.00000000000E+00 0. -1.
         -5    1    5    5    0  501  0.62244800573E+02 -0.68972284609E+02 -0.32027092492E+03  0.33350734114E+03  0.47000000000E+01 0.  1.
         13    1    6    6    0    0  0.77692771115E+02  0.65901535357E+00 -0.25793055297E+03  0.26937849049E+03  0.00000000000E+00 0. -1.
        -14    1    6    6    0    0  0.34280912956E+02  0.62117837185E+02 -0.16570019347E+03  0.18025082748E+03  0.00000000000E+00 0.  1.
</event>
<event>
12    1  0.1081556E+000  0.5961141E+03  0.7818608E-02  0.9913501E-01
         -1   -1    0    0    0  501 -0.00000000000E+00  0.00000000000E+00  0.32848386717E+03  0.32848386717E+03  0.00000000000E+00 0.  1.
          1   -1    0    0  502    0  0.00000000000E+00 -0.00000000000E+00 -0.10902394766E+04  0.10902394766E+04  0.00000000000E+00 0. -1.
          6    2    1    2  502    0 -0.60719207177E+02 -0.56751705623E+03 -0.44338535262E+03  0.74302401438E+03  0.17242877891E+03 0.  0.
         24    2    3    3    0    0  0.26960943751E+02 -0.35499018887E+03 -0.24778816121E+03  0.44113690054E+03  0.80360845555E+02 0.  0.
         -6    2    1    2    0  501  0.60719207177E+02  0.56751705623E+03 -0.31837025678E+03  0.67569932935E+03  0.17160283229E+03 0.  0.
        -24    2    5    5    0    0  0.84798053895E+02  0.53258955322E+03 -0.32176632347E+03  0.63288175592E+03  0.78507374865E+02 0.  0.
          5    1    3    3  502    0 -0.87680150928E+02 -0.21252686735E+03 -0.19559719140E+03  0.30188711383E+03  0.47000000000E+01 0. -1.
        -13    1    4    4    0    0  0.13142215652E+02 -0.60957145185E+02 -0.10911994312E+02  0.63305315742E+02  0.00000000000E+00 0.  1.
         14    1    4    4    0    0  0.13818728099E+02 -0.29403304369E+03 -0.23687616690E+03  0.37783158480E+03  0.00000000000E+00 0. -1.
         -5    1    5    5    0  501 -0.24078846718E+02  0.34927503007E+02  0.33960666915E+01  0.42817573431E+02  0.47000000000E+01 0.  1.
         11    1    6    6    0    0 -0.57709613293E+01  0.12897150597E+03 -0.52850552462E+02  0.13949958510E+03  0.00000000000E+00 0. -1.
        -12    1    6    6    0    0  0.90569015225E+02  0.40361804725E+03 -0.26891577101E+03  0.49338217082E+03  0.00000000000E+00 0.  1.
</event>
<event>
12    1  0.1081556E+000  0.4365173E+03  0.7818608E-02  0.1031821E+00
          2   -1    0    0  502    0  0.00000000000E+00  0.00000000000E+00  0.89534437828E+03  0.89534437828E+03  0.00000000000E+00 0. -1.
         -2   -1    0    0    0  501 -0.00000000000E+00 -0.00000000000E+00 -0.28756405111E+03  0.28756405111E+03  0.00000000000E+00 0.  1.
          6    2    1    2  502    0 -0.39023784212E+03  0.93230075339E+02  0.22997413794E+01  0.43642098878E+03  0.17169906890E+03 0.  0.
         24    2    3    3    0    0 -0.20783321372E+03  0.68862354678E+02  0.63753992311E+02  0.24234896804E+03  0.82047438472E+02 0.  0.
         -6    2    1    2    0  501  0.39023784212E+03 -0.93230075339E+02  0.60548058578E+03  0.74648744061E+03  0.17221886906E+03 0.  0.
        -24    2    5    5    0    0  0.35196712334E+03 -0.49075821191E+02  0.44378282513E+03  0.57449179568E+03  0.82512637134E+02 0.  0.
          5    1    3    3  502    0 -0.18240462841E+03  0.24367720661E+02 -0.61454250931E+02  0.19407202074E+03  0.47000000000E+01 0. -1.
        -11    1    4    4    0    0 -0.47680486119E+02  0.47228167020E+02 -0.37359697800E+01  0.67215221392E+02  0.00000000000E+00 0.  1.
         12    1    4    4    0    0 -0.16015272760E+03  0.21634187658E+02  0.67489962091E+02  0.17513374665E+03  0.00000000000E+00 0. -1.
         -5    1    5    5    0  501  0.38270718787E+02 -0.44154254148E+02  0.16169776065E+03  0.17199564493E+03  0.47000000000E+01 0.  1.
         11    1    6    6    0    0  0.13878809194E+03 -0.57869782404E+02  0.20560375226E+03  0.25472327951E+03  0.00000000000E+00 0. -1.
        -12    1    6    6    0    0  0.21317903140E+03  0.87939612126E+01  0.23817907287E+03  0.31976851617E+03  0.00000000000E+00 0.  1.
</event>
<event>
12    1  0.1081556E+000  0.3749302E+03  0.7818608E-02  0.1052824E+00
          1   -1    0    0  502    0  0.00000000000E+00  0.00000000000E+00  0.19911488246E+04  0.19911488246E+04  0.00000000000E+00 0. -1.
         -1   -1    0    0    0  501 -0.00000000000E+00 -0.00000000000E+00 -0.87678752078E+02  0.87678752078E+02  0.00000000000E+00 0.  1.
          6    2    1    2  502    0  0.31535570871E+03  0.10544340849E+03  0.49450486637E+03  0.62102193228E+03  0.17483032376E+03 0.  0.
         24    2    3    3    0    0  0.19121903519E+03  0.13060121521E+03  0.28418480098E+03  0.37546247134E+03  0.81176778982E+02 0.  0.
         -6    2    1    2    0  501 -0.31535570871E+03 -0.10544340849E+03  0.14089652061E+04  0.14578056444E+04  0.17160072632E+03 0.  0.
        -24    2    5    5    0    0 -0.30515562160E+03 -0.55819769281E+02  0.11434463889E+04  0.11874560936E+04  0.79665109723E+02 0.  0.
          5    1    3    3  502    0  0.12413667352E+03 -0.25157806722E+02  0.21032006539E+03  0.24555946094E+03  0.47000000000E+01 0. -1.
        -13    1    4    4    0    0  0.35238714794E+02 -0.52400207527E+01  0.23462965536E+02  0.42658358965E+02  0.00000000000E+00 0.  1.
         14    1    4    4    0    0  0.15598032039E+03  0.13584123596E+03  0.26072183544E+03  0.33280411238E+03  0.00000000000E+00 0. -1.
         -5    1    5    5    0  501 -0.10200087109E+02 -0.49623639207E+02  0.26551881717E+03  0.27034955079E+03  0.47000000000E+01 0.  1.
         13    1    6    6    0    0 -0.16251112191E+03 -0.40302488574E+02  0.75534516599E+03  0.77367982726E+03  0.00000000000E+00 0. -1.
        -14    1    6    6    0    0 -0.14264449969E+03 -0.15517280708E+02  0.38810122295E+03  0.41377626629E+03  0.00000000000E+00 0.  1.
</event>
<event>
12    1  0.1081556E+000  0.5348038E+03  0.7818608E-02  0.1005074E+00
         -2   -1    0    0    0  501 -0.00000000000E+00  0.00000000000E+00  0.48629083375E+03  0.48629083375E+03  0.00000000000E+00 0.  1.
          2   -1    0    0  502    0  0.00000000000E+00 -0.00000000000E+00 -0.80313655427E+03  0.80313655427E+03  0.00000000000E+00 0. -1.
          6    2    1    2  502    0 -0.22203644160E+03  0.45552813003E+03  0.17522760025E+03  0.56237191670E+03  0.16956238425E+03 0.  0.
         24    2    3    3    0    0 -0.59359062005E+02  0.83006850718E+02  0.42522908334E+02  0.13474046483E+03  0.77027005784E+02 0.  0.
         -6    2    1    2    0  501  0.22203644160E+03 -0.45552813003E+03 -0.49207332076E+03  0.72705547133E+03  0.17224240688E+03 0.  0.
        -24    2    5    5    0    0  0.16816672028E+03 -0.29092563885E+03 -0.40498302347E+03  0.53314122001E+03  0.85501684377E+02 0.  0.
          5    1    3    3  502    0 -0.16267737960E+03  0.37252127931E+03  0.13270469191E+03  0.42763145187E+03  0.47000000000E+01 0. -1.
        -13    1    4    4    0    0 -0.48900646391E+02  0.58730899016E+02  0.64779996632E+02  0.10018502723E+03  0.00000000000E+00 0.  1.
         14    1    4    4    0    0 -0.10458415614E+02  0.24275951702E+02 -0.22257088298E+02  0.34555437600E+02  0.00000000000E+00 0. -1.
         -5    1    5    5    0  501  0.53869721324E+02 -0.16460249118E+03 -0.87090297296E+02  0.19391425131E+03  0.47000000000E+01 0.  1.
         11    1    6    6    0    0  0.13380647894E+03 -0.15185615609E+03 -0.21609904112E+03  0.29607982288E+03  0.00000000000E+00 0. -1.
        -12    1    6    6    0    0  0.34360241342E+02 -0.13906948276E+03 -0.18888398235E+03  0.23706139713E+03  0.00000000000E+00 0.  1.
</event>
<event>
12    1  0.1081556E+000  0.2756107E+03  0.7818608E-02  0.1098111E+00
          2   -1    0    0  502    0  0.00000000000E+00  0.00000000000E+00  0.96965639605E+03  0.96965639605E+03  0.00000000000E+00 0. -1.
         -2   -1    0    0    0  501 -0.00000000000E+00 -0.00000000000E+00 -0.17487369652E+03  0.17487369652E+03  0.00000000000E+00 0.  1.
          6    2    1    2  502    0  0.87920768839E+00 -0.21593224342E+03 -0.27802149540E+02  0.27699670710E+03  0.17125042911E+03 0.  0.
         24    2    3    3    0    0 -0.32437563628E+02 -0.10653082209E+03 -0.64920354634E+02  0.15666994620E+03  0.89049469432E+02 0.  0.
         -6    2    1    2    0  501 -0.87920768839E+00  0.21593224342E+03  0.82258484907E+03  0.86753338548E+03  0.17129166428E+03 0.  0.
        -24    2    5    5    0    0 -0.14009437721E+02  0.14896615641E+03  0.74509289872E+03  0.76417018062E+03  0.80034099767E+02 0.  0.
          5    1    3    3  502    0  0.33316771316E+02 -0.10940142132E+03  0.37118205095E+02  0.12032676090E+03  0.47000000000E+01 0. -1.
        -13    1    4    4    0    0  0.28472460586E+02 -0.53367398967E+02 -0.17619511810E+02  0.63001646651E+02  0.00000000000E+00 0.  1.
         14    1    4    4    0    0 -0.60910024214E+02 -0.53163423126E+02 -0.47300842825E+02  0.93668299548E+02  0.00000000000E+00 0. -1.
         -5    1    5    5    0  501  0.13130230032E+02  0.66966087006E+02  0.77491950343E+02  0.10336320485E+03  0.47000000000E+01 0.  1.
         13    1    6    6    0    0  0.22172235638E+02  0.84348162353E+02  0.51845210666E+03  0.52573644293E+03  0.00000000000E+00 0. -1.
        -14    1    6    6    0    0 -0.36181673358E+02  0.64617994058E+02  0.22664079206E+03  0.23843373769E+03  0.00000000000E+00 0.  1.
</event>
<event>
12    1  0.1081556E+000  0.7143774E+03  0.7818608E-02  0.9692956E-01
         -2   -1    0    0    0  501 -0.00000000000E+00  0.00000000000E+00  0.31418205362E+03  0.31418205362E+03  0.00000000000E+00 0.  1.
          2   -1    0    0  502    0  0.00000000000E+00 -0.00000000000E+00 -0.18648192563E+04  0.18648192563E+04  0.00000000000E+00 0. -1.
          6    2    1    2  502    0  0.49547743559E+03 -0.48475716432E+03 -0.38386011897E+03  0.81078534154E+03  0.17186297325E+03 0.  0.
         24    2    3    3    0    0  0.39822675927E+03 -0.36372145645E+03 -0.36081158180E+03  0.65374820678E+03  0.79522768031E+02 0.  0.
         -6    2    1    2    0  501 -0.49547743559E+03  0.48475716432E+03 -0.11667770837E+04  0.13682159684E+04  0.17366282125E+03 0.  0.
        -24    2    5    5    0    0 -0.37492052501E+03  0.44573797706E+03 -0.97068665822E+03  0.11346993509E+04  0.77860671848E+02 0.  0.
          5    1    3    3  502    0  0.97250676329E+02 -0.12103570787E+03 -0.23048537170E+02  0.15703713476E+03  0.47000000000E+01 0. -1.
        -11    1    4    4    0    0  0.18509714019E+03 -0.12503209926E+03 -0.12243398637E+03  0.25472349356E+03  0.00000000000E+00 0.  1.
         12    1    4    4    0    0  0.21312961908E+03 -0.23868935718E+03 -0.23837759543E+03  0.39902471322E+03  0.00000000000E+00 0. -1.
         -5    1    5    5    0  501 -0.12055691059E+03  0.39019187259E+02 -0.19609042547E+03  0.23351661745E+03  0.47000000000E+01 0.  1.
         11    1    6    6    0    0 -0.21012341329E+03  0.26556586404E+03 -0.63429171339E+03  0.71902924463E+03  0.00000000000E+00 0. -1.
        -12    1    6    6    0    0 -0.16479711171E+03  0.18017211302E+03 -0.33639494483E+03  0.41567010627E+03  0.00000000000E+00 0.  1.
</event>
<event>
12    1  0.1081556E+000  0.6154975E+03  0.7818608E-02  0.9873765E-01
          1   -1    0    0  502    0  0.00000000000E+00  0.00000000000E+00  0.16779040259E+04  0.16779040259E+04  0.00000000000E+00 0. -1.
         -1   -1    0    0    0  501 -0.00000000000E+00 -0.00000000000E+00 -0.78615541169E+03  0.78615541169E+03  0.00000000000E+00 0.  1.
          6    2    1    2  502    0 -0.93919660849E+02 -0.58337588761E+03 -0.59434590720E+03  0.85546362181E+03  0.17153023611E+03 0.  0.
         24    2    3    3    0    0 -0.10471201153E+03 -0.58710696490E+03 -0.58900025896E+03  0.84200770393E+03  0.79977964709E+02 0.  0.
         -6    2    1    2    0  501  0.93919660849E+02  0.58337588761E+03  0.14860945215E+04  0.16085958158E+04  0.17307583034E+03 0.  0.
        -24    2    5    5    0    0  0.41050843602E+02  0.25780514806E+03  0.83848295496E+03  0.88181232031E+03  0.79941455889E+02 0.  0.
          5    1    3    3  502    0  0.10792350678E+02  0.37310772856E+01 -0.53456482354E+01  0.13455917878E+02  0.47000000000E+01 0. -1.
        -11    1    4    4    0    0 -0.90020975909E+02 -0.32945870410E+03 -0.30034164843E+03  0.45480976198E+03  0.00000000000E+00 0.  1.
         12    1    4    4    0    0 -0.14691035618E+02 -0.25764826080E+03 -0.28865861053E+03  0.38719794196E+03  0.00000000000E+00 0. -1.
         -5    1    5    5    0  501  0.52868817247E+02  0.32557073956E+03  0.64761156649E+03  0.72678349551E+03  0.47000000000E+01 0.  1.
         13    1    6    6    0    0  0.37025387813E+02  0.13882977083E+03  0.57508472287E+03  0.59276219776E+03  0.00000000000E+00 0. -1.
        -14    1    6    6    0    0  0.40254557889E+01  0.11897537723E+03  0.26339823209E+03  0.28905012255E+03  0.00000000000E+00 0.  1.
</event>
<event>
12    1  0.1081556E+000  0.1880585E+03  0.7818608E-02  0.1160224E+00
         -4   -1    0    0    0  501 -0.00000000000E+00  0.00000000000E+00  0.25471718035E+04  0.25471718035E+04  0.00000000000E+00 0.  1.
          4   -1    0    0  502    0  0.00000000000E+00 -0.00000000000E+00 -0.20402135726E+03  0.20402135726E+03  0.00000000000E+00 0. -1.
          6    2    1    2  502    0  0.73561534314E+02 -0.24815671775E+02  0.24991878816E+04  0.25061916894E+04  0.17038074798E+03 0.  0.
         24    2    3    3    0    0  0.93627378996E+02 -0.24039983276E+02  0.24455253876E+04  0.24487026201E+04  0.78778763545E+02 0.  0.
         -6    2    1    2    0  501 -0.73561534314E+02  0.24815671775E+02 -0.15603743537E+03  0.24500147142E+03  0.17219443331E+03 0.  0.
        -24    2    5    5    0    0 -0.40382540156E+02  0.50899589664E+02 -0.17101968387E+03  0.19997065757E+03  0.80740410214E+02 0.  0.
          5    1    3    3  502    0 -0.20065844681E+02 -0.77568849922E+00  0.53662494022E+02  0.57489069223E+02  0.47000000000E+01 0. -1.
        -13    1    4    4    0    0  0.56721836445E+02  0.23961522062E+02  0.98506049181E+03  0.98698312741E+03  0.00000000000E+00 0.  1.
         14    1    4    4    0    0  0.36905542551E+02 -0.48001505338E+02  0.14604648958E+04  0.14617194927E+04  0.00000000000E+00 0. -1.
         -5    1    5    5    0  501 -0.33178994158E+02 -0.26083917888E+02  0.14982248495E+02  0.45030813847E+02  0.47000000000E+01 0.  1.
         13    1    6    6    0    0 -0.94533111136E+00 -0.20957945245E+02 -0.44828777308E+02  0.49494933021E+02  0.00000000000E+00 0. -1.
        -14    1    6    6    0    0 -0.39437209045E+02  0.71857534909E+02 -0.12619090656E+03  0.15047572455E+03  0.00000000000E+00 0.  1.
</event>
<event>
12    1  0.1081556E+000  0.5864082E+03  0.7818608E-02  0.9934013E-01
         -2   -1    0    0    0  501 -0.00000000000E+00  0.00000000000E+00  0.44094578399E+03  0.44094578399E+03  0.00000000000E+00 0.  1.
          2   -1    0    0  502    0  0.00000000000E+00 -0.00000000000E+00 -0.96784591122E+03  0.96784591122E+03  0.00000000000E+00 0. -1.
          6    2    1    2  502    0  0.48583843067E+03  0.28037536280E+03  0.46941071439E+02  0.58842324423E+03  0.17143256805E+03 0.  0.
         24    2    3    3    0    0  0.22609550152E+03  0.94904137028E+02  0.71915083780E+02  0.26824867290E+03  0.81606373577E+02 0.  0.
         -6    2    1    2    0  501 -0.48583843067E+03 -0.28037536280E+03 -0.57384119866E+03  0.82036845098E+03  0.17047389622E+03 0.  0.
        -24    2    5    5    0    0 -0.48400505599E+03 -0.24241031701E+03 -0.53645918273E+03  0.76685012627E+03  0.85129345135E+02 0.  0.
          5    1    3    3  502    0  0.25974292915E+03  0.18547122578E+03 -0.24974012341E+02  0.32017457133E+03  0.47000000000E+01 0. -1.
        -11    1    4    4    0    0  0.62995135205E+02  0.65848171653E+02  0.40063648724E+02  0.99546294349E+02  0.00000000000E+00 0.  1.
         12    1    4    4    0    0  0.16310036631E+03  0.29055965375E+02  0.31851435056E+02  0.16870237855E+03  0.00000000000E+00 0. -1.
         -5    1    5    5    0  501 -0.18333746814E+01 -0.37965045791E+02 -0.37382015932E+02  0.53518324710E+02  0.47000000000E+01 0.  1.
         13    1    6    6    0    0 -0.36840288551E+03 -0.15501631180E+03 -0.35462694214E+03  0.53433230397E+03  0.00000000000E+00 0. -1.
        -14    1    6    6    0    0 -0.11560217048E+03 -0.87394005215E+02 -0.18183224059E+03  0.23251782229E+03  0.00000000000E+00 0.  1.
</event>
<event>
12    1  0.1081556E+000  0.2746088E+03  0.7818608E-02  0.1098670E+00
         -2   -1    0    0    0  501 -0.00000000000E+00  0.00000000000E+00  0.64875224538E+03  0.64875224538E+03  0.00000000000E+00 0.  1.
          2   -1    0    0  502    0  0.00000000000E+00 -0.00000000000E+00 -0.70544520920E+03  0.70544520920E+03  0.00000000000E+00 0. -1.
          6    2    1    2  502    0 -0.10847718245E+03  0.18446914783E+03  0.59045378753E+03  0.65131557890E+03  0.17256923975E+03 0.  0.
         24    2    3    3    0    0 -0.13431557470E+03  0.12949433495E+03  0.51589149107E+03  0.55502706133E+03  0.84270705774E+02 0.  0.
         -6    2    1    2    0  501  0.10847718245E+03 -0.18446914783E+03 -0.64714675134E+03  0.70288187567E+03  0.17160375220E+03 0.  0.
        -24    2    5    5    0    0  0.32807266625E+02 -0.11846487092E+03 -0.22329685981E+03  0.26727503312E+03  0.80400331727E+02 0.  0.
          5    1    3    3  502    0  0.25838392250E+02  0.54974812877E+02  0.74562296452E+02  0.96288517577E+02  0.47000000000E+01 0. -1.
        -11    1    4    4    0    0 -0.73817732952E+02  0.52211045671E+02  0.35696298148E+03  0.36823582272E+03  0.00000000000E+00 0.  1.
         12    1    4    4    0    0 -0.60497841747E+02  0.77283289279E+02  0.15892850959E+03  0.18679123860E+03  0.00000000000E+00 0. -1.
         -5    1    5    5    0  501  0.75669915823E+02 -0.66004276903E+02 -0.42384989153E+03  0.43560684256E+03  0.47000000000E+01 0.  1.
         13    1    6    6    0    0  0.83163085854E+01 -0.10386227326E+03 -0.21271073471E+03  0.23685942974E+03  0.00000000000E+00 0. -1.
        -14    1    6    6    0    0  0.24490958040E+02 -0.14602597659E+02 -0.10586125094E+02  0.30415603374E+02  0.00000000000E+00 0.  1.
</event>
<event>
12    1  0.1081556E+000  0.1016396E+04  0.7818608E-02  0.9290742E-01
          2   -1    0    0  502    0  0.00000000000E+00  0.00000000000E+00  0.10955123293E+04  0.10955123293E+04  0.00000000000E+00 0. -1.
         -2   -1    0    0    0  501 -0.00000000000E+00 -0.00000000000E+00 -0.96269693916E+03  0.96269693916E+03  0.00000000000E+00 0.  1.
          6    2    1    2  502    0  0.48383227945E+03 -0.87719450004E+03  0.21363340262E+03  0.10386376868E+04  0.17194518948E+03 0.  0.
         24    2    3    3    0    0  0.19808553009E+03 -0.34728844070E+03  0.14394018320E+03  0.43255941518E+03  0.80880980751E+02 0.  0.
         -6    2    1    2    0  501 -0.48383227945E+03  0.87719450004E+03 -0.80818012480E+02  0.10195715817E+04  0.17155405402E+03 0.  0.
        -24    2    5    5    0    0 -0.26662439181E+03  0.59713920544E+03 -0.86925920332E+02  0.66507245469E+03  0.84270145234E+02 0.  0.
          5    1    3    3  502    0  0.28574674937E+03 -0.52990605933E+03  0.69693219425E+02  0.60607827162E+03  0.47000000000E+01 0. -1.
        -11    1    4    4    0    0  0.11100400220E+03 -0.23374580187E+03  0.56481427336E+02  0.26485682931E+03  0.00000000000E+00 0.  1.
         12    1    4    4    0    0  0.87081527883E+02 -0.11354263883E+03  0.87458755864E+02  0.16770258587E+03  0.00000000000E+00 0. -1.
         -5    1    5    5    0  501 -0.21720788764E+03  0.28005529460E+03  0.61079078517E+01  0.35449912697E+03  0.47000000000E+01 0.  1.
         11    1    6    6    0    0 -0.87103766538E+02  0.15661027376E+03 -0.58542494416E+02  0.18852338752E+03  0.00000000000E+00 0. -1.
        -12    1    6    6    0    0 -0.17952062528E+03  0.44052893168E+03 -0.28383425916E+02  0.47654906717E+03  0.00000000000E+00 0.  1.
</event>
<event>
12    1  0.1081556E+000  0.4277416E+03  0.7818608E-02  0.1034576E+00
         -2   -1    0    0    0  501 -0.00000000000E+00  0.00000000000E+00  0.56467879005E+03  0.56467879005E+03  0.00000000000E+00 0.  1.
          2   -1    0    0  502    0  0.00000000000E+00 -0.00000000000E+00 -0.82354981909E+03  0.82354981909E+03  0.00000000000E+00 0. -1.
          6    2    1    2  502    0 -0.33362419088E+02 -0.39024850216E+03  0.41116556960E+03  0.59326138735E+03  0.17174109485E+03 0.  0.
         24    2    3    3    0    0  0.23455329511E+02 -0.17792928313E+03  0.12613624573E+03  0.23330095510E+03  0.79435514010E+02 0.  0.
         -6    2    1    2    0  501  0.33362419088E+02  0.39024850216E+03 -0.67003659864E+03  0.79496722179E+03  0.17209560063E+03 0.  0.
        -24    2    5    5    0    0  0.20545875672E+02  0.34274622608E+03 -0.65383260984E+03  0.74295386513E+03  0.81155748556E+02 0.  0.
          5    1    3    3  502    0 -0.56817748599E+02 -0.21231921903E+03  0.28502932387E+03  0.35996043225E+03  0.47000000000E+01 0. -1.
        -13    1    4    4    0    0 -0.27962520424E+02 -0.42514969474E+02  0.40466320857E+02  0.65014985207E+02  0.00000000000E+00 0.  1.
         14    1    4    4    0    0  0.51417849935E+02 -0.13541431366E+03  0.85669924874E+02  0.16828596989E+03  0.00000000000E+00 0. -1.
         -5    1    5    5    0  501  0.12816543415E+02  0.47502276077E+02 -0.16203988800E+02  0.52013356656E+02  0.47000000000E+01 0.  1.
         13    1    6    6    0    0 -0.11278877762E+02  0.95479572730E+02 -0.25601776521E+03  0.27347515060E+03  0.00000000000E+00 0. -1.
        -14    1    6    6    0    0  0.31824753435E+02  0.24726665335E+03 -0.39781484463E+03  0.46947871453E+03  0.00000000000E+00 0.  1.
</event>
<event>
12    1  0.1081556E+000  0.3035391E+03  0.7818608E-02  0.1083485E+00
          2   -1    0    0  502    0  0.00000000000E+00  0.00000000000E+00  0.11887296143E+04  0.11887296143E+04  0.00000000000E+00 0. -1.
         -2   -1    0    0    0  501 -0.00000000000E+00 -0.00000000000E+00 -0.22419864627E+03  0.22419864627E+03  0.00000000000E+00 0.  1.
          6    2    1    2  502    0  0.14647867874E+03  0.20643519817E+03 -0.90320478140E+02  0.31468884441E+03  0.16370640076E+03 0.  0.
         24    2    3    3    0    0  0.14973136800E+03  0.22400646343E+03 -0.92248307530E+02  0.29611101148E+03  0.81077756879E+02 0.  0.
         -6    2    1    2    0  501 -0.14647867874E+03 -0.20643519817E+03  0.10548514462E+04  0.10982394162E+04  0.17130892378E+03 0.  0.
        -24    2    5    5    0    0 -0.15724210017E+03 -0.13954015456E+03  0.92409584519E+03  0.95089656670E+03  0.77811417319E+02 0.  0.
          5    1    3    3  502    0 -0.32526892517E+01 -0.17571265252E+02  0.19278293897E+01  0.18577832922E+02  0.47000000000E+01 0. -1.
        -13    1    4    4    0    0  0.11113893019E+03  0.10637849450E+03 -0.27084130384E+02  0.15621074232E+03  0.00000000000E+00 0.  1.
         14    1    4    4    0    0  0.38592437802E+02  0.11762796893E+03 -0.65164177146E+02  0.13990026917E+03  0.00000000000E+00 0. -1.
         -5    1    5    5    0  501  0.10763421431E+02 -0.66895043620E+02  0.13075560098E+03  0.14734284947E+03  0.47000000000E+01 0.  1.
         13    1    6    6    0    0 -0.17374051120E+02 -0.10208984654E+02  0.23780605656E+03  0.23865833645E+03  0.00000000000E+00 0. -1.
        -14    1    6    6    0    0 -0.13986804905E+03 -0.12933116990E+03  0.68628978863E+03  0.71223823025E+03  0.00000000000E+00 0.  1.
</event>
<event>
12    1  0.1081556E+000  0.4808389E+03  0.7818608E-02  0.1018905E+00
         -1   -1    0    0    0  501 -0.00000000000E+00  0.00000000000E+00  0.40430565680E+03  0.40430565680E+03  0.00000000000E+00 0.  1.
          1   -1    0    0  502    0  0.00000000000E+00 -0.00000000000E+00 -0.10690597162E+04  0.10690597162E+04  0.00000000000E+00 0. -1.
          6    2    1    2  502    0  0.44769826817E+03 -0.66264587988E+02  0.16868938981E+03  0.51291566649E+03  0.17263150279E+03 0.  0.
         24    2    3    3    0    0  0.22761838510E+03 -0.31047662283E+02  0.17539856881E+02  0.24357636730E+03  0.79042479436E+02 0.  0.
         -6    2    1    2    0  501 -0.44769826817E+03  0.66264587988E+02 -0.83344344925E+03  0.96044970655E+03  0.15169350926E+03 0.  0.
        -24    2    5    5    0    0 -0.30596126546E+03  0.48693668625E+02 -0.67582527181E+03  0.74769704497E+03  0.79546864895E+02 0.  0.
          5    1    3    3  502    0  0.22007988307E+03 -0.35216925705E+02  0.15114953293E+03  0.26933929920E+03  0.47000000000E+01 0. -1.
        -11    1    4    4    0    0  0.53693453108E+02 -0.19283602608E+02  0.37262258402E+02  0.68141911754E+02  0.00000000000E+00 0.  1.
         12    1    4    4    0    0  0.17392493200E+03 -0.11764059675E+02 -0.19722401521E+02  0.17543445554E+03  0.00000000000E+00 0. -1.
         -5    1    5    5    0  501 -0.14173700272E+03  0.17570919364E+02 -0.15761817744E+03  0.21275266158E+03  0.47000000000E+01 0.  1.
         11    1    6    6    0    0 -0.17336883312E+03  0.36913580038E+02 -0.29363004313E+03  0.34298391641E+03  0.00000000000E+00 0. -1.
        -12    1    6    6    0    0 -0.13259243233E+03  0.11780088587E+02 -0.38219522869E+03  0.40471312856E+03  0.00000000000E+00 0.  1.
</event>
<event>
12    1  0.1081556E+000  0.2186502E+03  0.7818608E-02  0.1134893E+00
          1   -1    0    0  502    0  0.00000000000E+00  0.00000000000E+00  0.18170624286E+03  0.18170624286E+03  0.00000000000E+00 0. -1.
         -1   -1    0    0    0  501 -0.00000000000E+00 -0.00000000000E+00 -0.50581416281E+03  0.50581416281E+03  0.00000000000E+00 0.  1.
          6    2    1    2  502    0 -0.70583226805E+02  0.11479613453E+03 -0.40012760494E+03  0.45590918341E+03  0.17202016998E+03 0.  0.
         24    2    3    3    0    0 -0.15924460407E+02  0.48637248830E+02 -0.33833183917E+03  0.35005368961E+03  0.73823992070E+02 0.  0.
         -6    2    1    2    0  501  0.70583226805E+02 -0.11479613453E+03  0.76019684981E+02  0.23161122225E+03  0.17235028680E+03 0.  0.
        -24    2    5    5    0    0  0.33498772074E+02 -0.14087438137E+03  0.83627204021E+02  0.18540195817E+03  0.80078822307E+02 0.  0.
          5    1    3    3  502    0 -0.54658766398E+02  0.66158885697E+02 -0.61795765772E+02  0.10585549380E+03  0.47000000000E+01 0. -1.
        -11    1    4    4    0    0 -0.13434878571E+02  0.67217893613E+02 -0.29466246210E+03  0.30253050715E+03  0.00000000000E+00 0.  1.
         12    1    4    4    0    0 -0.24895818352E+01 -0.18580644783E+02 -0.43669377061E+02  0.47523182460E+02  0.00000000000E+00 0. -1.
         -5    1    5    5    0  501  0.37084454730E+02  0.26078246847E+02 -0.76075190407E+01  0.46209264085E+02  0.47000000000E+01 0.  1.
         13    1    6    6    0    0  0.14615645969E+02 -0.29053637872E+02  0.61916627946E+02  0.69938542999E+02  0.00000000000E+00 0. -1.
        -14    1    6    6    0    0  0.18883126105E+02 -0.11182074350E+03  0.21710576076E+02  0.11546341517E+03  0.00000000000E+00 0.  1.
</event>
<event>
12    1  0.1081556E+000  0.3340842E+03  0.7818608E-02  0.1069344E+00
          2   -1    0    0  502    0  0.00000000000E+00  0.00000000000E+00  0.14025920185E+04  0.14025920185E+04  0.00000000000E+00 0. -1.
         -2   -1    0    0    0  501 -0.00000000000E+00 -0.00000000000E+00 -0.17254260116E+03  0.17254260116E+03  0.00000000000E+00 0.  1.
          6    2    1    2  502    0  0.51689380626E+00 -0.28705101589E+03  0.37124736708E+02  0.33637568329E+03  0.17138203328E+03 0.  0.
         24    2    3    3    0    0  0.48849819849E+02 -0.77281995770E+02  0.16143206099E+01  0.11815058576E+03  0.74820739870E+02 0.  0.
         -6    2    1    2    0  501 -0.51689380626E+00  0.28705101589E+03  0.11929246806E+04  0.12387589364E+04  0.17045778325E+03 0.  0.
        -24    2    5    5    0    0 -0.60024880092E+02  0.12809874994E+03  0.52675302821E+03  0.55128982159E+03  0.80246113272E+02 0.  0.
          5    1    3    3  502    0 -0.48332926043E+02 -0.20976902012E+03  0.35510416098E+02  0.21822509753E+03  0.47000000000E+01 0. -1.
        -13    1    4    4    0    0  0.30330470834E+01 -0.54015037665E+02  0.27416255413E+02  0.60650430579E+02  0.00000000000E+00 0.  1.
         14    1    4    4    0    0  0.45816772765E+02 -0.23266958105E+02 -0.25801934803E+02  0.57500155180E+02  0.00000000000E+00 0. -1.
         -5    1    5    5    0  501  0.59507986286E+02  0.15895226595E+03  0.66617165241E+03  0.68746911476E+03  0.47000000000E+01 0.  1.
         11    1    6    6    0    0  0.14982828319E+02  0.44576352773E+02  0.10890675799E+03  0.11862638116E+03  0.00000000000E+00 0. -1.
        -12    1    6    6    0    0 -0.75007708412E+02  0.83522397168E+02  0.41784627022E+03  0.43266344044E+03  0.00000000000E+00 0.  1.
</event>
<event>
12    1  0.1081556E+000  0.3296136E+03  0.7818608E-02  0.1071308E+00
         -1   -1    0    0    0  501 -0.00000000000E+00  0.00000000000E+00  0.16263279002E+03  0.16263279002E+03  0.00000000000E+00 0.  1.
          1   -1    0    0  502    0  0.00000000000E+00 -0.00000000000E+00 -0.24259860600E+04  0.24259860600E+04  0.00000000000E+00 0. -1.
          6    2    1    2  502    0  0.27010817737E+03  0.74180417230E+02 -0.30595327842E+02  0.33177038200E+03  0.17514094469E+03 0.  0.
         24    2    3    3    0    0  0.18762149999E+03  0.97722036431E+02 -0.71096822975E+02  0.23679290631E+03  0.79149848907E+02 0.  0.
         -6    2    1    2    0  501 -0.27010817737E+03 -0.74180417230E+02 -0.22327579421E+04  0.22568484680E+04  0.17232474463E+03 0.  0.
        -24    2    5    5    0    0 -0.23459638296E+03 -0.94585911357E+02 -0.16077276465E+04  0.16304600644E+04  0.98131945432E+02 0.  0.
          5    1    3    3  502    0  0.82486677380E+02 -0.23541619201E+02  0.40501495132E+02  0.94977475686E+02  0.47000000000E+01 0. -1.
        -13    1    4    4    0    0  0.15424717755E+03  0.50943119292E+02 -0.75560587260E+02  0.17915578565E+03  0.00000000000E+00 0.  1.
         14    1    4    4    0    0  0.33374322440E+02  0.46778917139E+02  0.44637642848E+01  0.57637120665E+02  0.00000000000E+00 0. -1.
         -5    1    5    5    0  501 -0.35511794408E+02  0.20405494127E+02 -0.62503029560E+03  0.62638840358E+03  0.47000000000E+01 0.  1.
         13    1    6    6    0    0 -0.23986058277E+03 -0.77070608184E+02 -0.14562935558E+04  0.14779255389E+04  0.00000000000E+00 0. -1.
        -14    1    6    6    0    0  0.52641998118E+01 -0.17515303173E+02 -0.15143409074E+03  0.15253452555E+03  0.00000000000E+00 0.  1.
</event>
<event>
12    1  0.1081556E+000  0.1320753E+04  0.7818608E-02  0.9013268E-01
         -2   -1    0    0    0  501 -0.00000000000E+00  0.00000000000E+00  0.78940698130E+03  0.78940698130E+03  0.00000000000E+00 0.  1.
          2   -1    0    0  502    0  0.00000000000E+00 -0.00000000000E+00 -0.33058387660E+04  0.33058387660E+04  0.00000000000E+00 0. -1.
          6    2    1    2  502    0  0.10482081431E+04  0.78478015572E+03 -0.24375149736E+04  0.27725244202E+04  0.17547709146E+03 0.  0.
         24    2    3    3    0    0  0.64441463180E+03  0.39628167302E+03 -0.13895114861E+04  0.15841163797E+04  0.79832025412E+02 0.  0.
         -6    2    1    2    0  501 -0.10482081431E+04 -0.78478015572E+03 -0.78916811007E+02  0.13227213271E+04  0.16953949950E+03 0.  0.
        -24    2    5    5    0    0 -0.83782747442E+03 -0.61401973560E+03 -0.12037761730E+03  0.10485676561E+04  0.77641780515E+02 0.  0.
          5    1    3    3  502    0  0.40379351133E+03  0.38849848269E+03 -0.10480034875E+04  0.11884080405E+04  0.47000000000E+01 0. -1.
        -13    1    4    4    0    0  0.63278589853E+03  0.38661475844E+03 -0.13304539744E+04  0.15231535520E+04  0.00000000000E+00 0.  1.
         14    1    4    4    0    0  0.11628733272E+02  0.96669145830E+01 -0.59057511733E+02  0.60962827749E+02  0.00000000000E+00 0. -1.
         -5    1    5    5    0  501 -0.21038066871E+03 -0.17076042012E+03  0.41460806290E+02  0.27415367096E+03  0.47000000000E+01 0.  1.
         13    1    6    6    0    0 -0.12305620487E+03 -0.74260243131E+02  0.68983785305E+01  0.14389232395E+03  0.00000000000E+00 0. -1.
        -14    1    6    6    0    0 -0.71477126956E+03 -0.53975949247E+03 -0.12727599583E+03  0.90467533215E+03  0.00000000000E+00 0.  1.
</event>
<event>
12    1  0.1081556E+000  0.2396969E+03  0.7818608E-02  0.1119995E+00
          2   -1    0    0  502    0  0.00000000000E+00  0.00000000000E+00  0.14192664679E+04  0.14192664679E+04  0.00000000000E+00 0. -1.
         -2   -1    0    0    0  501 -0.00000000000E+00 -0.00000000000E+00 -0.97156662188E+02  0.97156662188E+02  0.00000000000E+00 0.  1.
          6    2    1    2  502    0 -0.95456388406E+02  0.13767577980E+03  0.82120042031E+02  0.25350469583E+03  0.17162280464E+03 0.  0.
         24    2    3    3    0    0 -0.34882717770E+02  0.24646562187E+02  0.83888413135E+02  0.12516923406E+03  0.82497359178E+02 0.  0.
         -6    2    1    2    0  501  0.95456388406E+02 -0.13767577980E+03  0.12399897637E+04  0.12629184343E+04  0.17123613851E+03 0.  0.
        -24    2    5    5    0    0 -0.63793176529E+01 -0.10408898791E+03  0.75376182475E+03  0.76498442034E+03  0.78543375422E+02 0.  0.
          5    1    3    3  502    0 -0.60573670636E+02  0.11302921762E+03 -0.17683711035E+01  0.12833546176E+03  0.47000000000E+01 0. -1.
        -11    1    4    4    0    0  0.26810159246E+01  0.29795822702E+02 -0.32960892979E+01  0.30097227473E+02  0.00000000000E+00 0.  1.
         12    1    4    4    0    0 -0.37563733695E+02 -0.51492605148E+01  0.87184502432E+02  0.95072006591E+02  0.00000000000E+00 0. -1.
         -5    1    5    5    0  501  0.10183570606E+03 -0.33586791896E+02  0.48622793894E+03  0.49793401393E+03  0.47000000000E+01 0.  1.
         13    1    6    6    0    0  0.21944978815E+02 -0.89809732871E+02  0.43906666873E+03  0.44869467325E+03  0.00000000000E+00 0. -1.
        -14    1    6    6    0    0 -0.28324296468E+02 -0.14279255039E+02  0.31469515602E+03  0.31628974710E+03  0.00000000000E+00 0.  1.
</event>
<event>
12    1  0.1081556E+000  0.2275740E+03  0.7818608E-02  0.1128359E+00
          1   -1    0    0  502    0  0.00000000000E+00  0.00000000000E+00  0.96283787595E+03  0.96283787595E+03  0.00000000000E+00 0. -1.
         -1   -1    0    0    0  501 -0.00000000000E+00 -0.00000000000E+00 -0.92076007369E+02  0.92076007369E+02  0.00000000000E+00 0.  1.
          6    2    1    2  502    0 -0.73805152106E+02 -0.12736575913E+03  0.97781659414E+02  0.24975406577E+03  0.17648400317E+03 0.  0.
         24    2    3    3    0    0 -0.30367274518E+02 -0.88354002782E+02 -0.13145212004E+02  0.12431233769E+03  0.80945410821E+02 0.  0.
         -6    2    1    2    0  501  0.73805152106E+02  0.12736575913E+03  0.77298020917E+03  0.80515981755E+03  0.17063027561E+03 0.  0.
        -24    2    5    5    0    0  0.50038241483E+02  0.15043821132E+03  0.72607179403E+03  0.74754303613E+03  0.80652710683E+02 0.  0.
          5    1    3    3  502    0 -0.43437877588E+02 -0.39011756344E+02  0.11092687142E+03  0.12544172808E+03  0.47000000000E+01 0. -1.
        -11    1    4    4    0    0 -0.53033198778E+02 -0.70392243350E+02  0.79856907262E+01  0.88494967952E+02  0.00000000000E+00 0.  1.
         12    1    4    4    0    0  0.22665924260E+02 -0.17961759432E+02 -0.21130902730E+02  0.35817369733E+02  0.00000000000E+00 0. -1.
         -5    1    5    5    0  501  0.23766910623E+02 -0.23072452193E+02  0.46908415137E+02  0.57616781422E+02  0.47000000000E+01 0.  1.
         13    1    6    6    0    0  0.63029096229E+02  0.14696234815E+03  0.60683315934E+03  0.62754846986E+03  0.00000000000E+00 0. -1.
        -14    1    6    6    0    0 -0.12990854746E+02  0.34758631730E+01  0.11923863469E+03  0.11999456627E+03  0.00000000000E+00 0.  1.
</event>
<event>
12    1  0.1081556E+000  0.1057157E+04  0.7818608E-02  0.9247986E-01
          2   -1    0    0  502    0  0.00000000000E+00  0.00000000000E+00  0.14392624481E+04  0.14392624481E+04  0.00000000000E+00 0. -1.
         -2   -1    0    0    0  501 -0.00000000000E+00 -0.00000000000E+00 -0.13088498543E+04  0.13088498543E+04  0.00000000000E+00 0.  1.
          6    2    1    2  502    0  0.79292006989E+03 -0.67750849545E+03 -0.81109919001E+03  0.13326516352E+04  0.17417946547E+03 0.  0.
         24    2    3    3    0    0  0.45673798855E+03 -0.31570723444E+03 -0.47618559692E+03  0.73590399248E+03  0.80754661628E+02 0.  0.
         -6    2    1    2    0  501 -0.79292006989E+03  0.67750849545E+03  0.94151178381E+03  0.14154606673E+04  0.17130225594E+03 0.  0.
        -24    2    5    5    0    0 -0.60086328805E+03  0.58972218262E+03  0.75057813507E+03  0.11307327403E+04  0.79875212388E+02 0.  0.
          5    1    3    3  502    0  0.33618208134E+03 -0.36180126101E+03 -0.33491359309E+03  0.59674764274E+03  0.47000000000E+01 0. -1.
        -13    1    4    4    0    0  0.34783340388E+03 -0.21158028895E+03 -0.31101090067E+03  0.51233004583E+03  0.00000000000E+00 0.  1.
         14    1    4    4    0    0  0.10890458467E+03 -0.10412694550E+03 -0.16517469625E+03  0.22357394665E+03  0.00000000000E+00 0. -1.
         -5    1    5    5    0  501 -0.19205678184E+03  0.87786312829E+02  0.19093364874E+03  0.28472792696E+03  0.47000000000E+01 0.  1.
         11    1    6    6    0    0 -0.81813167447E+02  0.12224036397E+03  0.12546621542E+03  0.19333357743E+03  0.00000000000E+00 0. -1.
        -12    1    6    6    0    0 -0.51905012060E+03  0.46748181865E+03  0.62511191966E+03  0.93739916288E+03  0.00000000000E+00 0.  1.
</event>
<event>
12    1  0.1081556E+000  0.1040856E+04  0.7818608E-02  0.9264836E-01
         -2   -1    0    0    0  501 -0.00000000000E+00  0.00000000000E+00  0.16055918483E+04  0.16055918483E+04  0.00000000000E+00 0.  1.
          2   -1    0    0  502    0  0.00000000000E+00 -0.00000000000E+00 -0.81885521796E+03  0.81885521796E+03  0.00000000000E+00 0. -1.
          6    2    1    2  502    0 -0.83524049173E+03 -0.59723055296E+03  0.90196947168E+03  0.13774797603E+04  0.17201903874E+03 0.  0.
         24    2    3    3    0    0 -0.44547651038E+03 -0.24681986465E+03  0.41662476779E+03  0.66313727711E+03  0.82495359138E+02 0.  0.
         -6    2    1    2    0  501  0.83524049173E+03  0.59723055296E+03 -0.11523284135E+03  0.10469673060E+04  0.16897017381E+03 0.  0.
        -24    2    5    5    0    0  0.65789700397E+03  0.50389285481E+03 -0.43079974711E+02  0.83391622123E+03  0.82606917674E+02 0.  0.
          5    1    3    3  502    0 -0.38976398135E+03 -0.35041068832E+03  0.48534470389E+03  0.71434248315E+03  0.47000000000E+01 0. -1.
        -13    1    4    4    0    0 -0.19646452566E+03 -0.94915871637E+02  0.22906576908E+03  0.31635179641E+03  0.00000000000E+00 0.  1.
         14    1    4    4    0    0 -0.24901198472E+03 -0.15190399301E+03  0.18755899871E+03  0.34678548070E+03  0.00000000000E+00 0. -1.
         -5    1    5    5    0  501  0.17734348776E+03  0.93337698158E+02 -0.72152866639E+02  0.21305108475E+03  0.47000000000E+01 0.  1.
         13    1    6    6    0    0  0.32544239192E+03  0.26303413537E+03 -0.61624886481E+02  0.42296256745E+03  0.00000000000E+00 0. -1.
        -14    1    6    6    0    0  0.33245461206E+03  0.24085871943E+03  0.18544911770E+02  0.41095365378E+03  0.00000000000E+00 0.  1.
</event>
<event>
12    1  0.1081556E+000  0.2568984E+03  0.7818608E-02  0.1109021E+00
          1   -1    0    0  502    0  0.00000000000E+00  0.00000000000E+00  0.53889272487E+03  0.53889272487E+03  0.00000000000E+00 0. -1.
         -1   -1    0    0    0  501 -0.00000000000E+00 -0.00000000000E+00 -0.15491069861E+03  0.15491069861E+03  0.00000000000E+00 0.  1.
          6    2    1    2  502    0 -0.16975011914E+03 -0.88404474211E+02  0.33073240850E+02  0.25874546450E+03  0.17095298222E+03 0.  0.
         24    2    3    3    0    0 -0.28141644492E+02 -0.55873252785E+02 -0.27217465269E+02  0.10136598775E+03  0.74969997497E+02 0.  0.
         -6    2    1    2    0  501  0.16975011914E+03  0.88404474211E+02  0.35090878541E+03  0.43505795897E+03  0.17177892180E+03 0.  0.
        -24    2    5    5    0    0  0.18215654144E+03  0.81981446469E+02  0.35882924118E+03  0.41832481165E+03  0.79594350079E+02 0.  0.
          5    1    3    3  502    0 -0.14160847465E+03 -0.32531221427E+02  0.60290706119E+02  0.15737947676E+03  0.47000000000E+01 0. -1.
        -11    1    4    4    0    0  0.20013496930E+01  0.71226420823E+01 -0.30566968531E+02  0.31449594528E+02  0.00000000000E+00 0.  1.
         12    1    4    4    0    0 -0.30142994185E+02 -0.62995894867E+02  0.33495032618E+01  0.69916393219E+02  0.00000000000E+00 0. -1.
         -5    1    5    5    0  501 -0.12406422303E+02  0.64230277423E+01 -0.79204557624E+01  0.16733147320E+02  0.47000000000E+01 0.  1.
         13    1    6    6    0    0  0.14362301976E+03  0.72381079272E+02  0.33602593600E+03  0.37253190750E+03  0.00000000000E+00 0. -1.
        -14    1    6    6    0    0  0.38533521684E+02  0.96003671969E+01  0.22803305178E+02  0.45792904152E+02  0.00000000000E+00 0.  1.
</event>
<event>
12    1  0.1081556E+000  0.4989949E+03  0.7818608E-02  0.1014042E+00
          2   -1    0    0  502    0  0.00000000000E+00  0.00000000000E+00  0.13608480725E+04  0.13608480725E+04  0.00000000000E+00 0. -1.
         -2   -1    0    0    0  501 -0.00000000000E+00 -0.00000000000E+00 -0.32984152502E+03  0.32984152502E+03  0.00000000000E+00 0.  1.
          6    2    1    2  502    0  0.46810805991E+03  0.19772798239E+02  0.10797232181E+04  0.11895482051E+04  0.17235598374E+03 0.  0.
         24    2    3    3    0    0  0.17140861007E+03 -0.12089897193E+02  0.54623962081E+03  0.57826052035E+03  0.80501110723E+02 0.  0.
         -6    2    1    2    0  501 -0.46810805991E+03 -0.19772798239E+02 -0.48716670617E+02  0.50114139248E+03  0.17103584991E+03 0.  0.
        -24    2    5    5    0    0 -0.45610552291E+03 -0.10350624441E+02 -0.76356243386E+02  0.46922158301E+03  0.78735218310E+02 0.  0.
          5    1    3    3  502    0  0.29669944983E+03  0.31862695433E+02  0.53348359729E+03  0.61128768471E+03  0.47000000000E+01 0. -1.
        -13    1    4    4    0    0  0.16316624490E+03 -0.30260188813E+02  0.51602680353E+03  0.54205402357E+03  0.00000000000E+00 0.  1.
         14    1    4    4    0    0  0.82423651703E+01  0.18170291619E+02  0.30212817280E+02  0.36206496781E+02  0.00000000000E+00 0. -1.
         -5    1    5    5    0  501 -0.12002536996E+02 -0.94221737980E+01  0.27639572769E+02  0.31919809465E+02  0.47000000000E+01 0.  1.
         11    1    6    6    0    0 -0.14226376900E+03  0.33056922904E+02 -0.28249331532E+02  0.14876076383E+03  0.00000000000E+00 0. -1.
        -12    1    6    6    0    0 -0.31384175391E+03 -0.43407547345E+02 -0.48106911854E+02  0.32046081918E+03  0.00000000000E+00 0.  1.
</event>
<event>
12    1  0.1081556E+000  0.2233150E+03  0.7818608E-02  0.1131435E+00
         -1   -1    0    0    0  501 -0.00000000000E+00  0.00000000000E+00  0.31326208702E+03  0.31326208702E+03  0.00000000000E+00 0.  1.
          1   -1    0    0  502    0  0.00000000000E+00 -0.00000000000E+00 -0.11203759818E+04  0.11203759818E+04  0.00000000000E+00 0. -1.
          6    2    1    2  502    0 -0.13990502842E+03 -0.29460862574E+02  0.26019049766E+03  0.34337546342E+03  0.17252899584E+03 0.  0.
         24    2    3    3    0    0 -0.14974673720E+03  0.17533176238E+02  0.22842985030E+03  0.28561624220E+03  0.81639106619E+02 0.  0.
         -6    2    1    2    0  501  0.13990502842E+03  0.29460862574E+02 -0.10673043924E+04  0.10902626054E+04  0.17056530478E+03 0.  0.
        -24    2    5    5    0    0  0.15694975109E+03 -0.88117679534E+01 -0.76672680748E+03  0.78674276849E+03  0.79895649618E+02 0.  0.
          5    1    3    3  502    0  0.98417087735E+01 -0.46994038812E+02  0.31760647355E+02  0.57759221219E+02  0.47000000000E+01 0. -1.
        -11    1    4    4    0    0 -0.10980792688E+03  0.10904586246E+02  0.93148428719E+02  0.14440678855E+03  0.00000000000E+00 0.  1.
         12    1    4    4    0    0 -0.39938810322E+02  0.66285899921E+01  0.13528142159E+03  0.14120945366E+03  0.00000000000E+00 0. -1.
         -5    1    5    5    0  501 -0.17044722668E+02  0.38272630527E+02 -0.30057758492E+03  0.30351983688E+03  0.47000000000E+01 0.  1.
         13    1    6    6    0    0  0.60966544168E+02 -0.21509505342E+02 -0.47475521657E+03  0.47913682178E+03  0.00000000000E+00 0. -1.
        -14    1    6    6    0    0  0.95983206925E+02  0.12697737389E+02 -0.29197159092E+03  0.30760594671E+03  0.00000000000E+00 0.  1.
</event>
<event>
12    1  0.1081556E+000  0.2126666E+03  0.7818608E-02  0.1139472E+00
         -2   -1    0    0    0  501 -0.00000000000E+00  0.00000000000E+00  0.12752317551E+03  0.12752317551E+03  0.00000000000E+00 0. -1.
          2   -1    0    0  502    0  0.00000000000E+00 -0.00000000000E+00 -0.42495854409E+03  0.42495854409E+03  0.00000000000E+00 0.  1.
          6    2    1    2  502    0  0.10137429754E+03  0.76202673582E+02 -0.35513032009E+02  0.21415443339E+03  0.16887080930E+03 0.  0.
         24    2    3    3    0    0  0.59041473342E+02 -0.15147805941E+02 -0.11425952984E+02  0.11052405420E+03  0.91485859874E+02 0.  0.
         -6    2    1    2    0  501 -0.10137429754E+03 -0.76202673582E+02 -0.26192233657E+03  0.33832728621E+03  0.17256432580E+03 0.  0.
        -24    2    5    5    0    0 -0.88179968280E+02 -0.67242158595E+02 -0.84857825818E+02  0.16048378164E+03  0.79101067422E+02 0.  0.
          5    1    3    3  502    0  0.42332824201E+02  0.91350479523E+02 -0.24087079025E+02  0.10363037918E+03  0.47000000000E+01 0. -1.
        -11    1    4    4    0    0 -0.13929898762E+02  0.21767912114E+02  0.68356289742E+01  0.26732188478E+02  0.00000000000E+00 0.  1.
         12    1    4    4    0    0  0.72971372104E+02 -0.36915718055E+02 -0.18261581958E+02  0.83791865726E+02  0.00000000000E+00 0. -1.
         -5    1    5    5    0  501 -0.13194329264E+02 -0.89605149878E+01 -0.17706451075E+03  0.17784350458E+03  0.47000000000E+01 0.  1.
         11    1    6    6    0    0 -0.40388690417E+02 -0.76748659940E+02 -0.46076179855E+02  0.98207013325E+02  0.00000000000E+00 0. -1.
        -12    1    6    6    0    0 -0.47791277863E+02  0.95065013457E+01 -0.38781645963E+02  0.62276768311E+02  0.00000000000E+00 0.  1.
</event>
<event>
12    1  0.1081556E+000  0.2105299E+03  0.7818608E-02  0.1141147E+00
         -2   -1    0    0    0  501 -0.00000000000E+00  0.00000000000E+00  0.15429803472E+03  0.15429803472E+03  0.00000000000E+00 0.  1.
          2   -1    0    0  502    0  0.00000000000E+00 -0.00000000000E+00 -0.29006995329E+03  0.29006995329E+03  0.00000000000E+00 0. -1.
          6    2    1    2  502    0  0.25976833293E+02 -0.11920354523E+03 -0.46230826713E+02  0.21622502490E+03  0.17242879977E+03 0.  0.
         24    2    3    3    0    0 -0.52678817414E+02 -0.81372691329E+02 -0.26071306256E+02  0.12652340195E+03  0.77018734943E+02 0.  0.
         -6    2    1    2    0  501 -0.25976833293E+02  0.11920354523E+03 -0.89541091856E+02  0.22814296311E+03  0.17072587215E+03 0.  0.
        -24    2    5    5    0    0 -0.67666947229E+02  0.87246338296E+02 -0.10657647673E+03  0.17272073821E+03  0.79266441336E+02 0.  0.
          5    1    3    3  502    0  0.78655650708E+02 -0.37830853902E+02 -0.20159520458E+02  0.89701622953E+02  0.47000000000E+01 0. -1.
        -11    1    4    4    0    0  0.13262797093E+02 -0.16818839836E+02  0.14347439992E+02  0.25780306330E+02  0.00000000000E+00 0.  1.
         12    1    4    4    0    0 -0.65941614507E+02 -0.64553851493E+02 -0.40418746247E+02  0.10074309562E+03  0.00000000000E+00 0. -1.
         -5    1    5    5    0  501  0.41690113936E+02  0.31957206935E+02  0.17035384874E+02  0.55422224900E+02  0.47000000000E+01 0.  1.
         13    1    6    6    0    0 -0.30440217751E+02  0.29825102226E+02 -0.93907878857E+02  0.10312532808E+03  0.00000000000E+00 0. -1.
        -14    1    6    6    0    0 -0.37226729478E+02  0.57421236070E+02 -0.12668597873E+02  0.69595410133E+02  0.00000000000E+00 0.  1.
</event>
<event>
12    1  0.1335916E+000  0.4463774E+03  0.7818608E-02  0.1028808E+00
         -1   -1    0    0    0  501 -0.00000000000E+00  0.00000000000E+00  0.28245760003E+03  0.28245760003E+03  0.00000000000E+00 0.  1.
          1   -1    0    0  502    0  0.00000000000E+00 -0.00000000000E+00 -0.74467529966E+03  0.74467529966E+03  0.00000000000E+00 0. -1.
          6    2    1    2  502    0 -0.14963178051E+03 -0.38389447555E+03 -0.11323391166E+03  0.46057536535E+03  0.17188109355E+03 0.  0.
         24    2    3    3    0    0 -0.14645534274E+03 -0.37768738970E+03 -0.13661323755E+03  0.43572983153E+03  0.84263738684E+02 0.  0.
         -6    2    1    2    0  501  0.14963178051E+03  0.38389447555E+03 -0.34898378797E+03  0.56655753434E+03  0.17156082701E+03 0.  0.
        -24    2    5    5    0    0  0.15797031806E+03  0.28958643623E+03 -0.32252846261E+03  0.46814253686E+03  0.79485219974E+02 0.  0.
          5    1    3    3  502    0 -0.31764377667E+01 -0.62070858504E+01  0.23379325889E+02  0.24845533817E+02  0.47000000000E+01 0. -1.
        -11    1    4    4    0    0 -0.66392361427E+02 -0.24327545858E+03 -0.50615901190E+02  0.25720199038E+03  0.00000000000E+00 0.  1.
         12    1    4    4    0    0 -0.80062981317E+02 -0.13441193112E+03 -0.85997336360E+02  0.17852784115E+03  0.00000000000E+00 0. -1.
         -5    1    5    5    0  501 -0.83385375503E+01  0.94308039324E+02 -0.26455325359E+02  0.98414997483E+02  0.47000000000E+01 0.  1.
         13    1    6    6    0    0  0.56369348368E+02  0.17995795352E+03 -0.15974171105E+03  0.24714324332E+03  0.00000000000E+00 0. -1.
        -14    1    6    6    0    0  0.10160096969E+03  0.10962848271E+03 -0.16278675156E+03  0.22099929354E+03  0.00000000000E+00 0.  1.
</event>
<event>
12    1  0.1081556E+000  0.2840338E+03  0.7818608E-02  0.1093506E+00
          2   -1    0    0  502    0  0.00000000000E+00  0.00000000000E+00  0.35375864068E+03  0.35375864068E+03  0.00000000000E+00 0. -1.
         -2   -1    0    0    0  501 -0.00000000000E+00 -0.00000000000E+00 -0.94269733649E+03  0.94269733649E+03  0.00000000000E+00 0.  1.
          6    2    1    2  502    0 -0.21743578332E+03 -0.63494424631E+02 -0.85895880286E+03  0.90481422009E+03  0.17195547690E+03 0.  0.
         24    2    3    3    0    0 -0.20943047001E+03 -0.15731000379E+02 -0.58725763104E+03  0.62879058612E+03  0.79984310001E+02 0.  0.
         -6    2    1    2    0  501  0.21743578332E+03  0.63494424631E+02  0.27002010705E+03  0.39164175708E+03  0.17077044782E+03 0.  0.
        -24    2    5    5    0    0  0.23448640673E+03  0.42595791155E+02  0.21680121964E+03  0.33179347710E+03  0.79283455032E+02 0.  0.
          5    1    3    3  502    0 -0.80053133149E+01 -0.47763424252E+02 -0.27170117183E+03  0.27602363397E+03  0.47000000000E+01 0. -1.
        -13    1    4    4    0    0 -0.13121569098E+03  0.22239976646E+01 -0.45990640625E+03  0.47826395038E+03  0.00000000000E+00 0.  1.
         14    1    4    4    0    0 -0.78214779029E+02 -0.17954998044E+02 -0.12735122479E+03  0.15052663574E+03  0.00000000000E+00 0. -1.
         -5    1    5    5    0  501 -0.17050623405E+02  0.20898633476E+02  0.53218887412E+02  0.59848279984E+02  0.47000000000E+01 0.  1.
         11    1    6    6    0    0  0.51188501732E+02  0.34892667701E+02  0.26254194267E+02  0.67283309115E+02  0.00000000000E+00 0. -1.
        -12    1    6    6    0    0  0.18329790500E+03  0.77031234539E+01  0.19054702537E+03  0.26451016798E+03  0.00000000000E+00 0.  1.
</event>
<event>
12    1  0.1081556E+000  0.6715395E+03  0.7818608E-02  0.9767181E-01
         -2   -1    0    0    0  501 -0.00000000000E+00  0.00000000000E+00  0.43356799558E+03  0.43356799558E+03  0.00000000000E+00 0.  1.
          2   -1    0    0  502    0  0.00000000000E+00 -0.00000000000E+00 -0.11300769532E+04  0.11300769532E+04  0.00000000000E+00 0. -1.
          6    2    1    2  502    0 -0.35654995126E+03  0.54262581632E+03 -0.56875569441E+03  0.87990897573E+03  0.17083946079E+03 0.  0.
         24    2    3    3    0    0 -0.31920460362E+03  0.40690587663E+03 -0.39477398004E+03  0.65606460131E+03  0.84322561490E+02 0.  0.
         -6    2    1    2    0  501  0.35654995126E+03 -0.54262581632E+03 -0.12775326318E+03  0.68373597303E+03  0.17205621260E+03 0.  0.
        -24    2    5    5    0    0  0.23563542991E+03 -0.23857086053E+03 -0.68860928198E+02  0.35123013139E+03  0.78617214644E+02 0.  0.
          5    1    3    3  502    0 -0.37345347640E+02  0.13571993969E+03 -0.17398171438E+03  0.22384437441E+03  0.47000000000E+01 0. -1.
        -13    1    4    4    0    0 -0.25994047017E+03  0.30740886600E+03 -0.34432247803E+03  0.52974260524E+03  0.00000000000E+00 0.  1.
         14    1    4    4    0    0 -0.59264133441E+02  0.99497010633E+02 -0.50451502007E+02  0.12632199607E+03  0.00000000000E+00 0. -1.
         -5    1    5    5    0  501  0.12091452134E+03 -0.30405495578E+03 -0.58892334982E+02  0.33250584165E+03  0.47000000000E+01 0.  1.
         13    1    6    6    0    0  0.19585520779E+03 -0.22151693053E+03 -0.38094947059E+02  0.29812788853E+03  0.00000000000E+00 0. -1.
        -14    1    6    6    0    0  0.39780222125E+02 -0.17053929997E+02 -0.30765981139E+02  0.53102242854E+02  0.00000000000E+00 0.  1.
</event>
<event>
12    1  0.1081556E+000  0.5325324E+03  0.7818608E-02  0.1005620E+00
          2   -1    0    0  502    0  0.00000000000E+00  0.00000000000E+00  0.15974068750E+04  0.15974068750E+04  0.00000000000E+00 0. -1.
         -2   -1    0    0    0  501 -0.00000000000E+00 -0.00000000000E+00 -0.24536710308E+03  0.24536710308E+03  0.00000000000E+00 0.  1.
          6    2    1    2  502    0 -0.39765968052E+03  0.30959107236E+03  0.19155125477E+03  0.56593014918E+03  0.17206160799E+03 0.  0.
         24    2    3    3    0    0 -0.29450529023E+03  0.29772264619E+03  0.17428483106E+03  0.46056456104E+03  0.79827141484E+02 0.  0.
         -6    2    1    2    0  501  0.39765968052E+03 -0.30959107236E+03  0.11604885171E+04  0.12768438289E+04  0.17209506484E+03 0.  0.
        -24    2    5    5    0    0  0.38988570721E+03 -0.30302946498E+03  0.11623995943E+04  0.12654758225E+04  0.80115661979E+02 0.  0.
          5    1    3    3  502    0 -0.10315439029E+03  0.11868426170E+02  0.17266423706E+02  0.10536558814E+03  0.47000000000E+01 0. -1.
        -13    1    4    4    0    0 -0.20241858238E+03  0.21963809178E+03  0.85454415953E+02  0.31067125883E+03  0.00000000000E+00 0.  1.
         14    1    4    4    0    0 -0.92086707851E+02  0.78084554410E+02  0.88830415107E+02  0.14989330221E+03  0.00000000000E+00 0. -1.
         -5    1    5    5    0  501  0.77739733145E+01 -0.65616073800E+01 -0.19110771432E+01  0.11368006349E+02  0.47000000000E+01 0.  1.
         11    1    6    6    0    0  0.22271193665E+03 -0.17732252574E+03  0.56799849108E+03  0.63534728356E+03  0.00000000000E+00 0. -1.
        -12    1    6    6    0    0  0.16717377055E+03 -0.12570693924E+03  0.59440110319E+03  0.63012853896E+03  0.00000000000E+00 0.  1.
</event>
<event>
12    1  0.1081556E+000  0.1372116E+04  0.7818608E-02  0.8974253E-01
         -2   -1    0    0    0  501 -0.00000000000E+00  0.00000000000E+00  0.13676918119E+04  0.13676918119E+04  0.00000000000E+00 0.  1.
          2   -1    0    0  502    0  0.00000000000E+00 -0.00000000000E+00 -0.14811480229E+04  0.14811480229E+04  0.00000000000E+00 0. -1.
          6    2    1    2  502    0  0.99689857794E+03 -0.92704832672E+03  0.32179795040E+03  0.14092265810E+04  0.17070518745E+03 0.  0.
         24    2    3    3    0    0  0.87472137594E+03 -0.78819009431E+03  0.22860416823E+03  0.12020646916E+04  0.79489287129E+02 0.  0.
         -6    2    1    2    0  501 -0.99689857794E+03  0.92704832672E+03 -0.43525416143E+03  0.14396132538E+04  0.17266951274E+03 0.  0.
        -24    2    5    5    0    0 -0.83297570019E+03  0.69880453071E+03 -0.32401965339E+03  0.11373531902E+04  0.80045325784E+02 0.  0.
          5    1    3    3  502    0  0.12217720200E+03 -0.13885823241E+03  0.93193782163E+02  0.20716188942E+03  0.47000000000E+01 0. -1.
        -11    1    4    4    0    0  0.19619556355E+03 -0.13519625597E+03  0.38202790375E+02  0.24130930354E+03  0.00000000000E+00 0.  1.
         12    1    4    4    0    0  0.67852581239E+03 -0.65299383834E+03  0.19040137786E+03  0.96075538806E+03  0.00000000000E+00 0. -1.
         -5    1    5    5    0  501 -0.16392287775E+03  0.22824379600E+03 -0.11123450804E+03  0.30226006359E+03  0.47000000000E+01 0.  1.
         11    1    6    6    0    0 -0.12627548302E+03  0.10379996225E+03 -0.79194592024E+02  0.18163621109E+03  0.00000000000E+00 0. -1.
        -12    1    6    6    0    0 -0.70670021717E+03  0.59500456847E+03 -0.24482506137E+03  0.95571697909E+03  0.00000000000E+00 0.  1.
</event>
<event>
12    1  0.1081556E+000  0.7320570E+03  0.7818608E-02  0.9663928E-01
         -2   -1    0    0    0  501 -0.00000000000E+00  0.00000000000E+00  0.43506421268E+03  0.43506421268E+03  0.00000000000E+00 0.  1.
          2   -1    0    0  502    0  0.00000000000E+00 -0.00000000000E+00 -0.14597003487E+04  0.14597003487E+04  0.00000000000E+00 0. -1.
          6    2    1    2  502    0  0.91003182862E+02 -0.70556738866E+03 -0.13796100036E+03  0.74492897048E+03  0.17256597060E+03 0.  0.
         24    2    3    3    0    0  0.28845158683E+02 -0.14835981332E+03  0.97897997372E+00  0.16728694455E+03  0.71702761641E+02 0.  0.
         -6    2    1    2    0  501 -0.91003182862E+02  0.70556738866E+03 -0.88667513563E+03  0.11498355909E+04  0.17269096870E+03 0.  0.
        -24    2    5    5    0    0 -0.55453854134E+02  0.60807712414E+03 -0.82355005676E+03  0.10282832481E+04  0.79365127864E+02 0.  0.
          5    1    3    3  502    0  0.62158024178E+02 -0.55720757534E+03 -0.13893998033E+03  0.57764202593E+03  0.47000000000E+01 0. -1.
        -11    1    4    4    0    0  0.47814148614E+02 -0.12975970605E+03  0.11381433318E+02  0.13875630128E+03  0.00000000000E+00 0.  1.
         12    1    4    4    0    0 -0.18968989931E+02 -0.18600107267E+02 -0.10402453344E+02  0.28530643261E+02  0.00000000000E+00 0. -1.
         -5    1    5    5    0  501 -0.35549328728E+02  0.97490264514E+02 -0.63125078870E+02  0.12155234276E+03  0.47000000000E+01 0.  1.
         13    1    6    6    0    0 -0.50865790656E+02  0.21816066305E+03 -0.26349562123E+03  0.34584873279E+03  0.00000000000E+00 0. -1.
        -14    1    6    6    0    0 -0.45880634777E+01  0.38991646109E+03 -0.56005443553E+03  0.68243451533E+03  0.00000000000E+00 0.  1.
</event>
<event>
12    1  0.1081556E+000  0.8418070E+03  0.7818608E-02  0.9501400E-01
          1   -1    0    0  502    0  0.00000000000E+00  0.00000000000E+00  0.12083414719E+04  0.12083414719E+04  0.00000000000E+00 0. -1.
         -1   -1    0    0    0  501 -0.00000000000E+00 -0.00000000000E+00 -0.85922071686E+03  0.85922071686E+03  0.00000000000E+00 0.  1.
          6    2    1    2  502    0 -0.30948950780E+03 -0.76352005290E+03 -0.40794567240E+03  0.93518836862E+03  0.17149631641E+03 0.  0.
         24    2    3    3    0    0 -0.27463516610E+03 -0.71882683908E+03 -0.33707622730E+03  0.84432101064E+03  0.84386533028E+02 0.  0.
         -6    2    1    2    0  501  0.30948950780E+03  0.76352005290E+03  0.75706642740E+03  0.11323738201E+04  0.17428214577E+03 0.  0.
        -24    2    5    5    0    0  0.49837894358E+02  0.19794227780E+03  0.17682629009E+03  0.28149316631E+03  0.79409727094E+02 0.  0.
          5    1    3    3  502    0 -0.34854341703E+02 -0.44693213828E+02 -0.70869445101E+02  0.90867357982E+02  0.47000000000E+01 0. -1.
        -13    1    4    4    0    0 -0.19373805379E+03 -0.42244390873E+03 -0.23346254696E+03  0.52009427063E+03  0.00000000000E+00 0.  1.
         14    1    4    4    0    0 -0.80897112306E+02 -0.29638293035E+03 -0.10361368034E+03  0.32422674001E+03  0.00000000000E+00 0. -1.
         -5    1    5    5    0  501  0.25965161345E+03  0.56557777510E+03  0.58024013731E+03  0.85088065379E+03  0.47000000000E+01 0.  1.
         11    1    6    6    0    0  0.53785626406E+02  0.60678432516E+02  0.75979479380E+02  0.11111996701E+03  0.00000000000E+00 0. -1.
        -12    1    6    6    0    0 -0.39477320478E+01  0.13726384529E+03  0.10084681071E+03  0.17037319930E+03  0.00000000000E+00 0.  1.
</event>
<event>
12    1  0.1081556E+000  0.5666329E+03  0.7818608E-02  0.9977157E-01
         -2   -1    0    0    0  501 -0.00000000000E+00  0.00000000000E+00  0.14214177458E+04  0.14214177458E+04  0.00000000000E+00 0.  1.
          2   -1    0    0  502    0  0.00000000000E+00 -0.00000000000E+00 -0.45988533595E+03  0.45988533595E+03  0.00000000000E+00 0. -1.
          6    2    1    2  502    0 -0.32188455176E+03 -0.43331910759E+03  0.11516851667E+04  0.12834576373E+04  0.17178378794E+03 0.  0.
         24    2    3    3    0    0 -0.30830248998E+03 -0.37127492367E+03  0.90577354360E+03  0.10294328953E+04  0.80067967039E+02 0.  0.
         -6    2    1    2    0  501  0.32188455176E+03  0.43331910759E+03 -0.19015275683E+03  0.59784544450E+03  0.17287565161E+03 0.  0.
        -24    2    5    5    0    0  0.30631611879E+03  0.37413997716E+03 -0.11977202858E+03  0.50446406256E+03  0.79551017911E+02 0.  0.
          5    1    3    3  502    0 -0.13582061776E+02 -0.62044183919E+02  0.24591162310E+03  0.25402474197E+03  0.47000000000E+01 0. -1.
        -11    1    4    4    0    0 -0.77901525472E+02 -0.93481524106E+02  0.16092043092E+03  0.20174941910E+03  0.00000000000E+00 0.  1.
         12    1    4    4    0    0 -0.23040096451E+03 -0.27779339956E+03  0.74485311268E+03  0.82768347619E+03  0.00000000000E+00 0. -1.
         -5    1    5    5    0  501  0.15568432966E+02  0.59179130431E+02 -0.70380728246E+02  0.93381381935E+02  0.47000000000E+01 0.  1.
         13    1    6    6    0    0  0.22853612502E+03  0.30509357951E+03 -0.12258016415E+03  0.40042071543E+03  0.00000000000E+00 0. -1.
        -14    1    6    6    0    0  0.77779993766E+02  0.69046397642E+02  0.28081355676E+01  0.10404334713E+03  0.00000000000E+00 0.  1.
</event>
<event>
12    1  0.1081556E+000  0.6677040E+03  0.7818608E-02  0.9774115E-01
         -2   -1    0    0    0  501 -0.00000000000E+00  0.00000000000E+00  0.34486708901E+03  0.34486708901E+03  0.00000000000E+00 0.  1.
          2   -1    0    0  502    0  0.00000000000E+00 -0.00000000000E+00 -0.21387761844E+04  0.21387761844E+04  0.00000000000E+00 0. -1.
          6    2    1    2  502    0 -0.51296093860E+03 -0.39172756642E+03 -0.11572895421E+03  0.67742054275E+03  0.17007642420E+03 0.  0.
         24    2    3    3    0    0 -0.37597281369E+03 -0.24269539619E+03 -0.24093099315E+02  0.45516943694E+03  0.79637471863E+02 0.  0.
         -6    2    1    2    0  501  0.51296093860E+03  0.39172756642E+03 -0.16781801412E+04  0.18062227307E+04  0.17196672841E+03 0.  0.
        -24    2    5    5    0    0  0.32085283202E+03  0.32049693972E+03 -0.10846856867E+04  0.11783397127E+04  0.79225067462E+02 0.  0.
          5    1    3    3  502    0 -0.13698812491E+03 -0.14903217022E+03 -0.91635854895E+02  0.22225110580E+03  0.47000000000E+01 0. -1.
        -11    1    4    4    0    0 -0.25972959465E+03 -0.19028143714E+03 -0.47706375570E+02  0.32548791979E+03  0.00000000000E+00 0.  1.
         12    1    4    4    0    0 -0.11624321904E+03 -0.52413959054E+02  0.23613276255E+02  0.12968151716E+03  0.00000000000E+00 0. -1.
         -5    1    5    5    0  501  0.19210810658E+03  0.71230626696E+02 -0.59349445452E+03  0.62788301803E+03  0.47000000000E+01 0.  1.
         13    1    6    6    0    0  0.16930950786E+03  0.16104558516E+03 -0.65852140072E+03  0.69875018795E+03  0.00000000000E+00 0. -1.
        -14    1    6    6    0    0  0.15154332416E+03  0.15945135456E+03 -0.42616428598E+03  0.47958952471E+03  0.00000000000E+00 0.  1.
</event>
<event>
12    1  0.1081556E+000  0.3035635E+03  0.7818608E-02  0.1083473E+00
         -2   -1    0    0    0  501 -0.00000000000E+00  0.00000000000E+00  0.44536620022E+02  0.44536620022E+02  0.00000000000E+00 0.  1.
          2   -1    0    0  502    0  0.00000000000E+00 -0.00000000000E+00 -0.33054176779E+04  0.33054176779E+04  0.00000000000E+00 0. -1.
          6    2    1    2  502    0 -0.46786741597E+02 -0.24656462363E+03 -0.26559206169E+04  0.26732498168E+04  0.17136845323E+03 0.  0.
         24    2    3    3    0    0  0.19784671261E+02 -0.92070134838E+02 -0.77313472379E+03  0.78295748240E+03  0.80104776201E+02 0.  0.
         -6    2    1    2    0  501  0.46786741597E+02  0.24656462363E+03 -0.60496044094E+03  0.67670448111E+03  0.17020195899E+03 0.  0.
        -24    2    5    5    0    0  0.75043571328E+02  0.19046927453E+03 -0.55283522836E+03  0.59494713035E+03  0.80157445483E+02 0.  0.
          5    1    3    3  502    0 -0.66571412858E+02 -0.15449448879E+03 -0.18827858931E+04  0.18902923344E+04  0.47000000000E+01 0. -1.
        -13    1    4    4    0    0  0.22772995315E+02 -0.99086021861E+02 -0.76530164563E+03  0.77202542564E+03  0.00000000000E+00 0.  1.
         14    1    4    4    0    0 -0.29883240541E+01  0.70158870235E+01 -0.78330781641E+01  0.10932056755E+02  0.00000000000E+00 0. -1.
         -5    1    5    5    0  501 -0.28256829731E+02  0.56095349092E+02 -0.52125212580E+02  0.81757350757E+02  0.47000000000E+01 0.  1.
         13    1    6    6    0    0 -0.16056197856E+02  0.20109519670E+02 -0.49044394617E+02  0.55385439551E+02  0.00000000000E+00 0. -1.
        -14    1    6    6    0    0  0.91099769184E+02  0.17035975486E+03 -0.50379083374E+03  0.53956169080E+03  0.00000000000E+00 0.  1.
</event>
<event>
12    1  0.1081556E+000  0.5423422E+03  0.7818608E-02  0.1003282E+00
         -1   -1    0    0    0  501 -0.00000000000E+00  0.00000000000E+00  0.74789700200E+03  0.74789700200E+03  0.00000000000E+00 0.  1.
          1   -1    0    0  502    0  0.00000000000E+00 -0.00000000000E+00 -0.48496401691E+03  0.48496401691E+03  0.00000000000E+00 0. -1.
          6    2    1    2  502    0  0.15302402571E+03  0.49100677729E+03  0.39949439459E+03  0.67362198976E+03  0.17224054687E+03 0.  0.
         24    2    3    3    0    0  0.25021725866E+02  0.30038329479E+03  0.25165665741E+03  0.40049200718E+03  0.78781749440E+02 0.  0.
         -6    2    1    2    0  501 -0.15302402571E+03 -0.49100677729E+03 -0.13656140950E+03  0.55923902916E+03  0.17203274507E+03 0.  0.
        -24    2    5    5    0    0 -0.78130138714E+02 -0.28718242685E+03 -0.12734065450E+02  0.30922150722E+03  0.82932015751E+02 0.  0.
          5    1    3    3  502    0  0.12800229985E+03  0.19062348250E+03  0.14783773718E+03  0.27312998258E+03  0.47000000000E+01 0. -1.
        -11    1    4    4    0    0  0.20168956223E+02  0.18568280115E+03  0.20286176137E+03  0.27574949441E+03  0.00000000000E+00 0.  1.
         12    1    4    4    0    0  0.48527696428E+01  0.11470049364E+03  0.48794896035E+02  0.12474251278E+03  0.00000000000E+00 0. -1.
         -5    1    5    5    0  501 -0.74893886999E+02 -0.20382435045E+03 -0.12382734405E+03  0.25001752194E+03  0.47000000000E+01 0.  1.
         11    1    6    6    0    0 -0.27682647580E+02 -0.21215757180E+02 -0.16279099357E+02  0.38489562294E+02  0.00000000000E+00 0. -1.
        -12    1    6    6    0    0 -0.50447491134E+02 -0.26596666967E+03  0.35450339063E+01  0.27073194492E+03  0.00000000000E+00 0.  1.
</event>
<event>
12    1  0.1081556E+000  0.4351181E+03  0.7818608E-02  0.1032255E+00
         -1   -1    0    0    0  501 -0.00000000000E+00  0.00000000000E+00  0.11659369616E+03  0.11659369616E+03  0.00000000000E+00 0.  1.
          1   -1    0    0  502    0  0.00000000000E+00 -0.00000000000E+00 -0.16247596884E+04  0.16247596884E+04  0.00000000000E+00 0. -1.
          6    2    1    2  502    0  0.78265517095E+02  0.39120043329E+03 -0.73258750551E+03  0.85188056761E+03  0.17277956494E+03 0.  0.
         24    2    3    3    0    0 -0.12053933143E+02  0.12831435201E+03 -0.19716079786E+03  0.24858085429E+03  0.79436708582E+02 0.  0.
         -6    2    1    2    0  501 -0.78265517095E+02 -0.39120043329E+03 -0.77557848671E+03  0.88947281693E+03  0.17457557916E+03 0.  0.
        -24    2    5    5    0    0 -0.51366093821E+02 -0.19216263469E+03 -0.53366071584E+03  0.57501149641E+03  0.79243344208E+02 0.  0.
          5    1    3    3  502    0  0.90319450238E+02  0.26288608128E+03 -0.53542670765E+03  0.60329971332E+03  0.47000000000E+01 0. -1.
        -13    1    4    4    0    0 -0.13352918635E+01  0.87088931893E+02 -0.62122090435E+02  0.10698326590E+03  0.00000000000E+00 0.  1.
         14    1    4    4    0    0 -0.10718641280E+02  0.41225420118E+02 -0.13503870742E+03  0.14159758839E+03  0.00000000000E+00 0. -1.
         -5    1    5    5    0  501 -0.26899423273E+02 -0.19903779860E+03 -0.24191777087E+03  0.31446132052E+03  0.47000000000E+01 0.  1.
         13    1    6    6    0    0  0.77150171186E+01 -0.40335096310E+02 -0.50308783334E+02  0.64941628899E+02  0.00000000000E+00 0. -1.
        -14    1    6    6    0    0 -0.59081110940E+02 -0.15182753838E+03 -0.48335193251E+03  0.51006986751E+03  0.00000000000E+00 0.  1.
</event>
<event>
12    1  0.1081556E+000  0.6618932E+03  0.7818608E-02  0.9784715E-01
          2   -1    0    0  502    0  0.00000000000E+00  0.00000000000E+00  0.31090187217E+04  0.31090187217E+04  0.00000000000E+00 0. -1.
         -2   -1    0    0    0  501 -0.00000000000E+00 -0.00000000000E+00 -0.14118853800E+03  0.14118853800E+03  0.00000000000E+00 0.  1.
          6    2    1    2  502    0  0.31746200737E+03 -0.55494278709E+03  0.14119559853E+04  0.15593545787E+04  0.17094845626E+03 0.  0.
         24    2    3    3    0    0  0.31307642499E+03 -0.46653488963E+03  0.11941835858E+04  0.13242331258E+04  0.10884522774E+03 0.  0.
         -6    2    1    2    0  501 -0.31746200737E+03  0.55494278709E+03  0.15558741984E+04  0.16908526810E+04  0.17174004909E+03 0.  0.
        -24    2    5    5    0    0 -0.27268130997E+03  0.45021361686E+03  0.11167397129E+04  0.12371625926E+04  0.80101788352E+02 0.  0.
          5    1    3    3  502    0  0.43855823733E+01 -0.88407897456E+02  0.21777239951E+03  0.23512145298E+03  0.47000000000E+01 0. -1.
        -13    1    4    4    0    0  0.22809020544E+02 -0.94997035688E+02  0.15700249806E+03  0.18491747512E+03  0.00000000000E+00 0.  1.
         14    1    4    4    0    0  0.29026740445E+03 -0.37153785395E+03  0.10371810878E+04  0.11393156506E+04  0.00000000000E+00 0. -1.
         -5    1    5    5    0  501 -0.44780697398E+02  0.10472917023E+03  0.43913448549E+03  0.45369008839E+03  0.47000000000E+01 0.  1.
         13    1    6    6    0    0 -0.25008087486E+03  0.39374026576E+03  0.10351962884E+04  0.11354308417E+04  0.00000000000E+00 0. -1.
        -14    1    6    6    0    0 -0.22600435111E+02  0.56473351108E+02  0.81543424580E+02  0.10173175092E+03  0.00000000000E+00 0.  1.
</event>
<event>
12    1  0.1081556E+000  0.3107512E+03  0.7818608E-02  0.1079986E+00
         -2   -1    0    0    0  501 -0.00000000000E+00  0.00000000000E+00  0.40557603418E+03  0.40557603418E+03  0.00000000000E+00 0.  1.
          2   -1    0    0  502    0  0.00000000000E+00 -0.00000000000E+00 -0.23866124459E+03  0.23866124459E+03  0.00000000000E+00 0. -1.
          6    2    1    2  502    0  0.24880999584E+03 -0.74494588821E+02  0.67747278621E+02  0.31788832639E+03  0.17031569658E+03 0.  0.
         24    2    3    3    0    0  0.12888455031E+03 -0.91245437061E+02  0.80765883515E+02  0.19601020089E+03  0.83426097951E+02 0.  0.
         -6    2    1    2    0  501 -0.24880999584E+03  0.74494588821E+02  0.99167510972E+02  0.32634895239E+03  0.17091982243E+03 0.  0.
        -24    2    5    5    0    0 -0.91651196680E+02  0.24518469900E+02 -0.15389615282E+02  0.12549595691E+03  0.80692612573E+02 0.  0.
          5    1    3    3  502    0  0.11992544553E+03  0.16750848240E+02 -0.13018604894E+02  0.12187812550E+03  0.47000000000E+01 0. -1.
        -13    1    4    4    0    0  0.74253610884E+02 -0.75445793967E+02  0.11636297762E+02  0.10649445987E+03  0.00000000000E+00 0.  1.
         14    1    4    4    0    0  0.54630939425E+02 -0.15799643094E+02  0.69129585753E+02  0.89515741022E+02  0.00000000000E+00 0. -1.
         -5    1    5    5    0  501 -0.15715879916E+03  0.49976118922E+02  0.11455712625E+03  0.20085299548E+03  0.47000000000E+01 0.  1.
         11    1    6    6    0    0 -0.10395531188E+03  0.90189352665E+01 -0.91509073547E+01  0.10474629906E+03  0.00000000000E+00 0. -1.
        -12    1    6    6    0    0  0.12304115195E+02  0.15499534633E+02 -0.62387079272E+01  0.20749657857E+02  0.00000000000E+00 0.  1.
</event>
<event>
12    1  0.1081556E+000  0.1131743E+04  0.7818608E-02  0.9174794E-01
         -2   -1    0    0    0  501 -0.00000000000E+00  0.00000000000E+00  0.16999937976E+04  0.16999937976E+04  0.00000000000E+00 0.  1.
          2   -1    0    0  502    0  0.00000000000E+00 -0.00000000000E+00 -0.84175624052E+03  0.84175624052E+03  0.00000000000E+00 0. -1.
          6    2    1    2  502    0 -0.98146333647E+03 -0.53688898838E+03  0.84087529031E+03  0.14101770443E+04  0.17322810300E+03 0.  0.
         24    2    3    3    0    0 -0.80170406523E+03 -0.45333548657E+03  0.61832117920E+03  0.11121048959E+04  0.78827325616E+02 0.  0.
         -6    2    1    2    0  501  0.98146333647E+03  0.53688898838E+03  0.17362266809E+02  0.11315729939E+04  0.16922152788E+03 0.  0.
        -24    2    5    5    0    0  0.81379541457E+03  0.42814450906E+03  0.67658354102E+02  0.92544274328E+03  0.79346838599E+02 0.  0.
          5    1    3    3  502    0 -0.17975927124E+03 -0.83553501811E+02  0.22255411111E+03  0.29807214837E+03  0.47000000000E+01 0. -1.
        -11    1    4    4    0    0 -0.32898761993E+03 -0.22977194514E+03  0.27901853552E+03  0.48875284552E+03  0.00000000000E+00 0.  1.
         12    1    4    4    0    0 -0.47271644530E+03 -0.22356354144E+03  0.33930264368E+03  0.62335205039E+03  0.00000000000E+00 0. -1.
         -5    1    5    5    0  501  0.16766792189E+03  0.10874447932E+03 -0.50296087293E+02  0.20613025060E+03  0.47000000000E+01 0.  1.
         13    1    6    6    0    0  0.57060210727E+03  0.33566140946E+03  0.31500733946E+02  0.66275760490E+03  0.00000000000E+00 0. -1.
        -14    1    6    6    0    0  0.24319330731E+03  0.92483099604E+02  0.36157620155E+02  0.26268513838E+03  0.00000000000E+00 0.  1.
</event>
<event>
12    1  0.1081556E+000  0.9934914E+03  0.7818608E-02  0.9315712E-01
         -1   -1    0    0    0  501 -0.00000000000E+00  0.00000000000E+00  0.84101064026E+03  0.84101064026E+03  0.00000000000E+00 0.  1.
          1   -1    0    0  502    0  0.00000000000E+00 -0.00000000000E+00 -0.16773262765E+04  0.16773262765E+04  0.00000000000E+00 0. -1.
          6    2    1    2  502    0  0.97798144383E+03  0.32815697473E+02 -0.11082462731E+04  0.14885110886E+04  0.17300544655E+03 0.  0.
         24    2    3    3    0    0  0.59129249655E+03  0.38165438061E+02 -0.57303512951E+03  0.82818539631E+03  0.80239478183E+02 0.  0.
         -6    2    1    2    0  501 -0.97798144383E+03 -0.32815697473E+02  0.27193063681E+03  0.10298258282E+04  0.17050041268E+03 0.  0.
        -24    2    5    5    0    0 -0.78669091741E+03 -0.30234331423E+02  0.27689301610E+03  0.83839583015E+03  0.80256534369E+02 0.  0.
          5    1    3    3  502    0  0.38668894728E+03 -0.53497405877E+01 -0.53521114355E+03  0.66032569225E+03  0.47000000000E+01 0. -1.
        -11    1    4    4    0    0  0.58136521729E+03  0.38296829546E+02 -0.57440334826E+03  0.81816341249E+03  0.00000000000E+00 0.  1.
         12    1    4    4    0    0  0.99272792603E+01 -0.13139148540E+00  0.13682187493E+01  0.10021983825E+02  0.00000000000E+00 0. -1.
         -5    1    5    5    0  501 -0.19129052642E+03 -0.25813660503E+01 -0.49623792858E+01  0.19142999806E+03  0.47000000000E+01 0.  1.
         13    1    6    6    0    0 -0.19016556570E+03  0.12713252593E+02  0.37782732890E+02  0.19429900688E+03  0.00000000000E+00 0. -1.
        -14    1    6    6    0    0 -0.59652535171E+03 -0.42947584016E+02  0.23911028321E+03  0.64409682326E+03  0.00000000000E+00 0.  1.
</event>
<event>
12    1  0.1081556E+000  0.5283575E+03  0.7818608E-02  0.1006631E+00
          1   -1    0    0  502    0  0.00000000000E+00  0.00000000000E+00  0.15130791790E+04  0.15130791790E+04  0.00000000000E+00 0. -1.
         -1   -1    0    0    0  501 -0.00000000000E+00 -0.00000000000E+00 -0.65474977846E+03  0.65474977846E+03  0.00000000000E+00 0.  1.
          6    2    1    2  502    0 -0.41728604337E+03  0.27494969963E+03 -0.48946305792E+03  0.72011460273E+03  0.17107301562E+03 0.  0.
         24    2    3    3    0    0 -0.41018030410E+03  0.27042346565E+03 -0.42519865504E+03  0.65513012918E+03  0.83814421555E+02 0.  0.
         -6    2    1    2    0  501  0.41728604337E+03 -0.27494969963E+03  0.13477924584E+04  0.14477143547E+04  0.17206790088E+03 0.  0.
        -24    2    5    5    0    0  0.30702906503E+03 -0.12865749986E+03  0.94984203366E+03  0.10095994844E+04  0.79193629856E+02 0.  0.
          5    1    3    3  502    0 -0.71057392712E+01  0.45262339738E+01 -0.64264402885E+02  0.64984473551E+02  0.47000000000E+01 0. -1.
        -11    1    4    4    0    0 -0.31409204698E+03  0.16162198528E+03 -0.30278617698E+03  0.46524719137E+03  0.00000000000E+00 0.  1.
         12    1    4    4    0    0 -0.96088257119E+02  0.10880148037E+03 -0.12241247806E+03  0.18988293781E+03  0.00000000000E+00 0. -1.
         -5    1    5    5    0  501  0.11025697834E+03 -0.14629219976E+03  0.39795042475E+03  0.43811487026E+03  0.47000000000E+01 0.  1.
         13    1    6    6    0    0  0.18413822267E+03 -0.10181625305E+03  0.68140088804E+03  0.71314837492E+03  0.00000000000E+00 0. -1.
        -14    1    6    6    0    0  0.12289084236E+03 -0.26841246813E+02  0.26844114563E+03  0.29645110951E+03  0.00000000000E+00 0.  1.
</event>
<event>
12    1  0.1081556E+000  0.3522197E+03  0.7818608E-02  0.1061708E+00
         -1   -1    0    0    0  501 -0.00000000000E+00  0.00000000000E+00  0.24452166392E+03  0.24452166392E+03  0.00000000000E+00 0.  1.
          1   -1    0    0  502    0  0.00000000000E+00 -0.00000000000E+00 -0.27224366258E+04  0.27224366258E+04  0.00000000000E+00 0. -1.
          6    2    1    2  502    0  0.12563165190E+03 -0.28464096824E+03  0.97296738269E+02  0.36815167961E+03  0.17107077823E+03 0.  0.
         24    2    3    3    0    0  0.13255144388E+03 -0.13858887226E+03  0.70537272187E+02  0.21943296093E+03  0.79990979405E+02 0.  0.
         -6    2    1    2    0  501 -0.12563165190E+03  0.28464096824E+03 -0.25752117002E+04  0.25988066101E+04  0.15898648823E+03 0.  0.
        -24    2    5    5    0    0 -0.23640368619E+02  0.17905870549E+03 -0.16731602319E+04  0.16848762094E+04  0.81986536605E+02 0.  0.
          5    1    3    3  502    0 -0.69197919829E+01 -0.14605209598E+03  0.26759466082E+02  0.14871871868E+03  0.47000000000E+01 0. -1.
        -11    1    4    4    0    0  0.14294309905E+02 -0.26349664431E+02  0.45490094338E+02  0.54479177620E+02  0.00000000000E+00 0.  1.
         12    1    4    4    0    0  0.11825713398E+03 -0.11223920783E+03  0.25047177849E+02  0.16495378331E+03  0.00000000000E+00 0. -1.
         -5    1    5    5    0  501 -0.10199128328E+03  0.10558226275E+03 -0.90205146824E+03  0.91393040075E+03  0.47000000000E+01 0.  1.
         11    1    6    6    0    0  0.11014739352E+02  0.12630916108E+03 -0.86335189728E+03  0.87261207142E+03  0.00000000000E+00 0. -1.
        -12    1    6    6    0    0 -0.34655107972E+02  0.52749544409E+02 -0.80980833464E+03  0.81226413795E+03  0.00000000000E+00 0.  1.
</event>
<event>
12    1  0.1081556E+000  0.8792866E+03  0.7818608E-02  0.9451851E-01
          2   -1    0    0  502    0  0.00000000000E+00  0.00000000000E+00  0.12057590945E+04  0.12057590945E+04  0.00000000000E+00 0. -1.
         -2   -1    0    0    0  501 -0.00000000000E+00 -0.00000000000E+00 -0.89740054184E+03  0.89740054184E+03  0.00000000000E+00 0.  1.
          6    2    1    2  502    0  0.13298421418E+03 -0.85398075323E+03 -0.40792090073E+03  0.96755492360E+03  0.15098059752E+03 0.  0.
         24    2    3    3    0    0  0.12897067522E+03 -0.79650112671E+03 -0.41167142055E+03  0.90962244256E+03  0.83018971336E+02 0.  0.
         -6    2    1    2    0  501 -0.13298421418E+03  0.85398075323E+03  0.71627945343E+03  0.11356047128E+04  0.17197057946E+03 0.  0.
        -24    2    5    5    0    0 -0.13227571792E+03  0.85437358022E+03  0.69184462785E+03  0.11107087898E+04  0.87028423729E+02 0.  0.
          5    1    3    3  502    0  0.40135389513E+01 -0.57479626522E+02  0.37505198264E+01  0.57932481036E+02  0.47000000000E+01 0. -1.
        -13    1    4    4    0    0  0.75167648944E+02 -0.52714920976E+03 -0.31360517483E+03  0.61796817918E+03  0.00000000000E+00 0.  1.
         14    1    4    4    0    0  0.53803026280E+02 -0.26935191695E+03 -0.98066245725E+02  0.29165426339E+03  0.00000000000E+00 0. -1.
         -5    1    5    5    0  501 -0.70849625192E+00 -0.39282699433E+00  0.24434825581E+02  0.24895922983E+02  0.47000000000E+01 0.  1.
         11    1    6    6    0    0 -0.30483207946E+02  0.22243013319E+03  0.13270928900E+03  0.26079905196E+03  0.00000000000E+00 0. -1.
        -12    1    6    6    0    0 -0.10179250998E+03  0.63194344704E+03  0.55913533885E+03  0.84990973785E+03  0.00000000000E+00 0.  1.
</event>
<event>
12    1  0.1081556E+000  0.6604417E+03  0.7818608E-02  0.9787381E-01
          2   -1    0    0  502    0  0.00000000000E+00  0.00000000000E+00  0.29824121715E+04  0.29824121715E+04  0.00000000000E+00 0. -1.
         -2   -1    0    0    0  501 -0.00000000000E+00 -0.00000000000E+00 -0.13701574176E+04  0.13701574176E+04  0.00000000000E+00 0.  1.
          6    2    1    2  502    0  0.27834509090E+03  0.57373158061E+03 -0.12507377643E+04  0.14143770906E+04  0.17167901202E+03 0.  0.
         24    2    3    3    0    0  0.27693023493E+03  0.51781876712E+03 -0.12010529581E+04  0.13394176716E+04  0.81760994435E+02 0.  0.
         -6    2    1    2    0  501 -0.27834509090E+03 -0.57373158061E+03  0.28629925181E+04  0.29381924986E+04  0.17206127869E+03 0.  0.
        -24    2    5    5    0    0 -0.29556461101E+03 -0.52067170512E+03  0.26490316241E+04  0.27170291733E+04  0.80134383821E+02 0.  0.
          5    1    3    3  502    0  0.14148559714E+01  0.55912813494E+02 -0.49684806145E+02  0.74959418967E+02  0.47000000000E+01 0. -1.
        -11    1    4    4    0    0  0.15052702670E+03  0.21417433414E+03 -0.47552415161E+03  0.54281880028E+03  0.00000000000E+00 0.  1.
         12    1    4    4    0    0  0.12640320823E+03  0.30364443297E+03 -0.72552880650E+03  0.79659887132E+03  0.00000000000E+00 0. -1.
         -5    1    5    5    0  501  0.17219520110E+02 -0.53059875486E+02  0.21396089402E+03  0.22116332524E+03  0.47000000000E+01 0.  1.
         11    1    6    6    0    0 -0.22612554907E+03 -0.39562803082E+03  0.21581249013E+04  0.22057101787E+04  0.00000000000E+00 0. -1.
        -12    1    6    6    0    0 -0.69439061936E+02 -0.12504367430E+03  0.49090672280E+03  0.51131899466E+03  0.00000000000E+00 0.  1.
</event>
<event>
12    1  0.1081556E+000  0.5055412E+03  0.7818608E-02  0.1012343E+00
          1   -1    0    0  502    0  0.00000000000E+00  0.00000000000E+00  0.14758412312E+04  0.14758412312E+04  0.00000000000E+00 0. -1.
         -1   -1    0    0    0  501 -0.00000000000E+00 -0.00000000000E+00 -0.17505939712E+03  0.17505939712E+03  0.00000000000E+00 0.  1.
          6    2    1    2  502    0  0.80662421197E+02  0.47021308300E+03  0.73552227296E+03  0.89223241040E+03  0.16576757984E+03 0.  0.
         24    2    3    3    0    0 -0.10393194871E+02  0.28766736373E+03  0.39327916507E+03  0.49377726896E+03  0.79290346233E+02 0.  0.
         -6    2    1    2    0  501 -0.80662421197E+02 -0.47021308300E+03  0.56525956110E+03  0.75866821791E+03  0.16867816643E+03 0.  0.
        -24    2    5    5    0    0 -0.93211806530E+02 -0.40296885030E+03  0.40712214578E+03  0.58630579153E+03  0.83268868170E+02 0.  0.
          5    1    3    3  502    0  0.91055616068E+02  0.18254571927E+03  0.34224310789E+03  0.39845514144E+03  0.47000000000E+01 0. -1.
        -11    1    4    4    0    0  0.10669294630E+02  0.11312664481E+03  0.21623397197E+03  0.24427157479E+03  0.00000000000E+00 0.  1.
         12    1    4    4    0    0 -0.21062489502E+02  0.17454071892E+03  0.17704519310E+03  0.24950569417E+03  0.00000000000E+00 0. -1.
         -5    1    5    5    0  501  0.12549385332E+02 -0.67244232703E+02  0.15813741532E+03  0.17236242638E+03  0.47000000000E+01 0.  1.
         13    1    6    6    0    0 -0.92473983207E+02 -0.24689652819E+03  0.28402006326E+03  0.38752642431E+03  0.00000000000E+00 0. -1.
        -14    1    6    6    0    0 -0.73782332267E+00 -0.15607232211E+03  0.12310208252E+03  0.19877936722E+03  0.00000000000E+00 0.  1.
</event>
<event>
12    1  0.1081556E+000  0.4589225E+03  0.7818608E-02  0.1025094E+00
          2   -1    0    0  502    0  0.00000000000E+00  0.00000000000E+00  0.11990944365E+04  0.11990944365E+04  0.00000000000E+00 0. -1.
         -2   -1    0    0    0  501 -0.00000000000E+00 -0.00000000000E+00 -0.60302672052E+03  0.60302672052E+03  0.00000000000E+00 0.  1.
          6    2    1    2  502    0 -0.41742059100E+03 -0.79945110975E+02 -0.46068265572E+03  0.64971252061E+03  0.17107507006E+03 0.  0.
         24    2    3    3    0    0 -0.20430593935E+03 -0.58976716820E+02 -0.14990248240E+03  0.27226857189E+03  0.80251174599E+02 0.  0.
         -6    2    1    2    0  501  0.41742059100E+03  0.79945110975E+02  0.10567503717E+04  0.11524086364E+04  0.17519459642E+03 0.  0.
        -24    2    5    5    0    0  0.24832775653E+03  0.29613327313E+02  0.45745181588E+03  0.52766346906E+03  0.81381502250E+02 0.  0.
          5    1    3    3  502    0 -0.21311465165E+03 -0.20968394155E+02 -0.31078017332E+03  0.37744394872E+03  0.47000000000E+01 0. -1.
        -11    1    4    4    0    0 -0.56344681382E+02 -0.28653975242E+02 -0.89566960923E+02  0.10962670252E+03  0.00000000000E+00 0.  1.
         12    1    4    4    0    0 -0.14796125797E+03 -0.30322741578E+02 -0.60335521476E+02  0.16264186936E+03  0.00000000000E+00 0. -1.
         -5    1    5    5    0  501  0.16909283447E+03  0.50331783663E+02  0.59929855583E+03  0.62474516736E+03  0.47000000000E+01 0.  1.
         13    1    6    6    0    0  0.19584387011E+03  0.17288579327E+02  0.41439338211E+03  0.45866719043E+03  0.00000000000E+00 0. -1.
        -14    1    6    6    0    0  0.52483886415E+02  0.12324747986E+02  0.43058433766E+02  0.68996278628E+02  0.00000000000E+00 0.  1.
</event>
<event>
12    1  0.1081556E+000  0.5112079E+03  0.7818608E-02  0.1010894E+00
          1   -1    0    0  502    0  0.00000000000E+00  0.00000000000E+00  0.92510705640E+03  0.92510705640E+03  0.00000000000E+00 0. -1.
         -1   -1    0    0    0  501 -0.00000000000E+00 -0.00000000000E+00 -0.11099760831E+04  0.11099760831E+04  0.00000000000E+00 0.  1.
          6    2    1    2  502    0  0.39670513815E+03  0.27394237206E+03 -0.97097220437E+03  0.10970156165E+04  0.16803824362E+03 0.  0.
         24    2    3    3    0    0  0.30092062626E+03  0.14466215024E+03 -0.57741815006E+03  0.67181574333E+03  0.80276471929E+02 0.  0.
         -6    2    1    2    0  501 -0.39670513815E+03 -0.27394237206E+03  0.78610317769E+03  0.93806752300E+03  0.17202639881E+03 0.  0.
        -24    2    5    5    0    0 -0.20723082524E+03 -0.11347907765E+03  0.28579505907E+03  0.37951646208E+03  0.80819633761E+02 0.  0.
          5    1    3    3  502    0  0.95784511887E+02  0.12928022182E+03 -0.39355405431E+03  0.42519987316E+03  0.47000000000E+01 0. -1.
        -11    1    4    4    0    0  0.28329896552E+03  0.12267927995E+03 -0.55763633387E+03  0.63739061057E+03  0.00000000000E+00 0.  1.
         12    1    4    4    0    0  0.17621660742E+02  0.21982870293E+02 -0.19781816188E+02  0.34425132757E+02  0.00000000000E+00 0. -1.
         -5    1    5    5    0  501 -0.18947431290E+03 -0.16046329440E+03  0.50030811862E+03  0.55855106092E+03  0.47000000000E+01 0.  1.
         11    1    6    6    0    0 -0.15866632394E+03 -0.56342801263E+02  0.23440820473E+03  0.28861171157E+03  0.00000000000E+00 0. -1.
        -12    1    6    6    0    0 -0.48564501302E+02 -0.57136276391E+02  0.51386854339E+02  0.90904750511E+02  0.00000000000E+00 0.  1.
</event>
<event>
12    1  0.1081556E+000  0.6625601E+03  0.7818608E-02  0.9783492E-01
         -2   -1    0    0    0  501 -0.00000000000E+00  0.00000000000E+00  0.75776898229E+03  0.75776898229E+03  0.00000000000E+00 0.  1.
          2   -1    0    0  502    0  0.00000000000E+00 -0.00000000000E+00 -0.59509533820E+03  0.59509533820E+03  0.00000000000E+00 0. -1.
          6    2    1    2  502    0 -0.61830274899E+03 -0.16206328469E+03 -0.28825129650E+02  0.66313910674E+03  0.17424060703E+03 0.  0.
         24    2    3    3    0    0 -0.40934845600E+03 -0.54410730295E+02  0.27773679073E+02  0.42131999217E+03  0.78819239704E+02 0.  0.
         -6    2    1    2    0  501  0.61830274899E+03  0.16206328469E+03  0.19149877375E+03  0.68972521375E+03  0.17460324305E+03 0.  0.
        -24    2    5    5    0    0  0.29335017715E+03  0.12517004802E+03  0.56023993241E+02  0.33570432311E+03  0.88525913602E+02 0.  0.
          5    1    3    3  502    0 -0.20895429298E+03 -0.10765255439E+03 -0.56598808723E+02  0.24181911457E+03  0.47000000000E+01 0. -1.
        -11    1    4    4    0    0 -0.21312673918E+03 -0.62734868354E+02  0.34370477613E+02  0.22481103263E+03  0.00000000000E+00 0.  1.
         12    1    4    4    0    0 -0.19622171683E+03  0.83241380592E+01 -0.65967985405E+01  0.19650895954E+03  0.00000000000E+00 0. -1.
         -5    1    5    5    0  501  0.32495257184E+03  0.36893236664E+02  0.13547478050E+03  0.35402089064E+03  0.47000000000E+01 0.  1.
         11    1    6    6    0    0  0.10149656141E+03  0.77631195316E+02  0.52141729303E+02  0.13801055901E+03  0.00000000000E+00 0. -1.
        -12    1    6    6    0    0  0.19185361574E+03  0.47538852707E+02  0.38822639382E+01  0.19769376409E+03  0.00000000000E+00 0.  1.
</event>
<event>
12    1  0.1081556E+000  0.2323521E+03  0.7818608E-02  0.1124995E+00
         -1   -1    0    0    0  501 -0.00000000000E+00  0.00000000000E+00  0.17669276543E+03  0.17669276543E+03  0.00000000000E+00 0.  1.
          1   -1    0    0  502    0  0.00000000000E+00 -0.00000000000E+00 -0.50166671991E+03  0.50166671991E+03  0.00000000000E+00 0. -1.
          6    2    1    2  502    0  0.39283102432E+02  0.15197803455E+03  0.49488124775E+02  0.23778859215E+03  0.17162125433E+03 0.  0.
         24    2    3    3    0    0 -0.40444227516E+02  0.65230487786E+02  0.26437023777E+01  0.11091040679E+03  0.80021104062E+02 0.  0.
         -6    2    1    2    0  501 -0.39283102432E+02 -0.15197803455E+03 -0.37446207925E+03  0.44057089320E+03  0.17099818131E+03 0.  0.
        -24    2    5    5    0    0 -0.58018008743E+02 -0.84940975353E+02 -0.33652229774E+03  0.36115753764E+03  0.81280080490E+02 0.  0.
          5    1    3    3  502    0  0.79727329948E+02  0.86747546763E+02  0.46844422398E+02  0.12687818536E+03  0.47000000000E+01 0. -1.
        -13    1    4    4    0    0 -0.10768718103E+02  0.35504609907E+02  0.40100806651E+02  0.54631651158E+02  0.00000000000E+00 0.  1.
         14    1    4    4    0    0 -0.29675509412E+02  0.29725877879E+02 -0.37457104273E+02  0.56278755629E+02  0.00000000000E+00 0. -1.
         -5    1    5    5    0  501  0.18734906310E+02 -0.67037059197E+02 -0.37939781518E+02  0.79413355563E+02  0.47000000000E+01 0.  1.
         13    1    6    6    0    0 -0.47883163527E+00 -0.23970047275E+02 -0.19649781803E+03  0.19795500736E+03  0.00000000000E+00 0. -1.
        -14    1    6    6    0    0 -0.57539177107E+02 -0.60970928078E+02 -0.14002447970E+03  0.16320253028E+03  0.00000000000E+00 0.  1.
</event>
<event>
12    1  0.1081556E+000  0.7116840E+03  0.7818608E-02  0.9697457E-01
          2   -1    0    0  502    0  0.00000000000E+00  0.00000000000E+00  0.24904236497E+04  0.24904236497E+04  0.00000000000E+00 0. -1.
         -2   -1    0    0    0  501 -0.00000000000E+00 -0.00000000000E+00 -0.39853231502E+03  0.39853231502E+03  0.00000000000E+00 0.  1.
          6    2    1    2  502    0  0.68849113703E+03 -0.53063819280E+02  0.35256574271E+02  0.71271823494E+03  0.17288273975E+03 0.  0.
         24    2    3    3    0    0  0.63158671927E+03 -0.60899615846E+01  0.20027335485E+02  0.63722866095E+03  0.81978049376E+02 0.  0.
         -6    2    1    2    0  501 -0.68849113703E+03  0.53063819280E+02  0.20566347604E+04  0.21762377298E+04  0.17154679851E+03 0.  0.
        -24    2    5    5    0    0 -0.59278971362E+03  0.11196376052E+02  0.16087997294E+04  0.17163573646E+04  0.78237014238E+02 0.  0.
          5    1    3    3  502    0  0.56904417757E+02 -0.46973857695E+02  0.15229238786E+02  0.75489573989E+02  0.47000000000E+01 0. -1.
        -13    1    4    4    0    0  0.33059993642E+03  0.31753111509E+02 -0.10897026171E+02  0.33230005000E+03  0.00000000000E+00 0.  1.
         14    1    4    4    0    0  0.30098678285E+03 -0.37843073093E+02  0.30924361656E+02  0.30492861095E+03  0.00000000000E+00 0. -1.
         -5    1    5    5    0  501 -0.95701423412E+02  0.41867443227E+02  0.44783503099E+03  0.45988036512E+03  0.47000000000E+01 0.  1.
         13    1    6    6    0    0 -0.40035665433E+03  0.38731293910E+01  0.11862714769E+04  0.12520145641E+04  0.00000000000E+00 0. -1.
        -14    1    6    6    0    0 -0.19243305929E+03  0.73232466614E+01  0.42252825247E+03  0.46434280051E+03  0.00000000000E+00 0.  1.
</event>
<event>
12    1  0.1081556E+000  0.2255774E+03  0.7818608E-02  0.1129792E+00
          2   -1    0    0  502    0  0.00000000000E+00  0.00000000000E+00  0.96223540069E+03  0.96223540069E+03  0.00000000000E+00 0. -1.
         -2   -1    0    0    0  501 -0.00000000000E+00 -0.00000000000E+00 -0.14376484312E+03  0.14376484312E+03  0.00000000000E+00 0.  1.
          6    2    1    2  502    0 -0.14478181737E+03 -0.18979269982E+02 -0.30377261609E+02  0.22771755799E+03  0.17207707826E+03 0.  0.
         24    2    3    3    0    0 -0.12055335716E+03 -0.54134463782E+02 -0.59685843638E+02  0.17571766457E+03  0.99250418733E+02 0.  0.
         -6    2    1    2    0  501  0.14478181737E+03  0.18979269982E+02  0.84884781917E+03  0.87828268582E+03  0.17180182995E+03 0.  0.
        -24    2    5    5    0    0  0.13537226838E+02  0.10370225066E+02  0.17933731595E+03  0.19595896345E+03  0.77118379026E+02 0.  0.
          5    1    3    3  502    0 -0.24228460208E+02  0.35155193800E+02  0.29308582029E+02  0.51999893420E+02  0.47000000000E+01 0. -1.
        -13    1    4    4    0    0 -0.70669375769E+02  0.20291167746E+02 -0.12923808996E+02  0.74651972507E+02  0.00000000000E+00 0.  1.
         14    1    4    4    0    0 -0.49883981389E+02 -0.74425631529E+02 -0.46762034642E+02  0.10106569206E+03  0.00000000000E+00 0. -1.
         -5    1    5    5    0  501  0.13124459053E+03  0.86090449168E+01  0.66951050322E+03  0.68232372238E+03  0.47000000000E+01 0.  1.
         13    1    6    6    0    0 -0.18109666375E+02  0.19257439565E+02  0.14867528247E+03  0.15100711444E+03  0.00000000000E+00 0. -1.
        -14    1    6    6    0    0  0.31646893213E+02 -0.88872144992E+01  0.30662033483E+02  0.44951849004E+02  0.00000000000E+00 0.  1.
</event>
<event>
12    1  0.1081556E+000  0.5056883E+03  0.7818608E-02  0.1012305E+00
         -1   -1    0    0    0  501 -0.00000000000E+00  0.00000000000E+00  0.34584207354E+03  0.34584207354E+03  0.00000000000E+00 0.  1.
          1   -1    0    0  502    0  0.00000000000E+00 -0.00000000000E+00 -0.75746084533E+03  0.75746084533E+03  0.00000000000E+00 0. -1.
          6    2    1    2  502    0 -0.47530717238E+03 -0.19492667384E+01 -0.12059854944E+03  0.51971723726E+03  0.17216645672E+03 0.  0.
         24    2    3    3    0    0 -0.39464556939E+03  0.37227294948E+02 -0.55539443229E+02  0.40883047302E+03  0.83226972708E+02 0.  0.
         -6    2    1    2    0  501  0.47530717238E+03  0.19492667384E+01 -0.29102022235E+03  0.58358568161E+03  0.17308601967E+03 0.  0.
        -24    2    5    5    0    0  0.42012118549E+03 -0.11131729176E+02 -0.30460713112E+03  0.52507671056E+03  0.79336761673E+02 0.  0.
          5    1    3    3  502    0 -0.80661602989E+02 -0.39176561686E+02 -0.65059106207E+02  0.11088676424E+03  0.47000000000E+01 0. -1.
        -11    1    4    4    0    0 -0.22319362690E+03 -0.19643287370E+02 -0.22342905983E+02  0.22516762484E+03  0.00000000000E+00 0.  1.
         12    1    4    4    0    0 -0.17145194250E+03  0.56870582317E+02 -0.33196537246E+02  0.18366284819E+03  0.00000000000E+00 0. -1.
         -5    1    5    5    0  501  0.55185986892E+02  0.13080995915E+02  0.13586908770E+02  0.58508971049E+02  0.47000000000E+01 0.  1.
         11    1    6    6    0    0  0.26767192443E+03 -0.18680064492E+02 -0.14818167832E+03  0.30652082103E+03  0.00000000000E+00 0. -1.
        -12    1    6    6    0    0  0.15244926106E+03  0.75483353156E+01 -0.15642545280E+03  0.21855588953E+03  0.00000000000E+00 0.  1.
</event>
<event>
12    1  0.1081556E+000  0.9450194E+03  0.7818608E-02  0.9370991E-01
          2   -1    0    0  502    0  0.00000000000E+00  0.00000000000E+00  0.11100050109E+04  0.11100050109E+04  0.00000000000E+00 0. -1.
         -2   -1    0    0    0  501 -0.00000000000E+00 -0.00000000000E+00 -0.87322851433E+03  0.87322851433E+03  0.00000000000E+00 0.  1.
          6    2    1    2  502    0  0.59937734893E+03  0.70919671474E+03 -0.15951300889E+03  0.95987828646E+03  0.18359939600E+03 0.  0.
         24    2    3    3    0    0  0.59140563678E+03  0.71132633914E+03 -0.17208432004E+03  0.94412356150E+03  0.77527402943E+02 0.  0.
         -6    2    1    2    0  501 -0.59937734893E+03 -0.70919671474E+03  0.39628950546E+03  0.10233552388E+04  0.16732419415E+03 0.  0.
        -24    2    5    5    0    0 -0.47621912455E+03 -0.58797818045E+03  0.26287179446E+03  0.80498798642E+03  0.80006766458E+02 0.  0.
          5    1    3    3  502    0  0.79717121492E+01 -0.21296243968E+01  0.12571311151E+02  0.15754724965E+02  0.47000000000E+01 0. -1.
        -13    1    4    4    0    0  0.16076651955E+03  0.15664902505E+03 -0.17937527891E+02  0.22518113990E+03  0.00000000000E+00 0.  1.
         14    1    4    4    0    0  0.43063911723E+03  0.55467731408E+03 -0.15414679215E+03  0.71894242160E+03  0.00000000000E+00 0. -1.
         -5    1    5    5    0  501 -0.12315822438E+03 -0.12121853429E+03  0.13341771099E+03  0.21836725234E+03  0.47000000000E+01 0.  1.
         13    1    6    6    0    0 -0.77981446282E+02 -0.11763052718E+03  0.19904700032E+02  0.14252804627E+03  0.00000000000E+00 0. -1.
        -14    1    6    6    0    0 -0.39823767827E+03 -0.47034765326E+03  0.24296709443E+03  0.66245994015E+03  0.00000000000E+00 0.  1.
</event>
<event>
12    1  0.1081556E+000  0.3081691E+03  0.7818608E-02  0.1081227E+00
          1   -1    0    0  502    0  0.00000000000E+00  0.00000000000E+00  0.19132326693E+04  0.19132326693E+04  0.00000000000E+00 0. -1.
         -1   -1    0    0    0  501 -0.00000000000E+00 -0.00000000000E+00 -0.76127124526E+02  0.76127124526E+02  0.00000000000E+00 0.  1.
          6    2    1    2  502    0 -0.60539018340E+02 -0.24961111935E+03  0.32939825452E+03  0.45023022946E+03  0.16802787207E+03 0.  0.
         24    2    3    3    0    0 -0.47998168082E+01 -0.12362261527E+03  0.84768163273E+02  0.16943504914E+03  0.78847987451E+02 0.  0.
         -6    2    1    2    0  501  0.60539018340E+02  0.24961111935E+03  0.15077072903E+04  0.15391295644E+04  0.17253364648E+03 0.  0.
        -24    2    5    5    0    0  0.34144585782E+01  0.58624602461E+02  0.70842167389E+03  0.71534643059E+03  0.80067129225E+02 0.  0.
          5    1    3    3  502    0 -0.55739201532E+02 -0.12598850409E+03  0.24463009124E+03  0.28079518032E+03  0.47000000000E+01 0. -1.
        -13    1    4    4    0    0 -0.86135015850E+01 -0.24389058782E+02  0.62530426945E+02  0.67668847277E+02  0.00000000000E+00 0.  1.
         14    1    4    4    0    0  0.38136847768E+01 -0.99233556487E+02  0.22237736328E+02  0.10176620186E+03  0.00000000000E+00 0. -1.
         -5    1    5    5    0  501  0.57124559762E+02  0.19098651689E+03  0.79928561641E+03  0.82378313382E+03  0.47000000000E+01 0.  1.
         11    1    6    6    0    0  0.94813875553E+01  0.76242413021E+02  0.47408509775E+03  0.48027021786E+03  0.00000000000E+00 0. -1.
        -12    1    6    6    0    0 -0.60669289771E+01 -0.17617810559E+02  0.23433657613E+03  0.23507621273E+03  0.00000000000E+00 0.  1.
</event>
<event>
12    1  0.1081556E+000  0.2868690E+03  0.7818608E-02  0.1091995E+00
         -1   -1    0    0    0  501 -0.00000000000E+00  0.00000000000E+00  0.25713467742E+03  0.25713467742E+03  0.00000000000E+00 0.  1.
          1   -1    0    0  502    0  0.00000000000E+00 -0.00000000000E+00 -0.33334633093E+03  0.33334633093E+03  0.00000000000E+00 0. -1.
          6    2    1    2  502    0  0.71781183925E+01 -0.23007486305E+03 -0.97067684021E+02  0.30268758375E+03  0.17091421850E+03 0.  0.
         24    2    3    3    0    0  0.73038082834E+01 -0.24798977692E+03 -0.72112630359E+02  0.27161018617E+03  0.83782973820E+02 0.  0.
         -6    2    1    2    0  501 -0.71781183925E+01  0.23007486305E+03  0.20856030513E+02  0.28779342460E+03  0.17147627603E+03 0.  0.
        -24    2    5    5    0    0  0.95411929603E+01  0.35246984260E+02  0.35901791247E+02  0.91615182578E+02  0.75967221889E+02 0.  0.
          5    1    3    3  502    0 -0.12568989093E+00  0.17914913874E+02 -0.24955053663E+02  0.31077397580E+02  0.47000000000E+01 0. -1.
        -11    1    4    4    0    0  0.29372134098E+02 -0.61651911378E+02 -0.45576546904E+02  0.82102996691E+02  0.00000000000E+00 0.  1.
         12    1    4    4    0    0 -0.22068325815E+02 -0.18633786555E+03 -0.26536083455E+02  0.18950718948E+03  0.00000000000E+00 0. -1.
         -5    1    5    5    0  501 -0.16719311353E+02  0.19482787879E+03 -0.15045760734E+02  0.19617824202E+03  0.47000000000E+01 0.  1.
         11    1    6    6    0    0  0.25197586341E+01  0.32879839957E+02 -0.17752889470E+02  0.37451276931E+02  0.00000000000E+00 0. -1.
        -12    1    6    6    0    0  0.70214343262E+01  0.23671443029E+01  0.53654680717E+02  0.54163905648E+02  0.00000000000E+00 0.  1.
</event>
<event>
12    1  0.1838840E+000  0.4188171E+03  0.7818608E-02  0.1037452E+00
         -2   -1    0    0    0  501 -0.00000000000E+00  0.00000000000E+00  0.11279822826E+03  0.11279822826E+03  0.00000000000E+00 0.  1.
          2   -1    0    0  502    0  0.00000000000E+00 -0.00000000000E+00 -0.17164111373E+04  0.17164111373E+04  0.00000000000E+00 0. -1.
          6    2    1    2  502    0 -0.25293153591E+03  0.28023556177E+03 -0.52929089055E+03  0.67774158080E+03  0.19151624364E+03 0.  0.
         24    2    3    3    0    0 -0.10374222581E+03  0.63872707357E+02 -0.27872211562E+03  0.31459266370E+03  0.80251817151E+02 0.  0.
         -6    2    1    2    0  501  0.25293153591E+03 -0.28023556177E+03 -0.10743220185E+04  0.11514677848E+04  0.17089156801E+03 0.  0.
        -24    2    5    5    0    0  0.13499085537E+03 -0.20963431535E+03 -0.83906092356E+03  0.87895280737E+03  0.79785505747E+02 0.  0.
          5    1    3    3  502    0 -0.14918931010E+03  0.21636285441E+03 -0.25056877493E+03  0.36314891710E+03  0.47000000000E+01 0. -1.
        -11    1    4    4    0    0 -0.89630779751E+02  0.52133166870E+02 -0.13766480682E+03  0.17234599735E+03  0.00000000000E+00 0.  1.
         12    1    4    4    0    0 -0.14111446061E+02  0.11739540487E+02 -0.14105730880E+03  0.14224666635E+03  0.00000000000E+00 0. -1.
         -5    1    5    5    0  501  0.11794068054E+03 -0.70601246420E+02 -0.23526109493E+03  0.27251497741E+03  0.47000000000E+01 0.  1.
         11    1    6    6    0    0  0.90899288860E+02 -0.10733321760E+03 -0.34664460114E+03  0.37409300958E+03  0.00000000000E+00 0. -1.
        -12    1    6    6    0    0  0.44091566514E+02 -0.10230109775E+03 -0.49241632242E+03  0.50485979779E+03  0.00000000000E+00 0.  1.
</event>
<event>
12    1  0.1081556E+000  0.3971820E+03  0.7818608E-02  0.1044760E+00
          2   -1    0    0  502    0  0.00000000000E+00  0.00000000000E+00  0.13048183645E+04  0.13048183645E+04  0.00000000000E+00 0. -1.
         -2   -1    0    0    0  501 -0.00000000000E+00 -0.00000000000E+00 -0.28171313527E+03  0.28171313527E+03  0.00000000000E+00 0.  1.
          6    2    1    2  502    0 -0.35337409886E+03 -0.59415440231E+02 -0.87894329804E+02  0.40660601699E+03  0.17087887978E+03 0.  0.
         24    2    3    3    0    0 -0.35483774736E+03 -0.34163624189E+02 -0.62695137721E+02  0.37059371684E+03  0.79574132065E+02 0.  0.
         -6    2    1    2    0  501  0.35337409886E+03  0.59415440231E+02  0.11109995590E+04  0.11799254827E+04  0.17175760960E+03 0.  0.
        -24    2    5    5    0    0  0.25674239458E+03  0.82333593545E+02  0.63231919891E+03  0.69102886263E+03  0.70695416262E+02 0.  0.
          5    1    3    3  502    0  0.14636485036E+01 -0.25251816042E+02 -0.25199192083E+02  0.36012300149E+02  0.47000000000E+01 0. -1.
        -11    1    4    4    0    0 -0.21359308043E+03 -0.38322421294E+02 -0.72895892575E+02  0.22892012392E+03  0.00000000000E+00 0.  1.
         12    1    4    4    0    0 -0.14124466693E+03  0.41587971047E+01  0.10200754854E+02  0.14167359291E+03  0.00000000000E+00 0. -1.
         -5    1    5    5    0  501  0.96631704275E+02 -0.22918153314E+02  0.47868036008E+03  0.48889662011E+03  0.47000000000E+01 0.  1.
         11    1    6    6    0    0  0.72742100120E+02  0.50196643605E+02  0.15440586631E+03  0.17791089823E+03  0.00000000000E+00 0. -1.
        -12    1    6    6    0    0  0.18400029446E+03  0.32136949940E+02  0.47791333260E+03  0.51311796440E+03  0.00000000000E+00 0.  1.
</event>
<event>
12    1  0.1081556E+000  0.2631197E+03  0.7818608E-02  0.1105283E+00
          2   -1    0    0  502    0  0.00000000000E+00  0.00000000000E+00  0.18721295333E+04  0.18721295333E+04  0.00000000000E+00 0. -1.
         -2   -1    0    0    0  501 -0.00000000000E+00 -0.00000000000E+00 -0.59240821541E+02  0.59240821541E+02  0.00000000000E+00 0.  1.
          6    2    1    2  502    0  0.83052158713E+01  0.19635835777E+03  0.32041911018E+03  0.41635289883E+03  0.17904119336E+03 0.  0.
         24    2    3    3    0    0  0.47783305979E+02  0.10599292714E+03  0.95049423588E+02  0.17030815435E+03  0.80328883850E+02 0.  0.
         -6    2    1    2    0  501 -0.83052158713E+01 -0.19635835777E+03  0.14924696016E+04  0.15150174560E+04  0.17084144432E+03 0.  0.
        -24    2    5    5    0    0 -0.34657027454E+02 -0.21089828315E+03  0.13651371622E+04  0.13840920287E+04  0.80200229687E+02 0.  0.
          5    1    3    3  502    0 -0.39478090108E+02  0.90365430633E+02  0.22536968659E+03  0.24604474448E+03  0.47000000000E+01 0. -1.
        -13    1    4    4    0    0  0.27143886108E+02  0.11328976707E+03  0.91493872858E+02  0.14812997889E+03  0.00000000000E+00 0.  1.
         14    1    4    4    0    0  0.20639419871E+02 -0.72968399346E+01  0.35555507295E+01  0.22178175458E+02  0.00000000000E+00 0. -1.
         -5    1    5    5    0  501  0.26351811583E+02  0.14539925377E+02  0.12733243937E+03  0.13092542732E+03  0.47000000000E+01 0.  1.
         11    1    6    6    0    0 -0.51361825764E+02 -0.77225696909E+02  0.61516070551E+03  0.62211296322E+03  0.00000000000E+00 0. -1.
        -12    1    6    6    0    0  0.16704798310E+02 -0.13367258624E+03  0.74997645668E+03  0.76197906544E+03  0.00000000000E+00 0.  1.
</event>
<event>
12    1  0.1081556E+000  0.4664689E+03  0.7818608E-02  0.1022922E+00
          2   -1    0    0  502    0  0.00000000000E+00  0.00000000000E+00  0.57826624907E+03  0.57826624907E+03  0.00000000000E+00 0. -1.
         -2   -1    0    0    0  501 -0.00000000000E+00 -0.00000000000E+00 -0.49332754686E+03  0.49332754686E+03  0.00000000000E+00 0.  1.
          6    2    1    2  502    0  0.39494068429E+03  0.17882539711E+03 -0.21850339378E+03  0.51517253092E+03  0.17234365890E+03 0.  0.
         24    2    3    3    0    0  0.20577177671E+03  0.93786328236E+02 -0.18923462493E+03  0.30566055117E+03  0.80502980158E+02 0.  0.
         -6    2    1    2    0  501 -0.39494068429E+03 -0.17882539711E+03  0.30344209599E+03  0.55642126500E+03  0.17196177416E+03 0.  0.
        -24    2    5    5    0    0 -0.33003600353E+03 -0.19264420792E+03  0.21520366467E+03  0.44591475895E+03  0.80571710282E+02 0.  0.
          5    1    3    3  502    0  0.18916890758E+03  0.85039068875E+02 -0.29268768849E+02  0.20951197975E+03  0.47000000000E+01 0. -1.
        -13    1    4    4    0    0  0.14921301585E+03  0.58519019383E+02 -0.83639873648E+02  0.18078890506E+03  0.00000000000E+00 0.  1.
         14    1    4    4    0    0  0.56558760856E+02  0.35267308854E+02 -0.10559475128E+03  0.12487164611E+03  0.00000000000E+00 0. -1.
         -5    1    5    5    0  501 -0.64904680761E+02  0.13818810811E+02  0.88238431324E+02  0.11050650605E+03  0.47000000000E+01 0.  1.
         13    1    6    6    0    0 -0.30634626106E+03 -0.16150608191E+03  0.21332813146E+03  0.40674456092E+03  0.00000000000E+00 0. -1.
        -14    1    6    6    0    0 -0.23689742463E+02 -0.31138126013E+02  0.18755332038E+01  0.39170198039E+02  0.00000000000E+00 0.  1.
</event>
<event>
12    1  0.1081556E+000  0.4586348E+03  0.7818608E-02  0.1025178E+00
          1   -1    0    0  502    0  0.00000000000E+00  0.00000000000E+00  0.14714764465E+03  0.14714764465E+03  0.00000000000E+00 0. -1.
         -1   -1    0    0    0  501 -0.00000000000E+00 -0.00000000000E+00 -0.14719436997E+04  0.14719436997E+04  0.00000000000E+00 0.  1.
          6    2    1    2  502    0  0.42219530748E+03  0.20144409434E+01 -0.80426741108E+03  0.92744514278E+03  0.18723111045E+03 0.  0.
         24    2    3    3    0    0  0.38519795571E+03  0.40380120088E+02 -0.76473044691E+03  0.86091702159E+03  0.79733571645E+02 0.  0.
         -6    2    1    2    0  501 -0.42219530748E+03 -0.20144409434E+01 -0.52052864395E+03  0.69164620155E+03  0.17079655535E+03 0.  0.
        -24    2    5    5    0    0 -0.28644815384E+03 -0.42492991153E+02 -0.26919338829E+03  0.40310278457E+03  0.78540279426E+02 0.  0.
          5    1    3    3  502    0  0.36997351769E+02 -0.38365679145E+02 -0.39536964170E+02  0.66528121197E+02  0.47000000000E+01 0. -1.
        -11    1    4    4    0    0  0.13759054292E+03 -0.23168773518E+02 -0.28539943024E+03  0.31768031785E+03  0.00000000000E+00 0.  1.
         12    1    4    4    0    0  0.24760741279E+03  0.63548893607E+02 -0.47933101666E+03  0.54323670373E+03  0.00000000000E+00 0. -1.
         -5    1    5    5    0  501 -0.13574715365E+03  0.40478550210E+02 -0.25133525566E+03  0.28854341698E+03  0.47000000000E+01 0.  1.
         13    1    6    6    0    0 -0.25396591027E+03 -0.15110319319E+02 -0.24927454283E+03  0.35618085719E+03  0.00000000000E+00 0. -1.
        -14    1    6    6    0    0 -0.32482243563E+02 -0.27382671834E+02 -0.19918845467E+02  0.46921927373E+02  0.00000000000E+00 0.  1.
</event>
<event>
12    1  0.1081556E+000  0.1449811E+04  0.7818608E-02  0.8918532E-01
         -2   -1    0    0    0  501 -0.00000000000E+00  0.00000000000E+00  0.75774472240E+03  0.75774472240E+03  0.00000000000E+00 0.  1.
          2   -1    0    0  502    0  0.00000000000E+00 -0.00000000000E+00 -0.37829759653E+04  0.37829759653E+04  0.00000000000E+00 0. -1.
          6    2    1    2  502    0 -0.57171512236E+03  0.13212319857E+04 -0.34004400373E+03  0.14891141429E+04  0.17122752402E+03 0.  0.
         24    2    3    3    0    0 -0.50963237134E+03  0.12552508140E+04 -0.33884080054E+03  0.13983875168E+04  0.72765369287E+02 0.  0.
         -6    2    1    2    0  501  0.57171512236E+03 -0.13212319857E+04 -0.26851872391E+04  0.30516065447E+04  0.17192979213E+03 0.  0.
        -24    2    5    5    0    0  0.23372937510E+03 -0.48464666642E+03 -0.11168924887E+04  0.12422752107E+04  0.79290957403E+02 0.  0.
          5    1    3    3  502    0 -0.62082751027E+02  0.65981171672E+02 -0.12032031893E+01  0.90726626126E+02  0.47000000000E+01 0. -1.
        -13    1    4    4    0    0 -0.74652944029E+02  0.20119733684E+03 -0.27404339033E+02  0.21634331097E+03  0.00000000000E+00 0.  1.
         14    1    4    4    0    0 -0.43497942731E+03  0.10540534772E+04 -0.31143646151E+03  0.11820442058E+04  0.00000000000E+00 0. -1.
         -5    1    5    5    0  501  0.33798574727E+03 -0.83658531930E+03 -0.15682947505E+04  0.18093313340E+04  0.47000000000E+01 0.  1.
         11    1    6    6    0    0  0.23916701001E+03 -0.45871958728E+03 -0.10584556169E+04  0.11781140909E+04  0.00000000000E+00 0. -1.
        -12    1    6    6    0    0 -0.54376349170E+01 -0.25927079135E+02 -0.58436871808E+02  0.64161119790E+02  0.00000000000E+00 0.  1.
</event>
<event>
12    1  0.1081556E+000  0.3136497E+03  0.7818608E-02  0.1078610E+00
         -2   -1    0    0    0  501 -0.00000000000E+00  0.00000000000E+00  0.52401457890E+03  0.52401457890E+03  0.00000000000E+00 0.  1.
          2   -1    0    0  502    0  0.00000000000E+00 -0.00000000000E+00 -0.70596024615E+03  0.70596024615E+03  0.00000000000E+00 0. -1.
          6    2    1    2  502    0  0.26196537900E+03  0.13558053336E+01  0.43598500251E+03  0.53670551400E+03  0.17129561681E+03 0.  0.
         24    2    3    3    0    0  0.66696785889E+02 -0.40703487993E+02  0.16697516823E+03  0.20161270812E+03  0.81619495758E+02 0.  0.
         -6    2    1    2    0  501 -0.26196537900E+03 -0.13558053336E+01 -0.61793066976E+03  0.69326931106E+03  0.17365577164E+03 0.  0.
        -24    2    5    5    0    0 -0.24021577758E+03 -0.39595570675E+02 -0.58343456098E+03  0.63716765033E+03  0.79468853465E+02 0.  0.
          5    1    3    3  502    0  0.19526859311E+03  0.42059293327E+02  0.26900983428E+03  0.33509280588E+03  0.47000000000E+01 0. -1.
        -13    1    4    4    0    0  0.42506845035E+02  0.92184190289E+01  0.12409922452E+03  0.13150067928E+03  0.00000000000E+00 0.  1.
         14    1    4    4    0    0  0.24189940854E+02 -0.49921907022E+02  0.42875943705E+02  0.70112028838E+02  0.00000000000E+00 0. -1.
         -5    1    5    5    0  501 -0.21749601418E+02  0.38239765341E+02 -0.34496108783E+02  0.56101660727E+02  0.47000000000E+01 0.  1.
         11    1    6    6    0    0 -0.42372093530E+02  0.12690063637E+02 -0.17276397436E+03  0.17833626345E+03  0.00000000000E+00 0. -1.
        -12    1    6    6    0    0 -0.19784368405E+03 -0.52285634312E+02 -0.41067058662E+03  0.45883138688E+03  0.00000000000E+00 0.  1.
</event>
<event>
12    1  0.1081556E+000  0.4717536E+03  0.7818608E-02  0.1021426E+00
         -4   -1    0    0    0  501 -0.00000000000E+00  0.00000000000E+00  0.11103818139E+04  0.11103818139E+04  0.00000000000E+00 0.  1.
          4   -1    0    0  502    0  0.00000000000E+00 -0.00000000000E+00 -0.28334825388E+03  0.28334825388E+03  0.00000000000E+00 0. -1.
          6    2    1    2  502    0 -0.17392846505E+03  0.40433414709E+03  0.79015222911E+03  0.91998296104E+03  0.16819895952E+03 0.  0.
         24    2    3    3    0    0 -0.12625205955E+03  0.38839973077E+03  0.73878498828E+03  0.84795776618E+03  0.80219579352E+02 0.  0.
         -6    2    1    2    0  501  0.17392846505E+03 -0.40433414709E+03  0.36881330907E+02  0.47374710674E+03  0.17128594547E+03 0.  0.
        -24    2    5    5    0    0  0.14164894601E+03 -0.38565308080E+03  0.69353421641E+02  0.42407340883E+03  0.78966045538E+02 0.  0.
          5    1    3    3  502    0 -0.47676405500E+02  0.15934416321E+02  0.51367240829E+02  0.72025194864E+02  0.47000000000E+01 0. -1.
        -13    1    4    4    0    0 -0.55810537210E+02  0.27078492495E+03  0.44742400137E+03  0.52595392255E+03  0.00000000000E+00 0.  1.
         14    1    4    4    0    0 -0.70441522338E+02  0.11761480581E+03  0.29136098691E+03  0.32200384362E+03  0.00000000000E+00 0. -1.
         -5    1    5    5    0  501  0.32279519034E+02 -0.18681066284E+02 -0.32472090734E+02  0.49673697901E+02  0.47000000000E+01 0.  1.
         13    1    6    6    0    0  0.14379553202E+03 -0.31793209106E+03  0.43873221028E+02  0.35168569643E+03  0.00000000000E+00 0. -1.
        -14    1    6    6    0    0 -0.21465860016E+01 -0.67720989745E+02  0.25480200613E+02  0.72387712402E+02  0.00000000000E+00 0.  1.
</event>
<event>
12    1  0.1081556E+000  0.4331447E+03  0.7818608E-02  0.1032871E+00
          2   -1    0    0  502    0  0.00000000000E+00  0.00000000000E+00  0.29060292035E+04  0.29060292035E+04  0.00000000000E+00 0. -1.
         -2   -1    0    0    0  501 -0.00000000000E+00 -0.00000000000E+00 -0.43278744870E+03  0.43278744870E+03  0.00000000000E+00 0.  1.
          6    2    1    2  502    0 -0.21851718057E+03 -0.33252314782E+03 -0.30357790010E+03  0.52829706708E+03  0.16916514894E+03 0.  0.
         24    2    3    3    0    0 -0.57736632254E+02 -0.74145544230E+02 -0.51638388741E+02  0.13319584190E+03  0.79016002651E+02 0.  0.
         -6    2    1    2    0  501  0.21851718057E+03  0.33252314782E+03  0.27768196549E+04  0.28105195851E+04  0.17312290570E+03 0.  0.
        -24    2    5    5    0    0  0.70220545858E+02  0.23126216529E+03  0.16137677626E+04  0.16336774238E+04  0.79008982525E+02 0.  0.
          5    1    3    3  502    0 -0.16078054831E+03 -0.25837760359E+03 -0.25193951136E+03  0.39510122518E+03  0.47000000000E+01 0. -1.
        -13    1    4    4    0    0 -0.67792968288E+01 -0.71386967888E+02 -0.31811954703E+02  0.78447807565E+02  0.00000000000E+00 0.  1.
         14    1    4    4    0    0 -0.50957335426E+02 -0.27585763426E+01 -0.19826434038E+02  0.54748034337E+02  0.00000000000E+00 0. -1.
         -5    1    5    5    0  501  0.14829663471E+03  0.10126098253E+03  0.11630518923E+04  0.11768421613E+04  0.47000000000E+01 0.  1.
         11    1    6    6    0    0  0.84408972281E+02  0.20852457854E+03  0.13577094964E+04  0.13762203498E+04  0.00000000000E+00 0. -1.
        -12    1    6    6    0    0 -0.14188426424E+02  0.22737586745E+02  0.25605826616E+03  0.25745707402E+03  0.00000000000E+00 0.  1.
</event>
<event>
12    1  0.1081556E+000  0.4849512E+03  0.7818608E-02  0.1017783E+00
          2   -1    0    0  502    0  0.00000000000E+00  0.00000000000E+00  0.30797882537E+03  0.30797882537E+03  0.00000000000E+00 0. -1.
         -2   -1    0    0    0  501 -0.00000000000E+00 -0.00000000000E+00 -0.76761616006E+03  0.76761616006E+03  0.00000000000E+00 0.  1.
          6    2    1    2  502    0  0.25263714125E+03  0.37602519135E+03 -0.19062860824E+03  0.52032466748E+03  0.17081575934E+03 0.  0.
         24    2    3    3    0    0  0.11500772814E+03  0.12228720628E+03 -0.26778348962E+02  0.18837012558E+03  0.81149774407E+02 0.  0.
         -6    2    1    2    0  501 -0.25263714125E+03 -0.37602519135E+03 -0.26900872645E+03  0.55527031795E+03  0.17532530169E+03 0.  0.
        -24    2    5    5    0    0 -0.89876727364E+02 -0.76358719147E+02 -0.89438159543E+02  0.16983728175E+03  0.83288881478E+02 0.  0.
          5    1    3    3  502    0  0.13762941311E+03  0.25373798508E+03 -0.16385025928E+03  0.33195454191E+03  0.47000000000E+01 0. -1.
        -11    1    4    4    0    0  0.19092026326E+02  0.24208661840E+02 -0.40054213758E+02  0.50546066287E+02  0.00000000000E+00 0.  1.
         12    1    4    4    0    0  0.95915701814E+02  0.98078544436E+02  0.13275864796E+02  0.13782405929E+03  0.00000000000E+00 0. -1.
         -5    1    5    5    0  501 -0.16276041389E+03 -0.29966647221E+03 -0.17957056691E+03  0.38543303620E+03  0.47000000000E+01 0.  1.
         11    1    6    6    0    0 -0.27775403147E+02 -0.74150251150E+02 -0.67147561947E+02  0.10381968908E+03  0.00000000000E+00 0. -1.
        -12    1    6    6    0    0 -0.62101324217E+02 -0.22084679975E+01 -0.22290597595E+02  0.66017592667E+02  0.00000000000E+00 0.  1.
</event>
<event>
12    1  0.1081556E+000  0.4585169E+03  0.7818608E-02  0.1025212E+00
         -2   -1    0    0    0  501 -0.00000000000E+00  0.00000000000E+00  0.19476577168E+04  0.19476577168E+04  0.00000000000E+00 0.  1.
          2   -1    0    0  502    0  0.00000000000E+00 -0.00000000000E+00 -0.14032932875E+04  0.14032932875E+04  0.00000000000E+00 0. -1.
          6    2    1    2  502    0  0.34479185942E+03 -0.24997136796E+03  0.18819679949E+04  0.19372283199E+04  0.17228731399E+03 0.  0.
         24    2    3    3    0    0  0.10205265138E+03 -0.10071966762E+03  0.49701299486E+03  0.52325489892E+03  0.78832588964E+02 0.  0.
         -6    2    1    2    0  501 -0.34479185942E+03  0.24997136796E+03 -0.13376035656E+04  0.14137226845E+04  0.16751542817E+03 0.  0.
        -24    2    5    5    0    0 -0.70561364458E+02  0.93162097138E+02 -0.42790507205E+03  0.45072478676E+03  0.79949985686E+02 0.  0.
          5    1    3    3  502    0  0.24273920803E+03 -0.14925170034E+03  0.13849550000E+04  0.14139734210E+04  0.47000000000E+01 0. -1.
        -13    1    4    4    0    0  0.64342784501E+02 -0.10612828078E+03  0.34873092413E+03  0.37015734944E+03  0.00000000000E+00 0.  1.
         14    1    4    4    0    0  0.37709866882E+02  0.54086131623E+01  0.14828207073E+03  0.15309754948E+03  0.00000000000E+00 0. -1.
         -5    1    5    5    0  501 -0.27423049496E+03  0.15680927082E+03 -0.90969849356E+03  0.96299789770E+03  0.47000000000E+01 0.  1.
         11    1    6    6    0    0 -0.22135268898E+02  0.48058498827E+02 -0.31847673045E+03  0.32284209341E+03  0.00000000000E+00 0. -1.
        -12    1    6    6    0    0 -0.48426095560E+02  0.45103598311E+02 -0.10942834160E+03  0.12788269334E+03  0.00000000000E+00 0.  1.
</event>
<event>
12    1  0.1081556E+000  0.4666996E+03  0.7818608E-02  0.1022856E+00
         -2   -1    0    0    0  501 -0.00000000000E+00  0.00000000000E+00  0.28526667007E+04  0.28526667007E+04  0.00000000000E+00 0.  1.
          2   -1    0    0  502    0  0.00000000000E+00 -0.00000000000E+00 -0.11946799828E+04  0.11946799828E+04  0.00000000000E+00 0. -1.
          6    2    1    2  502    0  0.72602782666E+02 -0.42718531188E+03  0.27870183809E+04  0.28259499991E+04  0.17539523191E+03 0.  0.
         24    2    3    3    0    0 -0.19702948897E+02 -0.29010014814E+03  0.18869633888E+04  0.19108359248E+04  0.78209965897E+02 0.  0.
         -6    2    1    2    0  501 -0.72602782666E+02  0.42718531188E+03 -0.11290316630E+04  0.12213966844E+04  0.17128604669E+03 0.  0.
        -24    2    5    5    0    0 -0.16488991675E+02  0.34583142063E+03 -0.98003042178E+03  0.10425373177E+04  0.80951669783E+02 0.  0.
          5    1    3    3  502    0  0.92305731563E+02 -0.13708516374E+03  0.90005499206E+03  0.91511407427E+03  0.47000000000E+01 0. -1.
        -13    1    4    4    0    0  0.67201566697E+01 -0.23480556681E+03  0.16191199573E+04  0.16360709798E+04  0.00000000000E+00 0.  1.
         14    1    4    4    0    0 -0.26423105567E+02 -0.55294581327E+02  0.26784343152E+03  0.27476494507E+03  0.00000000000E+00 0. -1.
         -5    1    5    5    0  501 -0.56113790992E+02  0.81353891243E+02 -0.14900124125E+03  0.17885936670E+03  0.47000000000E+01 0.  1.
         11    1    6    6    0    0 -0.10822236456E+02  0.18428694187E+03 -0.63910988108E+03  0.66523697871E+03  0.00000000000E+00 0. -1.
        -12    1    6    6    0    0 -0.56667552188E+01  0.16154447876E+03 -0.34092054070E+03  0.37730033899E+03  0.00000000000E+00 0.  1.
</event>
<event>
12    1  0.1081556E+000  0.3220435E+03  0.7818608E-02  0.1074713E+00
          1   -1    0    0  502    0  0.00000000000E+00  0.00000000000E+00  0.33817267015E+03  0.33817267015E+03  0.00000000000E+00 0. -1.
         -1   -1    0    0    0  501 -0.00000000000E+00 -0.00000000000E+00 -0.75079171551E+03  0.75079171551E+03  0.00000000000E+00 0.  1.
          6    2    1    2  502    0  0.17681316647E+03  0.20709137415E+03 -0.62511129158E+03  0.70325789607E+03  0.17221442575E+03 0.  0.
         24    2    3    3    0    0  0.81687494486E+02  0.65155282931E+02 -0.15718960591E+03  0.20509372495E+03  0.80229708712E+02 0.  0.
         -6    2    1    2    0  501 -0.17681316647E+03 -0.20709137415E+03  0.21249224622E+03  0.38570648960E+03  0.17165898850E+03 0.  0.
        -24    2    5    5    0    0 -0.92160839522E+02 -0.85408876205E+02  0.18105678232E+03  0.23410528527E+03  0.78964737011E+02 0.  0.
          5    1    3    3  502    0  0.95125671985E+02  0.14193609122E+03 -0.46792168567E+03  0.49816417111E+03  0.47000000000E+01 0. -1.
        -13    1    4    4    0    0  0.22199882042E+01  0.49553857211E+02 -0.46906513418E+02  0.68269569452E+02  0.00000000000E+00 0.  1.
         14    1    4    4    0    0  0.79467506282E+02  0.15601425720E+02 -0.11028309249E+03  0.13682415550E+03  0.00000000000E+00 0. -1.
         -5    1    5    5    0  501 -0.84652326949E+02 -0.12168249795E+03  0.31435463900E+02  0.15160120433E+03  0.47000000000E+01 0.  1.
         13    1    6    6    0    0  0.12807168700E+02 -0.14556592942E+02  0.40557033800E+02  0.44953208549E+02  0.00000000000E+00 0. -1.
        -14    1    6    6    0    0 -0.10496800822E+03 -0.70852283263E+02  0.14049974852E+03  0.18915207672E+03  0.00000000000E+00 0.  1.
</event>
<event>
12    1  0.1081556E+000  0.7177713E+03  0.7818608E-02  0.9687315E-01
          1   -1    0    0  502    0  0.00000000000E+00  0.00000000000E+00  0.38288258585E+04  0.38288258585E+04  0.00000000000E+00 0. -1.
         -1   -1    0    0    0  501 -0.00000000000E+00 -0.00000000000E+00 -0.17403940102E+03  0.17403940102E+03  0.00000000000E+00 0.  1.
          6    2    1    2  502    0  0.67017137555E+03  0.19129613975E+03  0.87432993327E+03  0.11312839732E+04  0.17212411247E+03 0.  0.
         24    2    3    3    0    0  0.44898842931E+03  0.58555453482E+02  0.55562812781E+03  0.72124139455E+03  0.80294346037E+02 0.  0.
         -6    2    1    2    0  501 -0.67017137555E+03 -0.19129613975E+03  0.27804565242E+04  0.28715812863E+04  0.17122124672E+03 0.  0.
        -24    2    5    5    0    0 -0.25716321815E+03 -0.51073490027E+02  0.78886074510E+03  0.83277919517E+03  0.49784441318E+02 0.  0.
          5    1    3    3  502    0  0.22118294624E+03  0.13274068626E+03  0.31870180546E+03  0.41004257864E+03  0.47000000000E+01 0. -1.
        -11    1    4    4    0    0  0.44554761353E+03  0.65749946372E+02  0.53624439287E+03  0.70028121512E+03  0.00000000000E+00 0.  1.
         12    1    4    4    0    0  0.34408157833E+01 -0.71944928906E+01  0.19383734949E+02  0.20960179431E+02  0.00000000000E+00 0. -1.
         -5    1    5    5    0  501 -0.41300815741E+03 -0.14022264972E+03  0.19915957791E+04  0.20388020912E+04  0.47000000000E+01 0. -1.
         11    1    6    6    0    0 -0.18776005365E+03 -0.42538954597E+02  0.50553441180E+03  0.54095142288E+03  0.00000000000E+00 0. -1.
        -12    1    6    6    0    0 -0.69403164498E+02 -0.85345354301E+01  0.28332633330E+03  0.29182777228E+03  0.00000000000E+00 0.  1.
</event>
<event>
12    1  0.1081556E+000  0.6680241E+03  0.7818608E-02  0.9773534E-01
          2   -1    0    0  502    0  0.00000000000E+00  0.00000000000E+00  0.17024562575E+04  0.17024562575E+04  0.00000000000E+00 0. -1.
         -2   -1    0    0    0  501 -0.00000000000E+00 -0.00000000000E+00 -0.26653752961E+03  0.26653752961E+03  0.00000000000E+00 0.  1.
          6    2    1    2  502    0  0.31818958665E+03  0.56152894030E+03  0.84459867563E+03  0.10768287142E+04  0.17220276704E+03 0.  0.
         24    2    3    3    0    0  0.23020911247E+03  0.44627699799E+03  0.55547747848E+03  0.75335270166E+03  0.82617610654E+02 0.  0.
         -6    2    1    2    0  501 -0.31818958665E+03 -0.56152894030E+03  0.59132005222E+03  0.89216507288E+03  0.17245216515E+03 0.  0.
        -24    2    5    5    0    0 -0.24797781172E+03 -0.50395006482E+03  0.55751288616E+03  0.79515973943E+03  0.77457924340E+02 0.  0.
          5    1    3    3  502    0  0.87980474182E+02  0.11525194231E+03  0.28912119715E+03  0.32347601253E+03  0.47000000000E+01 0. -1.
        -13    1    4    4    0    0  0.12112419222E+03  0.30376896173E+03  0.39295099084E+03  0.51123099793E+03  0.00000000000E+00 0.  1.
         14    1    4    4    0    0  0.10908492025E+03  0.14250803627E+03  0.16252648765E+03  0.24212170372E+03  0.00000000000E+00 0. -1.
         -5    1    5    5    0  501 -0.70211774931E+02 -0.57578875477E+02  0.33807166059E+02  0.97005333446E+02  0.47000000000E+01 0.  1.
         11    1    6    6    0    0 -0.20495029010E+03 -0.36073407837E+03  0.44187320022E+03  0.60612343774E+03  0.00000000000E+00 0. -1.
        -12    1    6    6    0    0 -0.43027521619E+02 -0.14321598646E+03  0.11563968594E+03  0.18903630170E+03  0.00000000000E+00 0.  1.
</event>
<event>
12    1  0.1081556E+000  0.1952426E+03  0.7818608E-02  0.1153816E+00
         -2   -1    0    0    0  501 -0.00000000000E+00  0.00000000000E+00  0.43476669650E+02  0.43476669650E+02  0.00000000000E+00 0.  1.
          2   -1    0    0  502    0  0.00000000000E+00 -0.00000000000E+00 -0.16610981554E+04  0.16610981554E+04  0.00000000000E+00 0. -1.
          6    2    1    2  502    0 -0.89980129028E+02 -0.41700566319E+02 -0.21720705376E+03  0.29022788352E+03  0.16497866322E+03 0.  0.
         24    2    3    3    0    0 -0.11925289569E+03 -0.41961541538E+02 -0.13123411103E+03  0.19928614471E+03  0.80687988429E+02 0.  0.
         -6    2    1    2    0  501  0.89980129028E+02  0.41700566319E+02 -0.14004144320E+04  0.14143469415E+04  0.17140982714E+03 0.  0.
        -24    2    5    5    0    0  0.72531005186E+02  0.60035185486E+02 -0.13646638026E+04  0.13702921157E+04  0.80797387448E+02 0.  0.
          5    1    3    3  502    0  0.29272766660E+02  0.26097521857E+00 -0.85972942731E+02  0.90941738810E+02  0.47000000000E+01 0. -1.
        -11    1    4    4    0    0 -0.11510105512E+03 -0.11749458524E+02 -0.12024995013E+03  0.16687226603E+03  0.00000000000E+00 0.  1.
         12    1    4    4    0    0 -0.41518405728E+01 -0.30212083014E+02 -0.10984160899E+02  0.32413878676E+02  0.00000000000E+00 0. -1.
         -5    1    5    5    0  501  0.17449123843E+02 -0.18334619167E+02 -0.35750629353E+02  0.44054825865E+02  0.47000000000E+01 0.  1.
         11    1    6    6    0    0  0.50019113687E+02 -0.16108204309E+01 -0.84823386397E+03  0.84970888806E+03  0.00000000000E+00 0. -1.
        -12    1    6    6    0    0  0.22511891499E+02  0.61646005917E+02 -0.51642993867E+03  0.52058322760E+03  0.00000000000E+00 0.  1.
</event>
<event>
12    1  0.1081556E+000  0.3749316E+03  0.7818608E-02  0.1052823E+00
         -2   -1    0    0    0  501 -0.00000000000E+00  0.00000000000E+00  0.27026992570E+03  0.27026992570E+03  0.00000000000E+00 0.  1.
          2   -1    0    0  502    0  0.00000000000E+00 -0.00000000000E+00 -0.52029142302E+03  0.52029142302E+03  0.00000000000E+00 0. -1.
          6    2    1    2  502    0  0.12800837871E+03 -0.30620349129E+03 -0.13240283115E+03  0.39877132664E+03  0.17703485012E+03 0.  0.
         24    2    3    3    0    0  0.10600114441E+03 -0.25851666792E+03 -0.16746341097E+03  0.33544924723E+03  0.80094277209E+02 0.  0.
         -6    2    1    2    0  501 -0.12800837871E+03  0.30620349129E+03 -0.11761866617E+03  0.39179002209E+03  0.17180962627E+03 0.  0.
        -24    2    5    5    0    0 -0.12533630464E+03  0.31232978602E+03 -0.13593392035E+03  0.37173484812E+03  0.80309912881E+02 0.  0.
          5    1    3    3  502    0  0.22007234296E+02 -0.47686823361E+02  0.35060579816E+02  0.63322079409E+02  0.47000000000E+01 0. -1.
        -13    1    4    4    0    0  0.50898225894E+02 -0.73150534829E+02 -0.91373946392E+02  0.12763552885E+03  0.00000000000E+00 0.  1.
         14    1    4    4    0    0  0.55102918519E+02 -0.18536613310E+03 -0.76089464577E+02  0.20781371838E+03  0.00000000000E+00 0. -1.
         -5    1    5    5    0  501 -0.26720740664E+01 -0.61262947381E+01  0.18315254182E+02  0.20055173966E+02  0.47000000000E+01 0.  1.
         13    1    6    6    0    0 -0.68986288288E+02  0.17265202587E+03 -0.31796906290E+02  0.18862362858E+03  0.00000000000E+00 0. -1.
        -14    1    6    6    0    0 -0.56350016355E+02  0.13967776015E+03 -0.10413701406E+03  0.18311121954E+03  0.00000000000E+00 0.  1.
</event>
<event>
12    1  0.1081556E+000  0.7758139E+03  0.7818608E-02  0.9595701E-01
          2   -1    0    0  502    0  0.00000000000E+00  0.00000000000E+00  0.64407250760E+03  0.64407250760E+03  0.00000000000E+00 0. -1.
         -2   -1    0    0    0  501 -0.00000000000E+00 -0.00000000000E+00 -0.94411867431E+03  0.94411867431E+03  0.00000000000E+00 0.  1.
          6    2    1    2  502    0  0.72446235856E+03  0.21725616293E+03 -0.69916744040E+02  0.77915072075E+03  0.17361320584E+03 0.  0.
         24    2    3    3    0    0  0.72503467625E+03  0.21746592281E+03 -0.82530923356E+02  0.76567559305E+03  0.80504975828E+02 0.  0.
         -6    2    1    2    0  501 -0.72446235856E+03 -0.21725616293E+03 -0.23012942267E+03  0.80904046117E+03  0.17187485950E+03 0.  0.
        -24    2    5    5    0    0 -0.61420426336E+03 -0.20686472420E+03 -0.14401851260E+03  0.66867661829E+03  0.79669295341E+02 0.  0.
          5    1    3    3  502    0 -0.57231768597E+00 -0.20975988166E+00  0.12614179316E+02  0.13475127701E+02  0.47000000000E+01 0. -1.
        -11    1    4    4    0    0  0.73228917608E+02  0.48189539360E+02 -0.13933186585E+02  0.88762828742E+02  0.00000000000E+00 0.  1.
         12    1    4    4    0    0  0.65180575864E+03  0.16927638345E+03 -0.68597736771E+02  0.67691276430E+03  0.00000000000E+00 0. -1.
         -5    1    5    5    0  501 -0.11025809520E+03 -0.10391438725E+02 -0.86110910072E+02  0.14036384288E+03  0.47000000000E+01 0.  1.
         13    1    6    6    0    0 -0.42031714210E+03 -0.11141533469E+03 -0.12094678660E+03  0.45134022858E+03  0.00000000000E+00 0. -1.
        -14    1    6    6    0    0 -0.19388712126E+03 -0.95449389511E+02 -0.23071726001E+02  0.21733638970E+03  0.00000000000E+00 0.  1.
</event>
<event>
12    1  0.1081556E+000  0.3960434E+03  0.7818608E-02  0.1045158E+00
         -1   -1    0    0    0  501 -0.00000000000E+00  0.00000000000E+00  0.16009201407E+04  0.16009201407E+04  0.00000000000E+00 0.  1.
          1   -1    0    0  502    0  0.00000000000E+00 -0.00000000000E+00 -0.98099119960E+02  0.98099119960E+02  0.00000000000E+00 0. -1.
          6    2    1    2  502    0  0.33941829669E+03 -0.10430556860E+03  0.77863005970E+03  0.87289413988E+03  0.17203190929E+03 0.  0.
         24    2    3    3    0    0  0.20633186265E+03 -0.12998913608E+03  0.55079472093E+03  0.60774762161E+03  0.80699032972E+02 0.  0.
         -6    2    1    2    0  501 -0.33941829669E+03  0.10430556860E+03  0.72419096106E+03  0.82612512079E+03  0.17873369956E+03 0.  0.
        -24    2    5    5    0    0 -0.30830829063E+03  0.40832274434E+02  0.64131035866E+03  0.71709312639E+03  0.78881550991E+02 0.  0.
          5    1    3    3  502    0  0.13308643403E+03  0.25683567481E+02  0.22783533876E+03  0.26514651827E+03  0.47000000000E+01 0. -1.
        -13    1    4    4    0    0  0.89625510769E+02 -0.12885357559E+02  0.16997815138E+03  0.19259111237E+03  0.00000000000E+00 0.  1.
         14    1    4    4    0    0  0.11670635188E+03 -0.11710377852E+03  0.38081656956E+03  0.41515650924E+03  0.00000000000E+00 0. -1.
         -5    1    5    5    0  501 -0.31110006054E+02  0.63473294165E+02  0.82880602407E+02  0.10903199441E+03  0.47000000000E+01 0.  1.
         11    1    6    6    0    0 -0.20159159398E+03  0.27849603630E+02  0.32958567383E+03  0.38735189116E+03  0.00000000000E+00 0. -1.
        -12    1    6    6    0    0 -0.10671669665E+03  0.12982670804E+02  0.31172468482E+03  0.32974123523E+03  0.00000000000E+00 0.  1.
</event>
<event>
12    1  0.1081556E+000  0.4720143E+03  0.7818608E-02  0.1021353E+00
          1   -1    0    0  502    0  0.00000000000E+00  0.00000000000E+00  0.26270377962E+04  0.26270377962E+04  0.00000000000E+00 0. -1.
         -1   -1    0    0    0  501 -0.00000000000E+00 -0.00000000000E+00 -0.94957425504E+02  0.94957425504E+02  0.00000000000E+00 0.  1.
          6    2    1    2  502    0  0.35210923486E+03 -0.26298488293E+03  0.17107464174E+04  0.17746452589E+04  0.17196083422E+03 0.  0.
         24    2    3    3    0    0  0.63422161024E+02 -0.85509070916E+02  0.43242449094E+03  0.45216012552E+03  0.78253862698E+02 0.  0.
         -6    2    1    2    0  501 -0.35210923486E+03  0.26298488293E+03  0.82133395337E+03  0.94734996284E+03  0.17245442067E+03 0.  0.
        -24    2    5    5    0    0 -0.35344769430E+03  0.23384716470E+03  0.80579907231E+03  0.91397001935E+03  0.80120423746E+02 0.  0.
          5    1    3    3  502    0  0.28868707383E+03 -0.17747581202E+03  0.12783219264E+04  0.13224851334E+04  0.47000000000E+01 0. -1.
        -11    1    4    4    0    0  0.52543708993E+02 -0.20708358877E+02  0.11641128098E+03  0.12938803585E+03  0.00000000000E+00 0.  1.
         12    1    4    4    0    0  0.10878452031E+02 -0.64800712039E+02  0.31601320996E+03  0.32277208967E+03  0.00000000000E+00 0. -1.
         -5    1    5    5    0  501  0.13384594466E+01  0.29137718230E+02  0.15534881066E+02  0.33379943486E+02  0.47000000000E+01 0.  1.
         11    1    6    6    0    0 -0.61586893045E+02  0.79736555465E+02  0.17014818511E+03  0.19774040702E+03  0.00000000000E+00 0. -1.
        -12    1    6    6    0    0 -0.29186080126E+03  0.15411060924E+03  0.63565088720E+03  0.71622961233E+03  0.00000000000E+00 0.  1.
</event>
<event>
12    1  0.1081556E+000  0.7469815E+03  0.7818608E-02  0.9640098E-01
          2   -1    0    0  502    0  0.00000000000E+00  0.00000000000E+00  0.10102455351E+04  0.10102455351E+04  0.00000000000E+00 0. -1.
         -2   -1    0    0    0  501 -0.00000000000E+00 -0.00000000000E+00 -0.17666128302E+04  0.17666128302E+04  0.00000000000E+00 0.  1.
          6    2    1    2  502    0 -0.70942744843E+03 -0.15872343191E+03 -0.15292491602E+04  0.17018306847E+04  0.17071688038E+03 0.  0.
         24    2    3    3    0    0 -0.43415818928E+03 -0.12416156693E+03 -0.80932229897E+03  0.93028388576E+03  0.80722341898E+02 0.  0.
         -6    2    1    2    0  501  0.70942744843E+03  0.15872343191E+03  0.77288186509E+03  0.10750276806E+04  0.17279381972E+03 0.  0.
        -24    2    5    5    0    0  0.69076085805E+03  0.12598711756E+03  0.71187236573E+03  0.10031642205E+04  0.80949808280E+02 0.  0.
          5    1    3    3  502    0 -0.27526925915E+03 -0.34561864970E+02 -0.71992686120E+03  0.77154679898E+03  0.47000000000E+01 0. -1.
        -13    1    4    4    0    0 -0.16818704615E+03 -0.24722908199E+02 -0.24033765347E+03  0.29438120245E+03  0.00000000000E+00 0.  1.
         14    1    4    4    0    0 -0.26597114314E+03 -0.99438658735E+02 -0.56898464550E+03  0.63590268332E+03  0.00000000000E+00 0. -1.
         -5    1    5    5    0  501  0.18666590388E+02  0.32736314346E+02  0.61009499365E+02  0.71863460023E+02  0.47000000000E+01 0.  1.
         11    1    6    6    0    0  0.46064935212E+03  0.52032187404E+02  0.43616355417E+03  0.63650908880E+03  0.00000000000E+00 0. -1.
        -12    1    6    6    0    0  0.23011150592E+03  0.73954930155E+02  0.27570881156E+03  0.36665513173E+03  0.00000000000E+00 0.  1.
</event>
<event>
12    1  0.1081556E+000  0.6440461E+03  0.7818608E-02  0.9818016E-01
         -1   -1    0    0    0  501 -0.00000000000E+00  0.00000000000E+00  0.42746856583E+03  0.42746856583E+03  0.00000000000E+00 0.  1.
          1   -1    0    0  502    0  0.00000000000E+00 -0.00000000000E+00 -0.14347874655E+04  0.14347874655E+04  0.00000000000E+00 0. -1.
          6    2    1    2  502    0 -0.56148070772E+03  0.26474044400E+03  0.26072359999E+02  0.64462395548E+03  0.17179111791E+03 0.  0.
         24    2    3    3    0    0 -0.45472558897E+03  0.14941547402E+03  0.39194559143E+02  0.48685581487E+03  0.79950146126E+02 0.  0.
         -6    2    1    2    0  501  0.56148070772E+03 -0.26474044400E+03 -0.10333912597E+04  0.12176320759E+04  0.17141262727E+03 0.  0.
        -24    2    5    5    0    0  0.37286947129E+03 -0.14341355446E+03 -0.54397069229E+03  0.67925581858E+03  0.76715466381E+02 0.  0.
          5    1    3    3  502    0 -0.10675511875E+03  0.11532496999E+03 -0.13122199144E+02  0.15776814061E+03  0.47000000000E+01 0. -1.
        -11    1    4    4    0    0 -0.39518888953E+03  0.12385481159E+03  0.60745208196E+02  0.41857407120E+03  0.00000000000E+00 0.  1.
         12    1    4    4    0    0 -0.59536699437E+02  0.25560662425E+02 -0.21550649053E+02  0.68281743666E+02  0.00000000000E+00 0. -1.
         -5    1    5    5    0  501  0.18861123643E+03 -0.12132688954E+03 -0.48942056743E+03  0.53837625733E+03  0.47000000000E+01 0.  1.
         11    1    6    6    0    0  0.16849407031E+03 -0.34367661256E+02 -0.27436641803E+03  0.32380290179E+03  0.00000000000E+00 0. -1.
        -12    1    6    6    0    0  0.20437540098E+03 -0.10904589320E+03 -0.26960427426E+03  0.35545291678E+03  0.00000000000E+00 0.  1.
</event>
<event>
12    1  0.1081556E+000  0.6154330E+03  0.7818608E-02  0.9873895E-01
          1   -1    0    0  502    0  0.00000000000E+00  0.00000000000E+00  0.11728541192E+04  0.11728541192E+04  0.00000000000E+00 0. -1.
         -1   -1    0    0    0  501 -0.00000000000E+00 -0.00000000000E+00 -0.14651908593E+04  0.14651908593E+04  0.00000000000E+00 0.  1.
          6    2    1    2  502    0  0.55031877806E+03 -0.21551541666E+03 -0.13107990876E+04  0.14481244369E+04  0.17196652089E+03 0.  0.
         24    2    3    3    0    0  0.41492358033E+03 -0.10930384080E+03 -0.10418766587E+04  0.11288218826E+04  0.67992378382E+02 0.  0.
         -6    2    1    2    0  501 -0.55031877806E+03  0.21551541666E+03  0.10184623475E+04  0.11899205416E+04  0.17131167424E+03 0.  0.
        -24    2    5    5    0    0 -0.25542317080E+03  0.16777017296E+03  0.49263476841E+03  0.58513978759E+03  0.79446389865E+02 0.  0.
          5    1    3    3  502    0  0.13539519773E+03 -0.10621157586E+03 -0.26892242897E+03  0.31930255435E+03  0.47000000000E+01 0. -1.
        -13    1    4    4    0    0  0.12899993997E+03 -0.18111448080E+02 -0.24836820823E+03  0.28045637080E+03  0.00000000000E+00 0.  1.
         14    1    4    4    0    0  0.28592364036E+03 -0.91192392720E+02 -0.79350845044E+03  0.84836551175E+03  0.00000000000E+00 0. -1.
         -5    1    5    5    0  501 -0.29489560726E+03  0.47745243697E+02  0.52582757908E+03  0.60478075400E+03  0.47000000000E+01 0.  1.
         11    1    6    6    0    0 -0.12609892283E+03  0.38193727817E+02  0.22849277188E+03  0.26375868893E+03  0.00000000000E+00 0. -1.
        -12    1    6    6    0    0 -0.12932424797E+03  0.12957644515E+03  0.26414199653E+03  0.32138109867E+03  0.00000000000E+00 0.  1.
</event>
<event>
12    1  0.1081556E+000  0.2168366E+03  0.7818608E-02  0.1136264E+00
         -2   -1    0    0    0  501 -0.00000000000E+00  0.00000000000E+00  0.48260336787E+03  0.48260336787E+03  0.00000000000E+00 0.  1.
          2   -1    0    0  502    0  0.00000000000E+00 -0.00000000000E+00 -0.97438870243E+02  0.97438870243E+02  0.00000000000E+00 0. -1.
          6    2    1    2  502    0 -0.68157507073E+02  0.11575928781E+03  0.18861322408E+03  0.28657822407E+03  0.16883859667E+03 0.  0.
         24    2    3    3    0    0 -0.17142273502E+02  0.14020693882E+03  0.16742476430E+03  0.22598711478E+03  0.55563307271E+02 0.  0.
         -6    2    1    2    0  501  0.68157507073E+02 -0.11575928781E+03  0.19655127355E+03  0.29346401405E+03  0.17158981883E+03 0.  0.
        -24    2    5    5    0    0  0.34217826665E+01 -0.71210506197E+02  0.18501296929E+03  0.21389938357E+03  0.80252742626E+02 0.  0.
          5    1    3    3  502    0 -0.51015233570E+02 -0.24447651007E+02  0.21188459788E+02  0.60591109283E+02  0.47000000000E+01 0. -1.
        -13    1    4    4    0    0  0.15284522391E+01  0.34789256601E+02  0.81784909430E+02  0.88889819168E+02  0.00000000000E+00 0.  1.
         14    1    4    4    0    0 -0.18670725742E+02  0.10541768222E+03  0.85639854866E+02  0.13709729562E+03  0.00000000000E+00 0. -1.
         -5    1    5    5    0  501  0.64735724406E+02 -0.44548781615E+02  0.11538304257E+02  0.79564630476E+02  0.47000000000E+01 0.  1.
         11    1    6    6    0    0 -0.68148439782E+00 -0.10536206966E+02 -0.68791987655E+01  0.12601565533E+02  0.00000000000E+00 0. -1.
        -12    1    6    6    0    0  0.41032670643E+01 -0.60674299231E+02  0.19189216805E+03  0.20129781804E+03  0.00000000000E+00 0.  1.
</event>
<event>
12    1  0.1081556E+000  0.2019637E+03  0.7818608E-02  0.1148093E+00
          2   -1    0    0  502    0  0.00000000000E+00  0.00000000000E+00  0.16621881279E+04  0.16621881279E+04  0.00000000000E+00 0. -1.
         -2   -1    0    0    0  501 -0.00000000000E+00 -0.00000000000E+00 -0.78689716066E+02  0.78689716066E+02  0.00000000000E+00 0.  1.
          6    2    1    2  502    0 -0.95346449188E+02 -0.44013737286E+02  0.70863210472E+02  0.21494622204E+03  0.17364368497E+03 0.  0.
         24    2    3    3    0    0  0.16594979581E+02 -0.39057979844E+02  0.28010736001E+02  0.94888454386E+02  0.80114282794E+02 0.  0.
         -6    2    1    2    0  501  0.95346449188E+02  0.44013737286E+02  0.15126352014E+04  0.15259316220E+04  0.17138817912E+03 0.  0.
        -24    2    5    5    0    0  0.39615563650E+02 -0.20826573199E+02  0.11314774952E+04  0.11352738633E+04  0.81254435783E+02 0.  0.
          5    1    3    3  502    0 -0.11194142877E+03 -0.49557574416E+01  0.42852474472E+02  0.12005776766E+03  0.47000000000E+01 0. -1.
        -11    1    4    4    0    0 -0.17542591958E+02  0.84846894241E+01 -0.12996652674E+02  0.23423182276E+02  0.00000000000E+00 0.  1.
         12    1    4    4    0    0  0.34137571539E+02 -0.47542669268E+02  0.41007388675E+02  0.71465272109E+02  0.00000000000E+00 0. -1.
         -5    1    5    5    0  501  0.55730885538E+02  0.64840310485E+02  0.38115770615E+03  0.39065775869E+03  0.47000000000E+01 0.  1.
         11    1    6    6    0    0 -0.16099971073E+02  0.10780483083E+02  0.53812574912E+03  0.53847446528E+03  0.00000000000E+00 0. -1.
        -12    1    6    6    0    0  0.55715534723E+02 -0.31607056282E+02  0.59335174612E+03  0.59679939799E+03  0.00000000000E+00 0.  1.
</event>
<event>
12    1  0.1081556E+000  0.2068360E+03  0.7818608E-02  0.1144096E+00
         -1   -1    0    0    0  501 -0.00000000000E+00  0.00000000000E+00  0.92680367865E+03  0.92680367865E+03  0.00000000000E+00 0.  1.
          1   -1    0    0  502    0  0.00000000000E+00 -0.00000000000E+00 -0.89084853819E+02  0.89084853819E+02  0.00000000000E+00 0. -1.
          6    2    1    2  502    0  0.11202428440E+03  0.25484545882E+02  0.77248662600E+03  0.79995647518E+03  0.17319316515E+03 0.  0.
         24    2    3    3    0    0  0.65427698050E+02  0.66484662055E+02  0.66009892267E+03  0.67148337587E+03  0.80363812757E+02 0.  0.
         -6    2    1    2    0  501 -0.11202428440E+03 -0.25484545882E+02  0.65232198828E+02  0.21593205729E+03  0.17079962303E+03 0.  0.
        -24    2    5    5    0    0 -0.13213970190E+03 -0.59718263945E+02  0.47521436846E+02  0.17220176386E+03  0.79799678241E+02 0.  0.
          5    1    3    3  502    0  0.46596586346E+02 -0.41000116173E+02  0.11238770333E+03  0.12847309930E+03  0.47000000000E+01 0. -1.
        -11    1    4    4    0    0  0.70284606393E+02  0.16446914754E+02  0.42280946665E+03  0.42892688420E+03  0.00000000000E+00 0.  1.
         12    1    4    4    0    0 -0.48569083431E+01  0.50037747301E+02  0.23728945603E+03  0.24255649168E+03  0.00000000000E+00 0. -1.
         -5    1    5    5    0  501  0.20115417506E+02  0.34233718063E+02  0.17710761982E+02  0.43730293435E+02  0.47000000000E+01 0.  1.
         13    1    6    6    0    0 -0.58899474589E+00 -0.30761233769E+02  0.72322150324E+01  0.31605463960E+02  0.00000000000E+00 0. -1.
        -14    1    6    6    0    0 -0.13155070716E+03 -0.28957030176E+02  0.40289221813E+02  0.14059629990E+03  0.00000000000E+00 0.  1.
</event>
<event>
12    1  0.1081556E+000  0.2682991E+03  0.7818608E-02  0.1102257E+00
         -1   -1    0    0    0  501 -0.00000000000E+00  0.00000000000E+00  0.40030002975E+03  0.40030002975E+03  0.00000000000E+00 0.  1.
          1   -1    0    0  502    0  0.00000000000E+00 -0.00000000000E+00 -0.26355885031E+03  0.26355885031E+03  0.00000000000E+00 0. -1.
          6    2    1    2  502    0  0.20575365356E+03 -0.85021379102E+01  0.25541037700E+03  0.37021603307E+03  0.17151850676E+03 0.  0.
         24    2    3    3    0    0  0.60999406828E+02  0.33475587558E+02  0.15402537566E+03  0.18851041984E+03  0.83491433367E+02 0.  0.
         -6    2    1    2    0  501 -0.20575365356E+03  0.85021379102E+01 -0.11866919757E+03  0.29364284699E+03  0.17244387735E+03 0.  0.
        -24    2    5    5    0    0 -0.18232607037E+03 -0.27882778231E+02 -0.14034912829E+03  0.24501339940E+03  0.79457175977E+02 0.  0.
          5    1    3    3  502    0  0.14475424673E+03 -0.41977725468E+02  0.10138500134E+03  0.18170561323E+03  0.47000000000E+01 0. -1.
        -13    1    4    4    0    0  0.71437278092E+02  0.24373175115E+02  0.68685461841E+02  0.10205404958E+03  0.00000000000E+00 0.  1.
         14    1    4    4    0    0 -0.10437871265E+02  0.91024124436E+01  0.85339913819E+02  0.86456370266E+02  0.00000000000E+00 0. -1.
         -5    1    5    5    0  501 -0.23427583184E+02  0.36384916141E+02  0.21679930727E+02  0.48629447589E+02  0.47000000000E+01 0.  1.
         13    1    6    6    0    0 -0.98469768136E+02 -0.51072707139E+02 -0.99016179636E+02  0.14869068727E+03  0.00000000000E+00 0. -1.
        -14    1    6    6    0    0 -0.83856302239E+02  0.23189928908E+02 -0.41332948658E+02  0.96322712133E+02  0.00000000000E+00 0.  1.
</event>
<event>
12    1  0.1081556E+000  0.4813566E+03  0.7818608E-02  0.1018763E+00
          2   -1    0    0  502    0  0.00000000000E+00  0.00000000000E+00  0.23093902295E+04  0.23093902295E+04  0.00000000000E+00 0. -1.
         -2   -1    0    0    0  501 -0.00000000000E+00 -0.00000000000E+00 -0.10033979164E+03  0.10033979164E+03  0.00000000000E+00 0.  1.
          6    2    1    2  502    0  0.17900498166E+03 -0.41210201477E+03  0.10929762858E+04  0.11941936987E+04  0.17213533843E+03 0.  0.
         24    2    3    3    0    0  0.19683259866E+03 -0.37378325530E+03  0.10457465117E+04  0.11306414147E+04  0.79418183454E+02 0.  0.
         -6    2    1    2    0  501 -0.17900498166E+03  0.41210201477E+03  0.11160741521E+04  0.12155363224E+04  0.17330950391E+03 0.  0.
        -24    2    5    5    0    0 -0.42471732465E+02  0.21416173508E+03  0.66002219723E+03  0.69995203447E+03  0.81452150924E+02 0.  0.
          5    1    3    3  502    0 -0.17827616997E+02 -0.38318759462E+02  0.47229774064E+02  0.63552284086E+02  0.47000000000E+01 0. -1.
        -11    1    4    4    0    0  0.10308474028E+03 -0.27442564397E+03  0.70248131618E+03  0.76119373179E+03  0.00000000000E+00 0.  1.
         12    1    4    4    0    0  0.93747858387E+02 -0.99357611337E+02  0.34326519557E+03  0.36944768287E+03  0.00000000000E+00 0. -1.
         -5    1    5    5    0  501 -0.13653324920E+03  0.19794027968E+03  0.45605195483E+03  0.51558428793E+03  0.47000000000E+01 0.  1.
         13    1    6    6    0    0 -0.50094534385E+02  0.57911268609E+02  0.21224789697E+03  0.22563764574E+03  0.00000000000E+00 0. -1.
        -14    1    6    6    0    0  0.76228019202E+01  0.15625046648E+03  0.44777430026E+03  0.47431438873E+03  0.00000000000E+00 0.  1.
</event>
<event>
12    1  0.1081556E+000  0.3796458E+03  0.7818608E-02  0.1051065E+00
         -1   -1    0    0    0  501 -0.00000000000E+00  0.00000000000E+00  0.77912982170E+02  0.77912982170E+02  0.00000000000E+00 0.  1.
          1   -1    0    0  502    0  0.00000000000E+00 -0.00000000000E+00 -0.19083811691E+04  0.19083811691E+04  0.00000000000E+00 0. -1.
          6    2    1    2  502    0 -0.17548596519E+03 -0.29061895362E+03 -0.74413001303E+03  0.83591282241E+03  0.17252846198E+03 0.  0.
         24    2    3    3    0    0 -0.17321951813E+03 -0.30783527046E+03 -0.70345571724E+03  0.79143781048E+03  0.82196755046E+02 0.  0.
         -6    2    1    2    0  501  0.17548596519E+03  0.29061895362E+03 -0.10863381739E+04  0.11503813288E+04  0.16730772107E+03 0.  0.
        -24    2    5    5    0    0  0.13366699996E+03  0.28998975733E+03 -0.87112280692E+03  0.93108936383E+03  0.78176290968E+02 0.  0.
          5    1    3    3  502    0 -0.22664470612E+01  0.17216316844E+02 -0.40674295787E+02  0.44475011925E+02  0.47000000000E+01 0. -1.
        -13    1    4    4    0    0 -0.83794117429E+02 -0.20161260886E+03 -0.49449279173E+03  0.54054807301E+03  0.00000000000E+00 0.  1.
         14    1    4    4    0    0 -0.89425400704E+02 -0.10622266160E+03 -0.20896292552E+03  0.25088973747E+03  0.00000000000E+00 0. -1.
         -5    1    5    5    0  501  0.41818965234E+02  0.62919628672E+00 -0.21521536694E+03  0.21929196499E+03  0.47000000000E+01 0.  1.
         13    1    6    6    0    0  0.84716824140E+02  0.20916850926E+03 -0.70173074042E+03  0.73712579497E+03  0.00000000000E+00 0. -1.
        -14    1    6    6    0    0  0.48950175821E+02  0.80821248075E+02 -0.16939206650E+03  0.19396356886E+03  0.00000000000E+00 0.  1.
</event>
<event>
12    1  0.1081556E+000  0.6280374E+03  0.7818608E-02  0.9848886E-01
          1   -1    0    0  502    0  0.00000000000E+00  0.00000000000E+00  0.44376551031E+03  0.44376551031E+03  0.00000000000E+00 0. -1.
         -1   -1    0    0    0  501 -0.00000000000E+00 -0.00000000000E+00 -0.15560644854E+04  0.15560644854E+04  0.00000000000E+00 0.  1.
          6    2    1    2  502    0 -0.58375398196E+03  0.15339315826E+03 -0.12106495856E+04  0.13636102094E+04  0.17164559883E+03 0.  0.
         24    2    3    3    0    0 -0.33299602597E+03  0.14018572329E+03 -0.62449415377E+03  0.72591571428E+03  0.80139165371E+02 0.  0.
         -6    2    1    2    0  501  0.58375398196E+03 -0.15339315826E+03  0.98350610531E+02  0.63621978630E+03  0.17551239678E+03 0.  0.
        -24    2    5    5    0    0  0.21041120629E+03  0.24787186988E+01  0.35848695483E+02  0.22681845562E+03  0.76697216791E+02 0.  0.
          5    1    3    3  502    0 -0.25075795599E+03  0.13207434970E+02 -0.58615543181E+03  0.63769449509E+03  0.47000000000E+01 0. -1.
        -13    1    4    4    0    0 -0.58992820662E+02 -0.56612866650E+01 -0.87948351396E+02  0.10605241897E+03  0.00000000000E+00 0.  1.
         14    1    4    4    0    0 -0.27400320531E+03  0.14584700995E+03 -0.53654580237E+03  0.61986329531E+03  0.00000000000E+00 0. -1.
         -5    1    5    5    0  501  0.37334277567E+03 -0.15587187696E+03  0.62501915049E+02  0.40940133067E+03  0.47000000000E+01 0.  1.
         13    1    6    6    0    0  0.12725910037E+03 -0.33905574573E+02  0.82729800014E+01  0.13195798124E+03  0.00000000000E+00 0. -1.
        -14    1    6    6    0    0  0.83152105917E+02  0.36384293272E+02  0.27575715481E+02  0.94860474380E+02  0.00000000000E+00 0.  1.
</event>
<event>
12    1  0.1512008E+000  0.5615683E+03  0.7818608E-02  0.9988512E-01
         -2   -1    0    0    0  501 -0.00000000000E+00  0.00000000000E+00  0.72008436439E+03  0.72008436439E+03  0.00000000000E+00 0.  1.
          2   -1    0    0  502    0  0.00000000000E+00 -0.00000000000E+00 -0.85813648685E+03  0.85813648685E+03  0.00000000000E+00 0. -1.
          6    2    1    2  502    0 -0.25771407632E+03 -0.46849757717E+03  0.48316615410E+03  0.74068925698E+03  0.17106875220E+03 0.  0.
         24    2    3    3    0    0 -0.41827383153E+02 -0.15366408863E+03  0.11415903610E+03  0.20973207139E+03  0.74786857994E+02 0.  0.
         -6    2    1    2    0  501  0.25771407632E+03  0.46849757717E+03 -0.62121827656E+03  0.83753159426E+03  0.17216416378E+03 0.  0.
        -24    2    5    5    0    0  0.21260424159E+03  0.42479115961E+03 -0.60204617663E+03  0.77169233893E+03  0.86031240531E+02 0.  0.
          5    1    3    3  502    0 -0.21588669317E+03 -0.31483348854E+03  0.36900711800E+03  0.53095718559E+03  0.47000000000E+01 0. -1.
        -11    1    4    4    0    0 -0.53730313875E+02 -0.11570599195E+03  0.11221661692E+03  0.16990406798E+03  0.00000000000E+00 0.  1.
         12    1    4    4    0    0  0.11902930722E+02 -0.37958096678E+02  0.19424191814E+01  0.39828003408E+02  0.00000000000E+00 0. -1.
         -5    1    5    5    0  501  0.45109834727E+02  0.43706417566E+02 -0.19172099931E+02  0.65839255322E+02  0.47000000000E+01 0.  1.
         11    1    6    6    0    0  0.11375952770E+03  0.13516020333E+03 -0.21467236328E+03  0.27801750712E+03  0.00000000000E+00 0. -1.
        -12    1    6    6    0    0  0.98844713892E+02  0.28963095628E+03 -0.38737381335E+03  0.49367483181E+03  0.00000000000E+00 0.  1.
</event>
<event>
12    1  0.1081556E+000  0.3405343E+03  0.7818608E-02  0.1066569E+00
         -2   -1    0    0    0  501 -0.00000000000E+00  0.00000000000E+00  0.33801501463E+03  0.33801501463E+03  0.00000000000E+00 0.  1.
          2   -1    0    0  502    0  0.00000000000E+00 -0.00000000000E+00 -0.82114236791E+03  0.82114236791E+03  0.00000000000E+00 0. -1.
          6    2    1    2  502    0 -0.21985796703E+03 -0.19560664563E+03  0.20077566213E+03  0.39499941869E+03  0.17062880407E+03 0.  0.
         24    2    3    3    0    0 -0.14278898286E+03 -0.16201412634E+03  0.72344034706E+02  0.24142579271E+03  0.80096711971E+02 0.  0.
         -6    2    1    2    0  501  0.21985796703E+03  0.19560664563E+03 -0.68390301541E+03  0.76415796385E+03  0.17208885423E+03 0.  0.
        -24    2    5    5    0    0  0.23402446408E+03  0.13150484971E+03 -0.54880605414E+03  0.61388152251E+03  0.60012193198E+02 0.  0.
          5    1    3    3  502    0 -0.77068984171E+02 -0.33592519289E+02  0.12843162742E+03  0.15357362598E+03  0.47000000000E+01 0. -1.
        -13    1    4    4    0    0 -0.23580592068E+02 -0.78920184082E+02  0.88269286400E+01  0.82839329108E+02  0.00000000000E+00 0.  1.
         14    1    4    4    0    0 -0.11920839079E+03 -0.83093942259E+02  0.63517106066E+02  0.15858646360E+03  0.00000000000E+00 0. -1.
         -5    1    5    5    0  501 -0.14166497047E+02  0.64101795917E+02 -0.13509696127E+03  0.15027644134E+03  0.47000000000E+01 0.  1.
         11    1    6    6    0    0  0.63020097923E+02  0.14752550555E+02 -0.17457733614E+03  0.18618919621E+03  0.00000000000E+00 0. -1.
        -12    1    6    6    0    0  0.17100436616E+03  0.11675229916E+03 -0.37422871800E+03  0.42769232630E+03  0.00000000000E+00 0.  1.
</event>
<event>
12    1  0.1081556E+000  0.9259633E+03  0.7818608E-02  0.9393696E-01
         -2   -1    0    0    0  501 -0.00000000000E+00  0.00000000000E+00  0.38470102727E+03  0.38470102727E+03  0.00000000000E+00 0.  1.
          2   -1    0    0  502    0  0.00000000000E+00 -0.00000000000E+00 -0.23110012079E+04  0.23110012079E+04  0.00000000000E+00 0. -1.
          6    2    1    2  502    0  0.86569798816E+03 -0.27765658655E+03 -0.12180666429E+04  0.15304620882E+04  0.17916938877E+03 0.  0.
         24    2    3    3    0    0  0.56301628086E+03 -0.10901675345E+03 -0.72795023599E+03  0.93021897773E+03  0.80770139394E+02 0.  0.
         -6    2    1    2    0  501 -0.86569798816E+03  0.27765658655E+03 -0.70823353769E+03  0.11652401470E+04  0.17223144188E+03 0.  0.
        -24    2    5    5    0    0 -0.75950697730E+03  0.18858947124E+03 -0.60277358700E+03  0.99101795264E+03  0.79773103490E+02 0.  0.
          5    1    3    3  502    0  0.30268170730E+03 -0.16863983309E+03 -0.49011640695E+03  0.60024311042E+03  0.47000000000E+01 0. -1.
        -11    1    4    4    0    0  0.25277731440E+03 -0.81442477064E+02 -0.37467155491E+03  0.45924723386E+03  0.00000000000E+00 0.  1.
         12    1    4    4    0    0  0.31023896646E+03 -0.27574276389E+02 -0.35327868107E+03  0.47097174388E+03  0.00000000000E+00 0. -1.
         -5    1    5    5    0  501 -0.10619101086E+03  0.89067115307E+02 -0.10545995069E+03  0.17422219439E+03  0.47000000000E+01 0.  1.
         13    1    6    6    0    0 -0.58939154670E+03  0.11823605240E+03 -0.43580840590E+03  0.74248981547E+03  0.00000000000E+00 0. -1.
        -14    1    6    6    0    0 -0.17011543059E+03  0.70353418836E+02 -0.16696518109E+03  0.24852813717E+03  0.00000000000E+00 0.  1.
</event>
<event>
12    1  0.1081556E+000  0.4129347E+03  0.7818608E-02  0.1039391E+00
          1   -1    0    0  502    0  0.00000000000E+00  0.00000000000E+00  0.13413911625E+04  0.13413911625E+04  0.00000000000E+00 0. -1.
         -1   -1    0    0    0  501 -0.00000000000E+00 -0.00000000000E+00 -0.16769228149E+03  0.16769228149E+03  0.00000000000E+00 0.  1.
          6    2    1    2  502    0 -0.34874579525E+03  0.13899987688E+03  0.21610024013E+03  0.46639355979E+03  0.17285555631E+03 0.  0.
         24    2    3    3    0    0 -0.73188956012E+02  0.54760192777E+02  0.35891282223E+02  0.12650349735E+03  0.79747405650E+02 0.  0.
         -6    2    1    2    0  501  0.34874579525E+03 -0.13899987688E+03  0.95759864085E+03  0.10426898842E+04  0.17106268478E+03 0.  0.
        -24    2    5    5    0    0  0.32978099348E+03 -0.13899208686E+03  0.75679136689E+03  0.84093430174E+03  0.79768558849E+02 0.  0.
          5    1    3    3  502    0 -0.27555683924E+03  0.84239684099E+02  0.18020895791E+03  0.33989006243E+03  0.47000000000E+01 0. -1.
        -13    1    4    4    0    0 -0.85218340636E+02  0.60302319234E+02  0.41203687812E+02  0.11223314651E+03  0.00000000000E+00 0.  1.
         14    1    4    4    0    0  0.12029384624E+02 -0.55421264574E+01 -0.53124055898E+01  0.14270350845E+02  0.00000000000E+00 0. -1.
         -5    1    5    5    0  501  0.18964801778E+02 -0.77900157387E-02  0.20080727397E+03  0.20175558244E+03  0.47000000000E+01 0.  1.
         11    1    6    6    0    0  0.19041646965E+03 -0.11318656681E+03  0.51578219741E+03  0.56133849502E+03  0.00000000000E+00 0. -1.
        -12    1    6    6    0    0  0.13936452383E+03 -0.25805520052E+02  0.24100916948E+03  0.27959580673E+03  0.00000000000E+00 0.  1.
</event>
<event>
12    1  0.1081556E+000  0.1874192E+04  0.7818608E-02  0.8667810E-01
          2   -1    0    0  502    0  0.00000000000E+00  0.00000000000E+00  0.10453464578E+04  0.10453464578E+04  0.00000000000E+00 0. -1.
         -2   -1    0    0    0  501 -0.00000000000E+00 -0.00000000000E+00 -0.40277855403E+04  0.40277855403E+04  0.00000000000E+00 0.  1.
          6    2    1    2  502    0  0.90990968854E+03  0.16293230129E+04 -0.25238789343E+04  0.31436491461E+04  0.17302010545E+03 0.  0.
         24    2    3    3    0    0  0.24189145612E+03  0.51214669029E+03 -0.75757075332E+03  0.94952107896E+03  0.82892244468E+02 0.  0.
         -6    2    1    2    0  501 -0.90990968854E+03 -0.16293230129E+04 -0.45856014815E+03  0.19294828519E+04  0.17319799274E+03 0.  0.
        -24    2    5    5    0    0 -0.33125444073E+03 -0.50675477172E+03 -0.12932122886E+03  0.62433086540E+03  0.80840250439E+02 0.  0.
          5    1    3    3  502    0  0.66801823242E+03  0.11171763226E+04 -0.17663081810E+04  0.21941280671E+04  0.47000000000E+01 0. -1.
        -13    1    4    4    0    0  0.21772447790E+03  0.37966923589E+03 -0.57173867355E+03  0.72002624105E+03  0.00000000000E+00 0.  1.
         14    1    4    4    0    0  0.24166978216E+02  0.13247745440E+03 -0.18583207977E+03  0.22949483791E+03  0.00000000000E+00 0. -1.
         -5    1    5    5    0  501 -0.57865524781E+03 -0.11225682412E+04 -0.32923891929E+03  0.13051519865E+04  0.47000000000E+01 0.  1.
         13    1    6    6    0    0 -0.16534383402E+03 -0.26444817421E+03 -0.10736630950E+03  0.32984685038E+03  0.00000000000E+00 0. -1.
        -14    1    6    6    0    0 -0.16591060671E+03 -0.24230659751E+03 -0.21954919359E+02  0.29448401502E+03  0.00000000000E+00 0.  1.
</event>
<event>
12    1  0.1081556E+000  0.3461839E+03  0.7818608E-02  0.1064192E+00
          2   -1    0    0  502    0  0.00000000000E+00  0.00000000000E+00  0.98313123058E+03  0.98313123058E+03  0.00000000000E+00 0. -1.
         -2   -1    0    0    0  501 -0.00000000000E+00 -0.00000000000E+00 -0.12642584865E+03  0.12642584865E+03  0.00000000000E+00 0.  1.
          6    2    1    2  502    0  0.26746627060E+03  0.13241349637E+03  0.32116124498E+03  0.47083015507E+03  0.17165357473E+03 0.  0.
         24    2    3    3    0    0  0.71545894523E+02  0.13415648082E+02  0.14971508931E+03  0.18454156648E+03  0.79637850032E+02 0.  0.
         -6    2    1    2    0  501 -0.26746627060E+03 -0.13241349637E+03  0.53554413694E+03  0.63872692416E+03  0.17914525140E+03 0.  0.
        -24    2    5    5    0    0 -0.12875486346E+03 -0.12027039582E+03  0.39882241328E+03  0.44352643982E+03  0.81324058643E+02 0.  0.
          5    1    3    3  502    0  0.19592037608E+03  0.11899784829E+03  0.17144615568E+03  0.28628858859E+03  0.47000000000E+01 0. -1.
        -13    1    4    4    0    0  0.68273540866E+02 -0.21249272540E+02  0.11469070404E+03  0.13515459874E+03  0.00000000000E+00 0.  1.
         14    1    4    4    0    0  0.32723536571E+01  0.34664920622E+02  0.35024385265E+02  0.49386967748E+02  0.00000000000E+00 0. -1.
         -5    1    5    5    0  501 -0.13871140714E+03 -0.12143100554E+02  0.13672172366E+03  0.19520048433E+03  0.47000000000E+01 0.  1.
         13    1    6    6    0    0 -0.36722963617E+02 -0.75562401785E+02  0.24301366197E+03  0.25712621905E+03  0.00000000000E+00 0. -1.
        -14    1    6    6    0    0 -0.92031899841E+02 -0.44707994033E+02  0.15580875131E+03  0.18640022077E+03  0.00000000000E+00 0.  1.
</event>
<event>
12    1  0.1081556E+000  0.9225697E+03  0.7818608E-02  0.9397800E-01
         -2   -1    0    0    0  501 -0.00000000000E+00  0.00000000000E+00  0.75451662212E+03  0.75451662212E+03  0.00000000000E+00 0.  1.
          2   -1    0    0  502    0  0.00000000000E+00 -0.00000000000E+00 -0.12717353178E+04  0.12717353178E+04  0.00000000000E+00 0. -1.
          6    2    1    2  502    0 -0.29971231279E+03  0.85538102163E+03  0.81938522255E+02  0.92616475313E+03  0.17193913430E+03 0.  0.
         24    2    3    3    0    0 -0.26128238461E+03  0.75458416119E+03  0.23597559829E+02  0.80343486944E+03  0.85352233514E+02 0.  0.
         -6    2    1    2    0  501  0.29971231279E+03 -0.85538102163E+03 -0.59915721798E+03  0.11000871868E+04  0.17233190116E+03 0.  0.
        -24    2    5    5    0    0  0.29320336677E+03 -0.78268734339E+03 -0.59079855484E+03  0.10264754046E+04  0.77724719606E+02 0.  0.
          5    1    3    3  502    0 -0.38429928178E+02  0.10079686044E+03  0.58340962426E+02  0.12272988369E+03  0.47000000000E+01 0. -1.
        -13    1    4    4    0    0 -0.18383523530E+03  0.56555111679E+03 -0.18034898028E+02  0.59495270147E+03  0.00000000000E+00 0.  1.
         14    1    4    4    0    0 -0.77447149315E+02  0.18903304440E+03  0.41632457857E+02  0.20848216797E+03  0.00000000000E+00 0. -1.
         -5    1    5    5    0  501  0.65089460246E+01 -0.72693678243E+02 -0.83586631390E+01  0.73611782238E+02  0.47000000000E+01 0.  1.
         13    1    6    6    0    0  0.13942893633E+03 -0.26680951518E+03 -0.21761767690E+03  0.37146359037E+03  0.00000000000E+00 0. -1.
        -14    1    6    6    0    0  0.15377443043E+03 -0.51587782822E+03 -0.37318087795E+03  0.65501181422E+03  0.00000000000E+00 0.  1.
</event>
<event>
12    1  0.1081556E+000  0.1739993E+03  0.7818608E-02  0.1173740E+00
          2   -1    0    0  502    0  0.00000000000E+00  0.00000000000E+00  0.73992272229E+03  0.73992272229E+03  0.00000000000E+00 0. -1.
         -2   -1    0    0    0  501 -0.00000000000E+00 -0.00000000000E+00 -0.15162862984E+03  0.15162862984E+03  0.00000000000E+00 0.  1.
          6    2    1    2  502    0  0.22943927130E+01  0.28855859621E+02 -0.86944997214E+02  0.19415345952E+03  0.17116719438E+03 0.  0.
         24    2    3    3    0    0  0.92805538727E+01  0.67365123550E+02 -0.77125554483E+01  0.10565690770E+03  0.80496646403E+02 0.  0.
         -6    2    1    2    0  501 -0.22943927130E+01 -0.28855859621E+02  0.67523908966E+03  0.69739789261E+03  0.17198275360E+03 0.  0.
        -24    2    5    5    0    0  0.27140656262E+02  0.13735801125E+02  0.59906547291E+03  0.60517543568E+03  0.80203364408E+02 0.  0.
          5    1    3    3  502    0 -0.69861611597E+01 -0.38509263929E+02 -0.79232441766E+02  0.88496551821E+02  0.47000000000E+01 0. -1.
        -11    1    4    4    0    0  0.20513429886E+02  0.66703730428E+02 -0.33581891234E+02  0.77446316101E+02  0.00000000000E+00 0.  1.
         12    1    4    4    0    0 -0.11232876013E+02  0.66139312177E+00  0.25869335786E+02  0.28210591599E+02  0.00000000000E+00 0. -1.
         -5    1    5    5    0  501 -0.29435048975E+02 -0.42591660746E+02  0.76173616753E+02  0.92222456932E+02  0.47000000000E+01 0.  1.
         13    1    6    6    0    0 -0.77133431129E+01  0.38031042168E+02  0.19086180703E+03  0.19476674566E+03  0.00000000000E+00 0. -1.
        -14    1    6    6    0    0  0.34853999375E+02 -0.24295241044E+02  0.40820366588E+03  0.41040869002E+03  0.00000000000E+00 0.  1.
</event>
<event>
12    1  0.1081556E+000  0.2160734E+03  0.7818608E-02  0.1136845E+00
          2   -1    0    0  502    0  0.00000000000E+00  0.00000000000E+00  0.25283937385E+04  0.25283937385E+04  0.00000000000E+00 0. -1.
         -2   -1    0    0    0  501 -0.00000000000E+00 -0.00000000000E+00 -0.14041614108E+03  0.14041614108E+03  0.00000000000E+00 0.  1.
          6    2    1    2  502    0  0.10581840636E+03 -0.77001639250E+02 -0.49244630102E+02  0.22206945616E+03  0.17251962842E+03 0.  0.
         24    2    3    3    0    0  0.32646063900E+02 -0.65420239409E+02  0.30553394316E+02  0.11308259812E+03  0.80675838272E+02 0.  0.
         -6    2    1    2    0  501 -0.10581840636E+03  0.77001639250E+02  0.24372222275E+04  0.24467404234E+04  0.17134679949E+03 0.  0.
        -24    2    5    5    0    0 -0.35689717219E+02  0.10349275025E+03  0.13064438177E+04  0.13134700611E+04  0.80147659459E+02 0.  0.
          5    1    3    3  502    0  0.73172342462E+02 -0.11581399841E+02 -0.79798024418E+02  0.10898685804E+03  0.47000000000E+01 0. -1.
        -13    1    4    4    0    0  0.32203106382E+02 -0.39623998624E+02 -0.21175581307E+02  0.55276636758E+02  0.00000000000E+00 0.  1.
         14    1    4    4    0    0  0.44295751802E+00 -0.25796240785E+02  0.51728975623E+02  0.57805961362E+02  0.00000000000E+00 0. -1.
         -5    1    5    5    0  501 -0.70128689143E+02 -0.26491111003E+02  0.11307784099E+04  0.11332703624E+04  0.47000000000E+01 0.  1.
         13    1    6    6    0    0 -0.54549600242E+02  0.40654335365E+02  0.55138231430E+03  0.55556357907E+03  0.00000000000E+00 0. -1.
        -14    1    6    6    0    0  0.18859883024E+02  0.62838414888E+02  0.75506150337E+03  0.75790648199E+03  0.00000000000E+00 0.  1.
</event>
<event>
12    1  0.1081556E+000  0.2652206E+03  0.7818608E-02  0.1104047E+00
          3   -1    0    0  502    0  0.00000000000E+00  0.00000000000E+00  0.91085287983E+03  0.91085287983E+03  0.00000000000E+00 0. -1.
         -3   -1    0    0    0  501 -0.00000000000E+00 -0.00000000000E+00 -0.89631809805E+02  0.89631809805E+02  0.00000000000E+00 0.  1.
          6    2    1    2  502    0  0.18525373388E+03 -0.64164496533E+02  0.23139773703E+03  0.35578616791E+03  0.18601842931E+03 0.  0.
         24    2    3    3    0    0  0.16162194058E+03 -0.75452616544E+02  0.99512592913E+02  0.22124374134E+03  0.85036979685E+02 0.  0.
         -6    2    1    2    0  501 -0.18525373388E+03  0.64164496533E+02  0.58982333300E+03  0.64469852173E+03  0.17119752112E+03 0.  0.
        -24    2    5    5    0    0 -0.17521034469E+03  0.11698113684E+02  0.53235056118E+03  0.56609317524E+03  0.78923078467E+02 0.  0.
          5    1    3    3  502    0  0.23631793298E+02  0.11288120010E+02  0.13188514412E+03  0.13454242657E+03  0.47000000000E+01 0. -1.
        -13    1    4    4    0    0  0.10508705923E+03 -0.40503023380E+02  0.14833203264E+02  0.11359493316E+03  0.00000000000E+00 0.  1.
         14    1    4    4    0    0  0.56534881354E+02 -0.34949593164E+02  0.84679389649E+02  0.10764880818E+03  0.00000000000E+00 0. -1.
         -5    1    5    5    0  501 -0.10043389188E+02  0.52466382849E+02  0.57472771815E+02  0.78605346483E+02  0.47000000000E+01 0.  1.
         11    1    6    6    0    0 -0.13233223247E+03 -0.13915091631E+02  0.45467638204E+03  0.47374683315E+03  0.00000000000E+00 0. -1.
        -12    1    6    6    0    0 -0.42878112221E+02  0.25613205315E+02  0.77674179138E+02  0.92346342098E+02  0.00000000000E+00 0.  1.
</event>
<event>
12    1  0.1081556E+000  0.6867254E+03  0.7818608E-02  0.9740207E-01
          1   -1    0    0  502    0  0.00000000000E+00  0.00000000000E+00  0.83686498400E+03  0.83686498400E+03  0.00000000000E+00 0. -1.
         -1   -1    0    0    0  501 -0.00000000000E+00 -0.00000000000E+00 -0.64818949846E+03  0.64818949846E+03  0.00000000000E+00 0.  1.
          6    2    1    2  502    0 -0.11638820944E+03  0.65447331106E+03 -0.17401941976E+03  0.70846461547E+03  0.17250455858E+03 0.  0.
         24    2    3    3    0    0 -0.15273175501E+02  0.41282514582E+03 -0.13993263083E+03  0.44426377325E+03  0.84446954566E+02 0.  0.
         -6    2    1    2    0  501  0.11638820944E+03 -0.65447331106E+03  0.36269490529E+03  0.77658986699E+03  0.17222861844E+03 0.  0.
        -24    2    5    5    0    0  0.32417190932E+02 -0.11808124357E+03  0.68770211830E+02  0.15919097046E+03  0.74955778233E+02 0.  0.
          5    1    3    3  502    0 -0.10111503394E+03  0.24164816523E+03 -0.34086788930E+02  0.26420084222E+03  0.47000000000E+01 0. -1.
        -11    1    4    4    0    0 -0.13169703549E+02  0.34861153780E+03 -0.83413602459E+02  0.35869384501E+03  0.00000000000E+00 0.  1.
         12    1    4    4    0    0 -0.21034719526E+01  0.64213608029E+02 -0.56519028367E+02  0.85569928234E+02  0.00000000000E+00 0. -1.
         -5    1    5    5    0  501  0.83971018506E+02 -0.53639206749E+03  0.29392469346E+03  0.61739889653E+03  0.47000000000E+01 0.  1.
         13    1    6    6    0    0  0.55492028884E+02 -0.88511119963E+02  0.39780352069E+02  0.11178577744E+03  0.00000000000E+00 0. -1.
        -14    1    6    6    0    0 -0.23074837952E+02 -0.29570123608E+02  0.28989859760E+02  0.47405193024E+02  0.00000000000E+00 0.  1.
</event>
<event>
12    1  0.1081556E+000  0.1886849E+03  0.7818608E-02  0.1159653E+00
          1   -1    0    0  502    0  0.00000000000E+00  0.00000000000E+00  0.11114181471E+03  0.11114181471E+03  0.00000000000E+00 0. -1.
         -1   -1    0    0    0  501 -0.00000000000E+00 -0.00000000000E+00 -0.32067974336E+03  0.32067974336E+03  0.00000000000E+00 0.  1.
          6    2    1    2  502    0 -0.29651864091E+02  0.71320414474E+02 -0.11159061265E+03  0.21876368513E+03  0.17157870070E+03 0.  0.
         24    2    3    3    0    0 -0.37235992470E+02  0.10797520263E+03 -0.52179645545E+02  0.14838722948E+03  0.79062576130E+02 0.  0.
         -6    2    1    2    0  501  0.29651864091E+02 -0.71320414474E+02 -0.97947316002E+02  0.21305787294E+03  0.17272563778E+03 0.  0.
        -24    2    5    5    0    0  0.57771142353E+02 -0.51314291829E+02 -0.12667991031E+03  0.16790711737E+03  0.78576961964E+02 0.  0.
          5    1    3    3  502    0  0.75841283794E+01 -0.36654788154E+02 -0.59410967104E+02  0.70376455651E+02  0.47000000000E+01 0. -1.
        -13    1    4    4    0    0  0.55187669173E+01 -0.16049949173E+01 -0.27637210790E+02  0.28228500088E+02  0.00000000000E+00 0.  1.
         14    1    4    4    0    0 -0.42754759387E+02  0.10958019755E+03 -0.24542434756E+02  0.12015872939E+03  0.00000000000E+00 0. -1.
         -5    1    5    5    0  501 -0.28119278262E+02 -0.20006122645E+02  0.28732594311E+02  0.45150755576E+02  0.47000000000E+01 0.  1.
         11    1    6    6    0    0  0.65301222490E+02 -0.52789534241E+02 -0.66159263755E+02  0.10690197737E+03  0.00000000000E+00 0. -1.
        -12    1    6    6    0    0 -0.75300801368E+01  0.14752424118E+01 -0.60520646558E+02  0.61005140003E+02  0.00000000000E+00 0.  1.
</event>
<event>
12    1  0.1081556E+000  0.1986444E+03  0.7818608E-02  0.1150888E+00
         -2   -1    0    0    0  501 -0.00000000000E+00  0.00000000000E+00  0.14245715448E+04  0.14245715448E+04  0.00000000000E+00 0.  1.
          2   -1    0    0  502    0  0.00000000000E+00 -0.00000000000E+00 -0.12520947489E+04  0.12520947489E+04  0.00000000000E+00 0. -1.
          6    2    1    2  502    0 -0.96397725703E+02  0.24590479748E+02  0.14096872314E+04  0.14236440028E+04  0.17218287682E+03 0.  0.
         24    2    3    3    0    0 -0.83539235294E+02  0.63045720767E+02  0.13045050425E+04  0.13108187875E+04  0.74558172405E+02 0.  0.
         -6    2    1    2    0  501  0.96397725703E+02 -0.24590479748E+02 -0.12372104355E+04  0.12530222909E+04  0.17169154483E+03 0.  0.
        -24    2    5    5    0    0  0.53901598463E+02  0.14981326630E+02 -0.34709429310E+03  0.36100172743E+03  0.81963262753E+02 0.  0.
          5    1    3    3  502    0 -0.12858490409E+02 -0.38455241020E+02  0.10518218896E+03  0.11282521532E+03  0.47000000000E+01 0. -1.
        -11    1    4    4    0    0  0.30645162831E+00  0.24921918084E+02  0.57242909052E+03  0.57297142999E+03  0.00000000000E+00 0.  1.
         12    1    4    4    0    0 -0.83845686923E+02  0.38123802684E+02  0.73207595196E+03  0.73784735751E+03  0.00000000000E+00 0. -1.
         -5    1    5    5    0  501  0.42496127240E+02 -0.39571806377E+02 -0.89011614242E+03  0.89202056349E+03  0.47000000000E+01 0.  1.
         11    1    6    6    0    0  0.12556051056E+02 -0.66478250762E+00 -0.28220521360E+03  0.28248518357E+03  0.00000000000E+00 0. -1.
        -12    1    6    6    0    0  0.41345547407E+02  0.15646109137E+02 -0.64889079504E+02  0.78516543864E+02  0.00000000000E+00 0.  1.
</event>
<event>
12    1  0.1081556E+000  0.2110419E+03  0.7818608E-02  0.1140744E+00
          2   -1    0    0  502    0  0.00000000000E+00  0.00000000000E+00  0.20531736891E+04  0.20531736891E+04  0.00000000000E+00 0. -1.
         -2   -1    0    0    0  501 -0.00000000000E+00 -0.00000000000E+00 -0.45327320148E+02  0.45327320148E+02  0.00000000000E+00 0.  1.
          6    2    1    2  502    0 -0.59363462380E+02  0.10526197591E+03  0.24375751452E+03  0.32170111796E+03  0.17166764160E+03 0.  0.
         24    2    3    3    0    0  0.36571800688E+02  0.48043327028E+02  0.12979828701E+03  0.16205668800E+03  0.75954703204E+02 0.  0.
         -6    2    1    2    0  501  0.59363462380E+02 -0.10526197591E+03  0.17640888544E+04  0.17767998912E+04  0.17436818263E+03 0.  0.
        -24    2    5    5    0    0  0.38762166711E+02 -0.43138532807E+02  0.42681733462E+03  0.43791940996E+03  0.78974261074E+02 0.  0.
          5    1    3    3  502    0 -0.95935263069E+02  0.57218648887E+02  0.11395922751E+03  0.15964442995E+03  0.47000000000E+01 0. -1.
        -11    1    4    4    0    0  0.40699324549E+01  0.40102356319E+02  0.15874813949E+02  0.43321738774E+02  0.00000000000E+00 0.  1.
         12    1    4    4    0    0  0.32501868234E+02  0.79409707089E+01  0.11392347306E+03  0.11873494923E+03  0.00000000000E+00 0. -1.
         -5    1    5    5    0  501  0.20601295669E+02 -0.62123443108E+02  0.13372715198E+04  0.13388804813E+04  0.47000000000E+01 0.  1.
         13    1    6    6    0    0  0.12093548885E+02  0.10993952818E+02  0.26016618328E+03  0.26067904374E+03  0.00000000000E+00 0. -1.
        -14    1    6    6    0    0  0.26668617827E+02 -0.54132485625E+02  0.16665115134E+03  0.17724036622E+03  0.00000000000E+00 0.  1.
</event>
<event>
12    1  0.1081556E+000  0.3486125E+03  0.7818608E-02  0.1063186E+00
         -2   -1    0    0    0  501 -0.00000000000E+00  0.00000000000E+00  0.46276744139E+03  0.46276744139E+03  0.00000000000E+00 0.  1.
          2   -1    0    0  502    0  0.00000000000E+00 -0.00000000000E+00 -0.27173602084E+03  0.27173602084E+03  0.00000000000E+00 0. -1.
          6    2    1    2  502    0 -0.27580673771E+03  0.12927568977E+03  0.16308512033E+03  0.38591657714E+03  0.17191069630E+03 0.  0.
         24    2    3    3    0    0 -0.23625553830E+03  0.16249090569E+03  0.14096222430E+03  0.32953341944E+03  0.80634682585E+02 0.  0.
         -6    2    1    2    0  501  0.27580673771E+03 -0.12927568977E+03  0.27946300222E+02  0.34858688510E+03  0.16718331327E+03 0.  0.
        -24    2    5    5    0    0  0.16808774321E+03 -0.66767993497E+02 -0.46625266791E+02  0.20335051749E+03  0.80411834246E+02 0.  0.
          5    1    3    3  502    0 -0.39551199410E+02 -0.33215215920E+02  0.22122896031E+02  0.56383157700E+02  0.47000000000E+01 0. -1.
        -13    1    4    4    0    0 -0.82211045366E+01  0.24556099580E+02  0.33101888631E+02  0.42027653007E+02  0.00000000000E+00 0.  1.
         14    1    4    4    0    0 -0.22803443376E+03  0.13793480611E+03  0.10786033567E+03  0.28750576643E+03  0.00000000000E+00 0. -1.
         -5    1    5    5    0  501  0.10771899450E+03 -0.62507696276E+02  0.74571567013E+02  0.14523636761E+03  0.47000000000E+01 0.  1.
         13    1    6    6    0    0  0.17305369082E+03 -0.57100062321E+02 -0.54179663365E+02  0.19011426287E+03  0.00000000000E+00 0. -1.
        -14    1    6    6    0    0 -0.49659476074E+01 -0.96679311755E+01  0.75543965738E+01  0.13236254623E+02  0.00000000000E+00 0.  1.
</event>
<event>
12    1  0.1081556E+000  0.1411940E+04  0.7818608E-02  0.8945221E-01
          1   -1    0    0  502    0  0.00000000000E+00  0.00000000000E+00  0.29345716652E+04  0.29345716652E+04  0.00000000000E+00 0. -1.
         -1   -1    0    0    0  501 -0.00000000000E+00 -0.00000000000E+00 -0.73653487231E+03  0.73653487231E+03  0.00000000000E+00 0.  1.
          6    2    1    2  502    0  0.10433537748E+04 -0.93702458869E+03  0.58813651851E+03  0.15303293558E+04  0.17146776302E+03 0.  0.
         24    2    3    3    0    0  0.75810910929E+03 -0.76276882544E+03  0.45145182565E+03  0.11691723464E+04  0.81298966777E+02 0.  0.
         -6    2    1    2    0  501 -0.10433537748E+04  0.93702458869E+03  0.16099002743E+04  0.21407771817E+04  0.15667121328E+03 0.  0.
        -24    2    5    5    0    0 -0.43509475312E+03  0.45071790948E+03  0.75636705988E+03  0.98534900915E+03  0.79796381068E+02 0.  0.
          5    1    3    3  502    0  0.28524466547E+03 -0.17425576325E+03  0.13668469286E+03  0.36115700944E+03  0.47000000000E+01 0. -1.
        -13    1    4    4    0    0  0.45090938863E+03 -0.42213323666E+03  0.22262251608E+03  0.65656418644E+03  0.00000000000E+00 0.  1.
         14    1    4    4    0    0  0.30719972066E+03 -0.34063558878E+03  0.22882930958E+03  0.51260815994E+03  0.00000000000E+00 0. -1.
         -5    1    5    5    0  501 -0.60825902164E+03  0.48630667921E+03  0.85353321446E+03  0.11554281725E+04  0.47000000000E+01 0.  1.
         13    1    6    6    0    0 -0.38334210098E+03  0.35518649530E+03  0.61496015477E+03  0.80702205966E+03  0.00000000000E+00 0. -1.
        -14    1    6    6    0    0 -0.51752652140E+02  0.95531414175E+02  0.14140690511E+03  0.17832694948E+03  0.00000000000E+00 0.  1.
</event>
<event>
12    1  0.1081556E+000  0.1902697E+03  0.7818608E-02  0.1158218E+00
          2   -1    0    0  502    0  0.00000000000E+00  0.00000000000E+00  0.13851561571E+03  0.13851561571E+03  0.00000000000E+00 0. -1.
         -2   -1    0    0    0  501 -0.00000000000E+00 -0.00000000000E+00 -0.86825946054E+03  0.86825946054E+03  0.00000000000E+00 0.  1.
          6    2    1    2  502    0 -0.31180934511E+02  0.73289432234E+02 -0.78166360378E+03  0.80295451995E+03  0.16551247709E+03 0.  0.
         24    2    3    3    0    0 -0.25857017852E+02  0.10849299662E+03 -0.48209678467E+03  0.50124273008E+03  0.79922768836E+02 0.  0.
         -6    2    1    2    0  501  0.31180934511E+02 -0.73289432234E+02  0.51919758954E+02  0.20382055630E+03  0.18028745449E+03 0.  0.
        -24    2    5    5    0    0  0.86240573126E+02 -0.53035892532E+02  0.58339358176E+01  0.12906921672E+03  0.79841001664E+02 0.  0.
          5    1    3    3  502    0 -0.53239166590E+01 -0.35203564387E+02 -0.29956681911E+03  0.30171178987E+03  0.47000000000E+01 0. -1.
        -13    1    4    4    0    0 -0.10676815594E+01  0.37202349938E+02 -0.32314278904E+03  0.32527898317E+03  0.00000000000E+00 0.  1.
         14    1    4    4    0    0 -0.24789336292E+02  0.71290646683E+02 -0.15895399563E+03  0.17596374690E+03  0.00000000000E+00 0. -1.
         -5    1    5    5    0  501 -0.55059638616E+02 -0.20253539702E+02  0.46085823136E+02  0.74751339581E+02  0.47000000000E+01 0.  1.
         11    1    6    6    0    0  0.26242574286E+02 -0.53725661125E+02  0.26781010553E+02  0.65515966716E+02  0.00000000000E+00 0. -1.
        -12    1    6    6    0    0  0.59997998840E+02  0.68976859307E+00 -0.20947074736E+02  0.63553250000E+02  0.00000000000E+00 0.  1.
</event>
<event>
12    1  0.1081556E+000  0.2361279E+03  0.7818608E-02  0.1122400E+00
         -2   -1    0    0    0  501 -0.00000000000E+00  0.00000000000E+00  0.11575341829E+03  0.11575341829E+03  0.00000000000E+00 0.  1.
          2   -1    0    0  502    0  0.00000000000E+00 -0.00000000000E+00 -0.78730108820E+03  0.78730108820E+03  0.00000000000E+00 0. -1.
          6    2    1    2  502    0 -0.15915476848E+03 -0.42353142294E+02 -0.56127640102E+02  0.24456635826E+03  0.17186728198E+03 0.  0.
         24    2    3    3    0    0 -0.12372746241E+03 -0.89161025327E+02 -0.66704708018E+02  0.18473295375E+03  0.80115995519E+02 0.  0.
         -6    2    1    2    0  501  0.15915476848E+03  0.42353142294E+02 -0.61542002981E+03  0.65848814823E+03  0.16655569422E+03 0.  0.
        -24    2    5    5    0    0  0.12344221715E+03  0.21164837279E+02 -0.59315606071E+03  0.61113727799E+03  0.77257549025E+02 0.  0.
          5    1    3    3  502    0 -0.35427306071E+02  0.46807883033E+02  0.10577067916E+02  0.59833404509E+02  0.47000000000E+01 0. -1.
        -13    1    4    4    0    0 -0.12390293181E+03 -0.51050205270E+02 -0.55108862869E+02  0.14489667607E+03  0.00000000000E+00 0.  1.
         14    1    4    4    0    0  0.17546939877E+00 -0.38110820057E+02 -0.11595845150E+02  0.39836277683E+02  0.00000000000E+00 0. -1.
         -5    1    5    5    0  501  0.35712551333E+02  0.21188305015E+02 -0.22263969091E+02  0.47350870233E+02  0.47000000000E+01 0.  1.
         11    1    6    6    0    0  0.56576460284E+02  0.23443524463E+02 -0.13653226691E+03  0.14963807873E+03  0.00000000000E+00 0. -1.
        -12    1    6    6    0    0  0.66865756861E+02 -0.22786871838E+01 -0.45662379381E+03  0.46149919927E+03  0.00000000000E+00 0.  1.
</event>
<event>
12    1  0.1081556E+000  0.1339539E+04  0.7818608E-02  0.8998785E-01
         -1   -1    0    0    0  501 -0.00000000000E+00  0.00000000000E+00  0.84787156570E+03  0.84787156570E+03  0.00000000000E+00 0.  1.
          1   -1    0    0  502    0  0.00000000000E+00 -0.00000000000E+00 -0.27389194427E+04  0.27389194427E+04  0.00000000000E+00 0. -1.
          6    2    1    2  502    0 -0.12669356860E+04 -0.40028126190E+03 -0.90619224701E+02  0.13428692348E+04  0.17243786332E+03 0.  0.
         24    2    3    3    0    0 -0.12681300133E+04 -0.39130941484E+03 -0.89819575329E+02  0.13326393816E+04  0.81138008321E+02 0.  0.
         -6    2    1    2    0  501  0.12669356860E+04  0.40028126190E+03 -0.18004286523E+04  0.22439217736E+04  0.16819771965E+03 0.  0.
        -24    2    5    5    0    0  0.78414850181E+03  0.25868956786E+03 -0.12221805600E+04  0.14774202281E+04  0.85064937845E+02 0.  0.
          5    1    3    3  502    0  0.11943273053E+01 -0.89718470635E+01 -0.79964937269E+00  0.10229853203E+02  0.47000000000E+01 0. -1.
        -13    1    4    4    0    0 -0.11593105468E+04 -0.34076753770E+03 -0.98356738546E+02  0.12123520555E+04  0.00000000000E+00 0.  1.
         14    1    4    4    0    0 -0.10881946657E+03 -0.50541877140E+02  0.85371632168E+01  0.12028732604E+03  0.00000000000E+00 0. -1.
         -5    1    5    5    0  501  0.48278718421E+03  0.14159169404E+03 -0.57824809225E+03  0.76650154550E+03  0.47000000000E+01 0.  1.
         13    1    6    6    0    0  0.52915493178E+03  0.21563933681E+03 -0.83190824458E+03  0.10092455562E+04  0.00000000000E+00 0. -1.
        -14    1    6    6    0    0  0.25499357003E+03  0.43050231056E+02 -0.39027231543E+03  0.46817467183E+03  0.00000000000E+00 0.  1.
</event>
<event>
12    1  0.1081556E+000  0.3276546E+03  0.7818608E-02  0.1072179E+00
          1   -1    0    0  502    0  0.00000000000E+00  0.00000000000E+00  0.37630120274E+04  0.37630120274E+04  0.00000000000E+00 0. -1.
         -1   -1    0    0    0  501 -0.00000000000E+00 -0.00000000000E+00 -0.40035858160E+02  0.40035858160E+02  0.00000000000E+00 0.  1.
          6    2    1    2  502    0 -0.11148862823E+03 -0.25333530231E+03  0.84803723531E+03  0.90966256360E+03  0.17807396642E+03 0.  0.
         24    2    3    3    0    0 -0.74384813737E+02 -0.15657587481E+03  0.72100430585E+03  0.74565483504E+03  0.78133340370E+02 0.  0.
         -6    2    1    2    0  501  0.11148862823E+03  0.25333530231E+03  0.28749389339E+04  0.28933853219E+04  0.17261592600E+03 0.  0.
        -24    2    5    5    0    0  0.11965434942E+03  0.25368640912E+03  0.28637857227E+04  0.28787809939E+04  0.86240289593E+02 0.  0.
          5    1    3    3  502    0 -0.37103814495E+02 -0.96759427493E+02  0.12703292946E+03  0.16400772856E+03  0.47000000000E+01 0. -1.
        -11    1    4    4    0    0 -0.40991141119E+02 -0.10403727490E+03  0.30173009064E+03  0.32178420691E+03  0.00000000000E+00 0.  1.
         12    1    4    4    0    0 -0.33393672619E+02 -0.52538599909E+02  0.41927421521E+03  0.42387062813E+03  0.00000000000E+00 0. -1.
         -5    1    5    5    0  501 -0.81657211873E+01 -0.35110681434E+00  0.11153211204E+02  0.14604328080E+02  0.47000000000E+01 0.  1.
         11    1    6    6    0    0  0.87727507397E+02  0.23144247227E+03  0.22052143609E+04  0.22190610878E+04  0.00000000000E+00 0. -1.
        -12    1    6    6    0    0  0.31926842023E+02  0.22243936849E+02  0.65857136176E+03  0.65971990610E+03  0.00000000000E+00 0.  1.
</event>
<event>
12    1  0.1081556E+000  0.9489285E+03  0.7818608E-02  0.9366404E-01
          1   -1    0    0  502    0  0.00000000000E+00  0.00000000000E+00  0.25771741977E+04  0.25771741977E+04  0.00000000000E+00 0. -1.
         -1   -1    0    0    0  501 -0.00000000000E+00 -0.00000000000E+00 -0.35009703073E+03  0.35009703073E+03  0.00000000000E+00 0.  1.
          6    2    1    2  502    0 -0.89542531538E+03  0.26333011048E+03  0.10482767869E+04  0.14140033739E+04  0.17144117677E+03 0.  0.
         24    2    3    3    0    0 -0.89397591150E+03  0.26032909965E+03  0.10519564646E+04  0.14071669373E+04  0.80883963516E+02 0.  0.
         -6    2    1    2    0  501  0.89542531538E+03 -0.26333011048E+03  0.11788003801E+04  0.15132678545E+04  0.17111405809E+03 0.  0.
        -24    2    5    5    0    0  0.25960422761E+03 -0.84199017925E+02  0.29555936035E+03  0.41032035217E+03  0.80768968651E+02 0.  0.
          5    1    3    3  502    0 -0.14494038811E+01  0.30010108254E+01 -0.36796777308E+01  0.68364366294E+01  0.47000000000E+01 0. -1.
        -11    1    4    4    0    0 -0.73644224108E+03  0.24212523990E+03  0.89471480326E+03  0.11838439025E+04  0.00000000000E+00 0.  1.
         12    1    4    4    0    0 -0.15753367041E+03  0.18203859755E+02  0.15724166134E+03  0.22332303483E+03  0.00000000000E+00 0. -1.
         -5    1    5    5    0  501  0.63582108776E+03 -0.17913109255E+03  0.88324101978E+03  0.11029475024E+04  0.47000000000E+01 0.  1.
         11    1    6    6    0    0  0.10675166298E+03 -0.65279146785E+02  0.17288971874E+03  0.21342010074E+03  0.00000000000E+00 0. -1.
        -12    1    6    6    0    0  0.15285256463E+03 -0.18919871140E+02  0.12266964161E+03  0.19690025142E+03  0.00000000000E+00 0.  1.
</event>
<event>
12    1  0.1081556E+000  0.1071117E+04  0.7818608E-02  0.9233810E-01
          2   -1    0    0  502    0  0.00000000000E+00  0.00000000000E+00  0.23491331765E+04  0.23491331765E+04  0.00000000000E+00 0. -1.
         -2   -1    0    0    0  501 -0.00000000000E+00 -0.00000000000E+00 -0.51291842573E+03  0.51291842573E+03  0.00000000000E+00 0.  1.
          6    2    1    2  502    0  0.23670402821E+02  0.10570789266E+04  0.60519636791E+03  0.12303005073E+04  0.17146588415E+03 0.  0.
         24    2    3    3    0    0 -0.26293848202E+02  0.32311209660E+03  0.15590624444E+03  0.36827531102E+03  0.78912319888E+02 0.  0.
         -6    2    1    2    0  501 -0.23670402821E+02 -0.10570789266E+04  0.12310183829E+04  0.16317510950E+04  0.17096558697E+03 0.  0.
        -24    2    5    5    0    0  0.32266767607E+02 -0.51688730329E+03  0.67261147676E+03  0.85279261101E+03  0.81458026833E+02 0.  0.
          5    1    3    3  502    0  0.49964251023E+02  0.73396682999E+03  0.44929012346E+03  0.86202519624E+03  0.47000000000E+01 0. -1.
        -11    1    4    4    0    0  0.22317746101E+02  0.19534421514E+03  0.99972834633E+02  0.22057201056E+03  0.00000000000E+00 0.  1.
         12    1    4    4    0    0 -0.48611594303E+02  0.12776788146E+03  0.55933409808E+02  0.14770330046E+03  0.00000000000E+00 0. -1.
         -5    1    5    5    0  501 -0.55937170428E+02 -0.54019162331E+03  0.55840690611E+03  0.77895848395E+03  0.47000000000E+01 0.  1.
         13    1    6    6    0    0  0.14267908470E+02 -0.11474390041E+03  0.10016507494E+03  0.15297966574E+03  0.00000000000E+00 0. -1.
        -14    1    6    6    0    0  0.17998859137E+02 -0.40214340288E+03  0.57244640182E+03  0.69981294527E+03  0.00000000000E+00 0.  1.
</event>
<event>
12    1  0.1081556E+000  0.1195590E+04  0.7818608E-02  0.9116725E-01
         -2   -1    0    0    0  501 -0.00000000000E+00  0.00000000000E+00  0.46129736267E+03  0.46129736267E+03  0.00000000000E+00 0.  1.
          2   -1    0    0  502    0  0.00000000000E+00 -0.00000000000E+00 -0.36891598146E+04  0.36891598146E+04  0.00000000000E+00 0. -1.
          6    2    1    2  502    0 -0.11782447511E+04  0.10731683394E+03 -0.78378366075E+03  0.14296428988E+04  0.17258155974E+03 0.  0.
         24    2    3    3    0    0 -0.34308158224E+03  0.62897617145E+02 -0.19353324010E+03  0.40597877683E+03  0.75515361999E+02 0.  0.
         -6    2    1    2    0  501  0.11782447511E+04 -0.10731683394E+03 -0.24440787912E+04  0.27208142785E+04  0.17184761968E+03 0.  0.
        -24    2    5    5    0    0  0.10245731371E+04 -0.10905484861E+03 -0.22248572330E+04  0.24530491441E+04  0.76271376550E+02 0.  0.
          5    1    3    3  502    0 -0.83516316886E+03  0.44419216799E+02 -0.59025042065E+03  0.10236641219E+04  0.47000000000E+01 0. -1.
        -11    1    4    4    0    0 -0.28918150908E+03  0.36615163465E+02 -0.13176042189E+03  0.31988658016E+03  0.00000000000E+00 0.  1.
         12    1    4    4    0    0 -0.53900073159E+02  0.26282453680E+02 -0.61772818206E+02  0.86092196668E+02  0.00000000000E+00 0. -1.
         -5    1    5    5    0  501  0.15367161396E+03  0.17380146664E+01 -0.21922155818E+03  0.26776513440E+03  0.47000000000E+01 0.  1.
         13    1    6    6    0    0  0.42744279494E+03 -0.37625133109E+02 -0.84008487187E+03  0.94332687099E+03  0.00000000000E+00 0. -1.
        -14    1    6    6    0    0  0.59713034220E+03 -0.71429715501E+02 -0.13847723612E+04  0.15097222732E+04  0.00000000000E+00 0.  1.
</event>
<event>
12    1  0.1081556E+000  0.6578896E+03  0.7818608E-02  0.9792086E-01
         -1   -1    0    0    0  501 -0.00000000000E+00  0.00000000000E+00  0.15497970510E+04  0.15497970510E+04  0.00000000000E+00 0.  1.
          1   -1    0    0  502    0  0.00000000000E+00 -0.00000000000E+00 -0.31414548529E+03  0.31414548529E+03  0.00000000000E+00 0. -1.
          6    2    1    2  502    0  0.42073984664E+03  0.47548455153E+03  0.92828214247E+03  0.11377385202E+04  0.17214420396E+03 0.  0.
         24    2    3    3    0    0  0.13547715122E+03  0.22081862822E+03  0.44845456108E+03  0.52415385955E+03  0.80689838571E+02 0.  0.
         -6    2    1    2    0  501 -0.42073984664E+03 -0.47548455153E+03  0.30736942324E+03  0.72620401613E+03  0.17259412913E+03 0.  0.
        -24    2    5    5    0    0 -0.32683565461E+03 -0.36126686474E+03  0.16452463861E+03  0.52055771844E+03  0.81096786848E+02 0.  0.
          5    1    3    3  502    0  0.28526269542E+03  0.25466592331E+03  0.47982758139E+03  0.61358466063E+03  0.47000000000E+01 0. -1.
        -11    1    4    4    0    0  0.11779753995E+03  0.11710609315E+03  0.27078421279E+03  0.31766993463E+03  0.00000000000E+00 0.  1.
         12    1    4    4    0    0  0.17679611261E+02  0.10371253507E+03  0.17767034830E+03  0.20648392492E+03  0.00000000000E+00 0. -1.
         -5    1    5    5    0  501 -0.93904192023E+02 -0.11421768679E+03  0.14284478463E+03  0.20564629769E+03  0.47000000000E+01 0.  1.
         13    1    6    6    0    0 -0.19386794634E+03 -0.26930505327E+03  0.10105555575E+03  0.34687493090E+03  0.00000000000E+00 0. -1.
        -14    1    6    6    0    0 -0.13296770827E+03 -0.91961811465E+02  0.63469082857E+02  0.17368278754E+03  0.00000000000E+00 0.  1.
</event>
<event>
12    1  0.1081556E+000  0.2622536E+03  0.7818608E-02  0.1105797E+00
          2   -1    0    0  502    0  0.00000000000E+00  0.00000000000E+00  0.83119113943E+03  0.83119113943E+03  0.00000000000E+00 0. -1.
         -2   -1    0    0    0  501 -0.00000000000E+00 -0.00000000000E+00 -0.12551221183E+03  0.12551221183E+03  0.00000000000E+00 0.  1.
          6    2    1    2  502    0  0.15765655644E+03 -0.12142001845E+03  0.73220588634E+02  0.27185847704E+03  0.17013925552E+03 0.  0.
         24    2    3    3    0    0  0.38482240251E+02 -0.10787048046E+02  0.50032417424E+02  0.10753576691E+03  0.86391290948E+02 0.  0.
         -6    2    1    2    0  501 -0.15765655644E+03  0.12142001845E+03  0.63245833897E+03  0.68484487423E+03  0.17149501614E+03 0.  0.
        -24    2    5    5    0    0 -0.83697170071E+02  0.13410107441E+03  0.52115434462E+03  0.55052633802E+03  0.80554847776E+02 0.  0.
          5    1    3    3  502    0  0.11917431619E+03 -0.11063297040E+03  0.23188171211E+02  0.16432271013E+03  0.47000000000E+01 0. -1.
        -13    1    4    4    0    0  0.57907003386E+02  0.12706830150E+02  0.15110108342E+02  0.61180061684E+02  0.00000000000E+00 0.  1.
         14    1    4    4    0    0 -0.19424763135E+02 -0.23493878195E+02  0.34922309082E+02  0.46355705227E+02  0.00000000000E+00 0. -1.
         -5    1    5    5    0  501 -0.73959386368E+02 -0.12681055959E+02  0.11130399434E+03  0.13431853621E+03  0.47000000000E+01 0.  1.
         13    1    6    6    0    0 -0.47857918619E+02  0.42298482600E+02  0.32257417852E+03  0.32883680246E+03  0.00000000000E+00 0. -1.
        -14    1    6    6    0    0 -0.35839251452E+02  0.91802591809E+02  0.19858016610E+03  0.22168953556E+03  0.00000000000E+00 0.  1.
</event>
<event>
12    1  0.1081556E+000  0.2791518E+03  0.7818608E-02  0.1096153E+00
         -2   -1    0    0    0  501 -0.00000000000E+00  0.00000000000E+00  0.17412995081E+03  0.17412995081E+03  0.00000000000E+00 0.  1.
          2   -1    0    0  502    0  0.00000000000E+00 -0.00000000000E+00 -0.14471051670E+04  0.14471051670E+04  0.00000000000E+00 0. -1.
          6    2    1    2  502    0 -0.21979301678E+03 -0.82989981886E+01  0.36967645180E+02  0.28195544187E+03  0.17249469792E+03 0.  0.
         24    2    3    3    0    0 -0.10325392027E+03  0.82743408726E+01 -0.44144241130E+02  0.13892654729E+03  0.81375885548E+02 0.  0.
         -6    2    1    2    0  501  0.21979301678E+03  0.82989981886E+01 -0.13099428614E+04  0.13392796760E+04  0.17129479482E+03 0.  0.
        -24    2    5    5    0    0  0.18209887003E+03  0.18253000314E+02 -0.12581524457E+04  0.12742853069E+04  0.85803823626E+02 0.  0.
          5    1    3    3  502    0 -0.11653909651E+03 -0.16573339061E+02  0.81111886310E+02  0.14302889458E+03  0.47000000000E+01 0. -1.
        -11    1    4    4    0    0 -0.51781828604E+02  0.31101309312E+02  0.95120045106E+01  0.61148405084E+02  0.00000000000E+00 0.  1.
         12    1    4    4    0    0 -0.51472091668E+02 -0.22826968439E+02 -0.53656245641E+02  0.77778142206E+02  0.00000000000E+00 0. -1.
         -5    1    5    5    0  501  0.37694146753E+02 -0.99540021256E+01 -0.51790415669E+02  0.64994369086E+02  0.47000000000E+01 0.  1.
         11    1    6    6    0    0  0.17163011110E+03 -0.69729389806E+01 -0.99485946785E+03  0.10095795549E+04  0.00000000000E+00 0. -1.
        -12    1    6    6    0    0  0.10468758923E+02  0.25225939295E+02 -0.26329297789E+03  0.26470575199E+03  0.00000000000E+00 0.  1.
</event>
<event>
12    1  0.1081556E+000  0.7222620E+03  0.7818608E-02  0.9679901E-01
          2   -1    0    0  502    0  0.00000000000E+00  0.00000000000E+00  0.14975552587E+04  0.14975552587E+04  0.00000000000E+00 0. -1.
         -2   -1    0    0    0  501 -0.00000000000E+00 -0.00000000000E+00 -0.56477595501E+03  0.56477595501E+03  0.00000000000E+00 0.  1.
          6    2    1    2  502    0  0.49451365303E+01  0.70155910764E+03 -0.17188356233E+03  0.74259675703E+03  0.17232628547E+03 0.  0.
         24    2    3    3    0    0 -0.36926155166E+02  0.60400810964E+03 -0.11181123857E+03  0.62053047847E+03  0.79793384421E+02 0.  0.
         -6    2    1    2    0  501 -0.49451365303E+01 -0.70155910764E+03  0.11046628660E+04  0.13197344567E+04  0.17090743901E+03 0.  0.
        -24    2    5    5    0    0  0.45795837599E+02 -0.33120693665E+03  0.45675096151E+03  0.57170551137E+03  0.80190132011E+02 0.  0.
          5    1    3    3  502    0  0.41871291697E+02  0.97550998001E+02 -0.60072323756E+02  0.12206627856E+03  0.47000000000E+01 0. -1.
        -11    1    4    4    0    0  0.23367731052E+02  0.21106334097E+03 -0.50646302833E+02  0.21830903038E+03  0.00000000000E+00 0.  1.
         12    1    4    4    0    0 -0.60293886218E+02  0.39294476867E+03 -0.61164935738E+02  0.40222144809E+03  0.00000000000E+00 0. -1.
         -5    1    5    5    0  501 -0.50740974129E+02 -0.37035217100E+03  0.64791190452E+03  0.74802894532E+03  0.47000000000E+01 0.  1.
         11    1    6    6    0    0  0.25989770490E+02 -0.17847439448E+03  0.31182717102E+03  0.36022876377E+03  0.00000000000E+00 0. -1.
        -12    1    6    6    0    0  0.19806067109E+02 -0.15273254216E+03  0.14492379048E+03  0.21147674760E+03  0.00000000000E+00 0.  1.
</event>
<event>
12    1  0.1081556E+000  0.2463831E+03  0.7818608E-02  0.1115612E+00
         -1   -1    0    0    0  501 -0.00000000000E+00  0.00000000000E+00  0.31301776527E+03  0.31301776527E+03  0.00000000000E+00 0.  1.
          1   -1    0    0  502    0  0.00000000000E+00 -0.00000000000E+00 -0.12085732293E+04  0.12085732293E+04  0.00000000000E+00 0. -1.
          6    2    1    2  502    0  0.93745494585E+02  0.15618027329E+03  0.24870973038E+03  0.35152451204E+03  0.16891553233E+03 0.  0.
         24    2    3    3    0    0  0.76546846547E+02  0.73634850146E+02  0.62172327025E+02  0.14676164132E+03  0.79950423655E+02 0.  0.
         -6    2    1    2    0  501 -0.93745494585E+02 -0.15618027329E+03 -0.11442651944E+04  0.11700664826E+04  0.16288720909E+03 0.  0.
        -24    2    5    5    0    0 -0.96926867461E+02 -0.16162642752E+03 -0.80342622338E+03  0.82913675971E+03  0.80350172236E+02 0.  0.
          5    1    3    3  502    0  0.17198648038E+02  0.82545423142E+02  0.18653740336E+03  0.20476287073E+03  0.47000000000E+01 0. -1.
        -13    1    4    4    0    0  0.83958249579E+01  0.40057932864E+02  0.57587175364E+02  0.70649915984E+02  0.00000000000E+00 0.  1.
         14    1    4    4    0    0  0.68151021589E+02  0.33576917281E+02  0.45851516609E+01  0.76111725335E+02  0.00000000000E+00 0. -1.
         -5    1    5    5    0  501  0.31813728760E+01  0.54461542352E+01 -0.34083897107E+03  0.34092972286E+03  0.47000000000E+01 0.  1.
         11    1    6    6    0    0 -0.62065542678E+02 -0.57139176625E+02 -0.48285928519E+03  0.49017354721E+03  0.00000000000E+00 0. -1.
        -12    1    6    6    0    0 -0.34861324783E+02 -0.10448725090E+03 -0.32056693819E+03  0.33896321250E+03  0.00000000000E+00 0.  1.
</event>
<event>
12    1  0.1081556E+000  0.5090314E+03  0.7818608E-02  0.1011448E+00
         -1   -1    0    0    0  501 -0.00000000000E+00  0.00000000000E+00  0.14045272017E+04  0.14045272017E+04  0.00000000000E+00 0.  1.
          1   -1    0    0  502    0  0.00000000000E+00 -0.00000000000E+00 -0.24446008798E+03  0.24446008798E+03  0.00000000000E+00 0. -1.
          6    2    1    2  502    0  0.25913587641E+03 -0.40300889614E+03  0.98838012320E+03  0.11117375719E+04  0.17174861870E+03 0.  0.
         24    2    3    3    0    0  0.17055566320E+03 -0.29686017667E+03  0.82585898289E+03  0.89831494924E+03  0.87815087869E+02 0.  0.
         -6    2    1    2    0  501 -0.25913587641E+03  0.40300889614E+03  0.17168699049E+03  0.53724971775E+03  0.17202692726E+03 0.  0.
        -24    2    5    5    0    0 -0.13420627231E+03  0.12195720797E+03  0.38336599878E+02  0.20198583052E+03  0.80272640024E+02 0.  0.
          5    1    3    3  502    0  0.88580213204E+02 -0.10614871947E+03  0.16252114030E+03  0.21342262266E+03  0.47000000000E+01 0. -1.
        -11    1    4    4    0    0  0.14890378512E+03 -0.17737902688E+03  0.52046224950E+03  0.56966359332E+03  0.00000000000E+00 0.  1.
         12    1    4    4    0    0  0.21651878081E+02 -0.11948114979E+03  0.30539673340E+03  0.32865135592E+03  0.00000000000E+00 0. -1.
         -5    1    5    5    0  501 -0.12492960410E+03  0.28105168817E+03  0.13335039061E+03  0.33526388723E+03  0.47000000000E+01 0.  1.
         13    1    6    6    0    0 -0.78845820092E+02  0.11833070570E+03  0.34826980609E+02  0.14639582588E+03  0.00000000000E+00 0. -1.
        -14    1    6    6    0    0 -0.55360452214E+02  0.36265022758E+01  0.35096192686E+01  0.55590004636E+02  0.00000000000E+00 0.  1.
</event>
<event>
12    1  0.1081556E+000  0.9043096E+03  0.7818608E-02  0.9420210E-01
          2   -1    0    0  502    0  0.00000000000E+00  0.00000000000E+00  0.36725406496E+04  0.36725406496E+04  0.00000000000E+00 0. -1.
         -2   -1    0    0    0  501 -0.00000000000E+00 -0.00000000000E+00 -0.63320955355E+03  0.63320955355E+03  0.00000000000E+00 0.  1.
          6    2    1    2  502    0 -0.21695047474E+03  0.86112825434E+03 -0.21370547120E+03  0.92941150645E+03  0.17183230481E+03 0.  0.
         24    2    3    3    0    0 -0.23919732863E+03  0.81322724995E+03 -0.20187841010E+03  0.87508473493E+03  0.80401982285E+02 0.  0.
         -6    2    1    2    0  501  0.21695047474E+03 -0.86112825434E+03  0.32530365672E+04  0.33763386967E+04  0.16972539011E+03 0.  0.
        -24    2    5    5    0    0  0.78215520439E+02 -0.37405573278E+03  0.16159897440E+04  0.16627368117E+04  0.85061703249E+02 0.  0.
          5    1    3    3  502    0  0.22246853882E+02  0.47901004395E+02 -0.11827061096E+02  0.54326771521E+02  0.47000000000E+01 0.  1.
        -13    1    4    4    0    0 -0.91504819540E+02  0.35578216994E+03 -0.48714705661E+02  0.37057685707E+03  0.00000000000E+00 0.  1.
         14    1    4    4    0    0 -0.14769250909E+03  0.45744508001E+03 -0.15316370444E+03  0.50450787786E+03  0.00000000000E+00 0. -1.
         -5    1    5    5    0  501  0.13873495431E+03 -0.48707252157E+03  0.16370468232E+04  0.17136018850E+04  0.47000000000E+01 0.  1.
         13    1    6    6    0    0  0.65776077516E+02 -0.37299872953E+03  0.15741188375E+04  0.16190443660E+04  0.00000000000E+00 0. -1.
        -14    1    6    6    0    0  0.12439442923E+02 -0.10570032405E+01  0.41870906564E+02  0.43692445715E+02  0.00000000000E+00 0.  1.
</event>
<event>
12    1  0.1081556E+000  0.6475084E+03  0.7818608E-02  0.9811466E-01
         -1   -1    0    0    0  501 -0.00000000000E+00  0.00000000000E+00  0.56273889230E+03  0.56273889230E+03  0.00000000000E+00 0.  1.
          1   -1    0    0  502    0  0.00000000000E+00 -0.00000000000E+00 -0.23850504851E+04  0.23850504851E+04  0.00000000000E+00 0. -1.
          6    2    1    2  502    0  0.61726441129E+03 -0.82991764508E+02  0.31158625000E+03  0.71745054344E+03  0.17247117053E+03 0.  0.
         24    2    3    3    0    0  0.21976463065E+03 -0.46788939443E+02  0.60996961029E+02  0.24613981589E+03  0.79865399095E+02 0.  0.
         -6    2    1    2    0  501 -0.61726441129E+03  0.82991764508E+02 -0.21338978428E+04  0.22303388340E+04  0.18162688224E+03 0.  0.
        -24    2    5    5    0    0 -0.24495104754E+03  0.23719777577E+01 -0.10647258353E+04  0.10953200401E+04  0.77963093047E+02 0.  0.
          5    1    3    3  502    0  0.39749978064E+03 -0.36202825065E+02  0.25058928897E+03  0.47131072754E+03  0.47000000000E+01 0. -1.
        -11    1    4    4    0    0  0.20429981079E+03 -0.63532578126E+02  0.63588663049E+02  0.22320017751E+03  0.00000000000E+00 0.  1.
         12    1    4    4    0    0  0.15464819862E+02  0.16743638683E+02 -0.25917020205E+01  0.22939638381E+02  0.00000000000E+00 0. -1.
         -5    1    5    5    0  501 -0.37231336375E+03  0.80619786750E+02 -0.10691720075E+04  0.11350187939E+04  0.47000000000E+01 0.  1.
         11    1    6    6    0    0 -0.21639390282E+03  0.16774607802E+02 -0.80926666671E+03  0.83786648488E+03  0.00000000000E+00 0. -1.
        -12    1    6    6    0    0 -0.28557144726E+02 -0.14402630045E+02 -0.25545916860E+03  0.25745355521E+03  0.00000000000E+00 0.  1.
</event>
<event>
12    1  0.1081556E+000  0.1142517E+04  0.7818608E-02  0.9164715E-01
         -2   -1    0    0    0  501 -0.00000000000E+00  0.00000000000E+00  0.15167295190E+04  0.15167295190E+04  0.00000000000E+00 0.  1.
          2   -1    0    0  502    0  0.00000000000E+00 -0.00000000000E+00 -0.93820964344E+03  0.93820964344E+03  0.00000000000E+00 0. -1.
          6    2    1    2  502    0 -0.10551998573E+04 -0.40268057797E+03  0.64221509688E+03  0.13106102712E+04  0.17222272125E+03 0.  0.
         24    2    3    3    0    0 -0.99210633249E+03 -0.33645522727E+03  0.59977245869E+03  0.12096644566E+04  0.78000003446E+02 0.  0.
         -6    2    1    2    0  501  0.10551998573E+04  0.40268057797E+03 -0.63695221275E+02  0.11443288913E+04  0.17272273598E+03 0.  0.
        -24    2    5    5    0    0  0.72949718566E+03  0.29870650355E+03  0.19087280604E+02  0.79252230937E+03  0.79596277747E+02 0.  0.
          5    1    3    3  502    0 -0.63093524774E+02 -0.66225350696E+02  0.42442638188E+02  0.10094581457E+03  0.47000000000E+01 0. -1.
        -11    1    4    4    0    0 -0.99131492718E+03 -0.33817806892E+03  0.59519580778E+03  0.12047106461E+04  0.00000000000E+00 0.  1.
         12    1    4    4    0    0 -0.79140531266E+00  0.17228416436E+01  0.45766509121E+01  0.49538105807E+01  0.00000000000E+00 0. -1.
         -5    1    5    5    0  501  0.32570267161E+03  0.10397407442E+03 -0.82782501879E+02  0.35180658189E+03  0.47000000000E+01 0.  1.
         11    1    6    6    0    0  0.26876703781E+03  0.89001964501E+02  0.39716645015E+02  0.28589243115E+03  0.00000000000E+00 0. -1.
        -12    1    6    6    0    0  0.46073014785E+03  0.20970453905E+03 -0.20629364411E+02  0.50662987822E+03  0.00000000000E+00 0.  1.
</event>
<event>
12    1  0.1081556E+000  0.8503237E+03  0.7818608E-02  0.9489903E-01
         -2   -1    0    0    0  501 -0.00000000000E+00  0.00000000000E+00  0.43372399187E+03  0.43372399187E+03  0.00000000000E+00 0.  1.
          2   -1    0    0  502    0  0.00000000000E+00 -0.00000000000E+00 -0.18378200762E+04  0.18378200762E+04  0.00000000000E+00 0. -1.
          6    2    1    2  502    0  0.65582378726E+03 -0.51434761689E+03 -0.35643502980E+03  0.92271521713E+03  0.17233435673E+03 0.  0.
         24    2    3    3    0    0  0.59063549734E+03 -0.39643537379E+03 -0.29311259875E+03  0.77377015849E+03  0.82425519877E+02 0.  0.
         -6    2    1    2    0  501 -0.65582378726E+03  0.51434761689E+03 -0.10476610546E+04  0.13488288510E+04  0.16458211635E+03 0.  0.
        -24    2    5    5    0    0 -0.62736954721E+03  0.52060644790E+03 -0.10217416684E+04  0.13095513597E+04  0.79656163258E+02 0.  0.
          5    1    3    3  502    0  0.65188289927E+02 -0.11791224310E+03 -0.63322431055E+02  0.14894505864E+03  0.47000000000E+01 0. -1.
        -13    1    4    4    0    0  0.45571918335E+03 -0.29264922217E+03 -0.25827355847E+03  0.60002397645E+03  0.00000000000E+00 0.  1.
         14    1    4    4    0    0  0.13491631398E+03 -0.10378615162E+03 -0.34839040277E+02  0.17374618204E+03  0.00000000000E+00 0. -1.
         -5    1    5    5    0  501 -0.28454240057E+02 -0.62588310111E+01 -0.25919386170E+02  0.39277491293E+02  0.47000000000E+01 0.  1.
         11    1    6    6    0    0 -0.22793052942E+03  0.22652760322E+03 -0.44404433587E+03  0.54812631161E+03  0.00000000000E+00 0. -1.
        -12    1    6    6    0    0 -0.39943901779E+03  0.29407884468E+03 -0.57769733253E+03  0.76142504807E+03  0.00000000000E+00 0.  1.
</event>
<event>
12    1  0.1081556E+000  0.2139570E+03  0.7818608E-02  0.1138470E+00
          4   -1    0    0  502    0  0.00000000000E+00  0.00000000000E+00  0.62949277848E+03  0.62949277848E+03  0.00000000000E+00 0. -1.
         -4   -1    0    0    0  501 -0.00000000000E+00 -0.00000000000E+00 -0.13331053588E+03  0.13331053588E+03  0.00000000000E+00 0.  1.
          6    2    1    2  502    0 -0.10734965857E+03  0.63680009677E+02 -0.10223041984E+02  0.21230694368E+03  0.17143697069E+03 0.  0.
         24    2    3    3    0    0 -0.34341648385E+00  0.65862252102E+02  0.59994879913E+01  0.10395400876E+03  0.80202792309E+02 0.  0.
         -6    2    1    2    0  501  0.10734965857E+03 -0.63680009677E+02  0.50640528458E+03  0.55049637067E+03  0.17612736598E+03 0.  0.
        -24    2    5    5    0    0  0.10294021400E+03 -0.18811014667E+02  0.48081287921E+03  0.49844129285E+03  0.79449075963E+02 0.  0.
          5    1    3    3  502    0 -0.10700624209E+03 -0.21822424248E+01 -0.16222529975E+02  0.10835293492E+03  0.47000000000E+01 0. -1.
        -13    1    4    4    0    0 -0.14922108050E+02  0.81211973722E+02  0.59317340637E+01  0.82784294727E+02  0.00000000000E+00 0.  1.
         14    1    4    4    0    0  0.14578691566E+02 -0.15349721620E+02  0.67753927648E-01  0.21169714032E+02  0.00000000000E+00 0. -1.
         -5    1    5    5    0  501  0.44094445701E+01 -0.44868995011E+02  0.25592405368E+02  0.52055077823E+02  0.47000000000E+01 0.  1.
         13    1    6    6    0    0  0.75499916292E+02 -0.41579856703E+02  0.41221529578E+03  0.42113011281E+03  0.00000000000E+00 0. -1.
        -14    1    6    6    0    0  0.27440297709E+02  0.22768842036E+02  0.68597583432E+02  0.77311180037E+02  0.00000000000E+00 0.  1.
</event>
<event>
12    1  0.1081556E+000  0.1777590E+03  0.7818608E-02  0.1169990E+00
          2   -1    0    0  502    0  0.00000000000E+00  0.00000000000E+00  0.36064630871E+03  0.36064630871E+03  0.00000000000E+00 0. -1.
         -2   -1    0    0    0  501 -0.00000000000E+00 -0.00000000000E+00 -0.30620014534E+03  0.30620014534E+03  0.00000000000E+00 0.  1.
          6    2    1    2  502    0 -0.25088229797E+02  0.39261918775E+02 -0.25451252201E+03  0.31009955481E+03  0.17092159749E+03 0.  0.
         24    2    3    3    0    0 -0.56405291905E+02 -0.37263644172E+01 -0.23210891845E+03  0.25219651237E+03  0.80827520558E+02 0.  0.
         -6    2    1    2    0  501  0.25088229797E+02 -0.39261918775E+02  0.30895868539E+03  0.35674689924E+03  0.17216841552E+03 0.  0.
        -24    2    5    5    0    0  0.75434093921E+02 -0.51499808113E+02  0.17347363967E+03  0.21161675220E+03  0.79661869092E+02 0.  0.
          5    1    3    3  502    0  0.31317062108E+02  0.42988283193E+02 -0.22403603561E+02  0.57903042437E+02  0.47000000000E+01 0. -1.
        -11    1    4    4    0    0 -0.51255998375E+02 -0.32449372330E+02 -0.10048801574E+03  0.11737964236E+03  0.00000000000E+00 0.  1.
         12    1    4    4    0    0 -0.51492935306E+01  0.28723007913E+02 -0.13162090271E+03  0.13481687001E+03  0.00000000000E+00 0. -1.
         -5    1    5    5    0  501 -0.50345864123E+02  0.12237889338E+02  0.13548504572E+03  0.14513014705E+03  0.47000000000E+01 0.  1.
         11    1    6    6    0    0  0.56357164487E+02 -0.23907407015E+02  0.16644116784E+03  0.17734248349E+03  0.00000000000E+00 0. -1.
        -12    1    6    6    0    0  0.19076929433E+02 -0.27592401098E+02  0.70324718300E+01  0.34274268701E+02  0.00000000000E+00 0.  1.
</event>
<event>
12    1  0.1081556E+000  0.1027639E+04  0.7818608E-02  0.9278740E-01
          1   -1    0    0  502    0  0.00000000000E+00  0.00000000000E+00  0.27377517829E+04  0.27377517829E+04  0.00000000000E+00 0. -1.
         -1   -1    0    0    0  501 -0.00000000000E+00 -0.00000000000E+00 -0.41111876629E+03  0.41111876629E+03  0.00000000000E+00 0.  1.
          6    2    1    2  502    0 -0.32800580591E+03 -0.95857432112E+03  0.77207030242E+03  0.12853437770E+04  0.17194049970E+03 0.  0.
         24    2    3    3    0    0 -0.30442085856E+03 -0.94523254063E+03  0.73020941198E+03  0.12352570822E+04  0.80732018683E+02 0.  0.
         -6    2    1    2    0  501  0.32800580591E+03  0.95857432112E+03  0.15545627142E+04  0.18635267722E+04  0.17208794379E+03 0.  0.
        -24    2    5    5    0    0  0.14786917312E+03  0.55017094831E+03  0.97414083895E+03  0.11313012846E+04  0.79616943441E+02 0.  0.
          5    1    3    3  502    0 -0.23584947352E+02 -0.13341780493E+02  0.41860890437E+02  0.50086694805E+02  0.47000000000E+01 0. -1.
        -13    1    4    4    0    0 -0.12580595056E+03 -0.27310513278E+03  0.20979990963E+03  0.36664635936E+03  0.00000000000E+00 0.  1.
         14    1    4    4    0    0 -0.17861490800E+03 -0.67212740785E+03  0.52040950235E+03  0.86861072287E+03  0.00000000000E+00 0. -1.
         -5    1    5    5    0  501  0.18013663279E+03  0.40840337282E+03  0.58042187528E+03  0.73222548761E+03  0.47000000000E+01 0.  1.
         13    1    6    6    0    0  0.99247495147E+02  0.45307519148E+03  0.74234045224E+03  0.87532653419E+03  0.00000000000E+00 0. -1.
        -14    1    6    6    0    0  0.48621677970E+02  0.97095756830E+02  0.23180038671E+03  0.25597475040E+03  0.00000000000E+00 0.  1.
</event>
<event>
12    1  0.1081556E+000  0.1743603E+03  0.7818608E-02  0.1173375E+00
          2   -1    0    0  502    0  0.00000000000E+00  0.00000000000E+00  0.10469314720E+04  0.10469314720E+04  0.00000000000E+00 0. -1.
         -2   -1    0    0    0  501 -0.00000000000E+00 -0.00000000000E+00 -0.32918959811E+02  0.32918959811E+02  0.00000000000E+00 0.  1.
          6    2    1    2  502    0  0.15018776560E+02  0.15682783847E+02  0.32713497601E+03  0.37169878828E+03  0.17513190264E+03 0.  0.
         24    2    3    3    0    0  0.33926636733E+02 -0.29328314812E+02  0.86780695674E+02  0.12639127463E+03  0.80204104827E+02 0.  0.
         -6    2    1    2    0  501 -0.15018776560E+02 -0.15682783847E+02  0.68687753622E+03  0.70815164356E+03  0.17089905549E+03 0.  0.
        -24    2    5    5    0    0 -0.32616072826E+02  0.36105253466E+02  0.23632225143E+03  0.25426419023E+03  0.80216422128E+02 0.  0.
          5    1    3    3  502    0 -0.18907860173E+02  0.45011098659E+02  0.24035428033E+03  0.24530751365E+03  0.47000000000E+01 0. -1.
        -13    1    4    4    0    0  0.34715321639E+02 -0.45607480600E+01 -0.11530954433E+01  0.35032607789E+02  0.00000000000E+00 0.  1.
         14    1    4    4    0    0 -0.78868490670E+00 -0.24767566752E+02  0.87933791117E+02  0.91358666841E+02  0.00000000000E+00 0. -1.
         -5    1    5    5    0  501  0.17597296266E+02 -0.51788037312E+02  0.45055528479E+03  0.45388745334E+03  0.47000000000E+01 0.  1.
         11    1    6    6    0    0  0.44777870525E+01 -0.18630894174E+02  0.11027007211E+03  0.11192251605E+03  0.00000000000E+00 0. -1.
        -12    1    6    6    0    0 -0.37093859878E+02  0.54736147640E+02  0.12605217932E+03  0.14234167418E+03  0.00000000000E+00 0.  1.
</event>
<event>
12    1  0.1081556E+000  0.4788398E+03  0.7818608E-02  0.1019455E+00
          2   -1    0    0  502    0  0.00000000000E+00  0.00000000000E+00  0.36317055177E+04  0.36317055177E+04  0.00000000000E+00 0. -1.
         -2   -1    0    0    0  501 -0.00000000000E+00 -0.00000000000E+00 -0.12813540257E+03  0.12813540257E+03  0.00000000000E+00 0.  1.
          6    2    1    2  502    0 -0.12761841428E+03  0.42737677786E+03  0.41294103804E+03  0.63234649497E+03  0.17436862931E+03 0.  0.
         24    2    3    3    0    0 -0.36801568355E+02  0.31064866558E+03  0.33377680056E+03  0.46453047012E+03  0.80775344124E+02 0.  0.
         -6    2    1    2    0  501  0.12761841428E+03 -0.42737677786E+03  0.30906290771E+04  0.31274944253E+04  0.17405722672E+03 0.  0.
        -24    2    5    5    0    0  0.50998175601E+02 -0.10069755743E+03  0.11070269964E+04  0.11157068424E+04  0.80945509485E+02 0.  0.
          5    1    3    3  502    0 -0.90816845926E+02  0.11672811229E+03  0.79164237472E+02  0.16781602485E+03  0.47000000000E+01 0. -1.
        -13    1    4    4    0    0 -0.14843871088E+02  0.24466520353E+03  0.29945296454E+03  0.38697994819E+03  0.00000000000E+00 0.  1.
         14    1    4    4    0    0 -0.21957697267E+02  0.65983462044E+02  0.34323836024E+02  0.77550521932E+02  0.00000000000E+00 0. -1.
         -5    1    5    5    0  501  0.76620238680E+02 -0.32667922043E+03  0.19836020807E+04  0.20117875828E+04  0.47000000000E+01 0.  1.
         11    1    6    6    0    0  0.45835369290E+02 -0.11407801694E+03  0.92836008330E+03  0.93646522588E+03  0.00000000000E+00 0. -1.
        -12    1    6    6    0    0  0.51628063117E+01  0.13380459514E+02  0.17866691311E+03  0.17924161656E+03  0.00000000000E+00 0.  1.
</event>
<event>
12    1  0.1081556E+000  0.5131472E+03  0.7818608E-02  0.1010403E+00
          4   -1    0    0  502    0  0.00000000000E+00  0.00000000000E+00  0.16158867258E+04  0.16158867258E+04  0.00000000000E+00 0. -1.
         -4   -1    0    0    0  501 -0.00000000000E+00 -0.00000000000E+00 -0.17773794644E+03  0.17773794644E+03  0.00000000000E+00 0.  1.
          6    2    1    2  502    0 -0.45902618958E+03 -0.15166012024E+03  0.97764509701E+03  0.11041153043E+04  0.17197335459E+03 0.  0.
         24    2    3    3    0    0 -0.28485273369E+03 -0.15285340952E+03  0.71488572540E+03  0.78883385219E+03  0.81804653227E+02 0.  0.
         -6    2    1    2    0  501  0.45902618958E+03  0.15166012024E+03  0.46050368230E+03  0.68950936790E+03  0.17220247450E+03 0.  0.
        -24    2    5    5    0    0  0.37388472513E+03  0.73713948152E+02  0.40358567563E+03  0.56072107576E+03  0.79392653204E+02 0.  0.
          5    1    3    3  502    0 -0.17417345588E+03  0.11932892774E+01  0.26275937161E+03  0.31528145211E+03  0.47000000000E+01 0. -1.
        -11    1    4    4    0    0 -0.22146899331E+03 -0.10496783676E+03  0.60896759176E+03  0.65643605139E+03  0.00000000000E+00 0.  1.
         12    1    4    4    0    0 -0.63383740379E+02 -0.47885572759E+02  0.10591813364E+03  0.13239780080E+03  0.00000000000E+00 0. -1.
         -5    1    5    5    0  501  0.85141464443E+02  0.77946172086E+02  0.56918006671E+02  0.12878829215E+03  0.47000000000E+01 0.  1.
         13    1    6    6    0    0  0.21197383206E+03  0.28821373663E+02  0.27888211118E+03  0.35148087998E+03  0.00000000000E+00 0. -1.
        -14    1    6    6    0    0  0.16191089308E+03  0.44892574489E+02  0.12470356445E+03  0.20924019578E+03  0.00000000000E+00 0.  1.
</event>
<event>
12    1  0.1081556E+000  0.2264672E+03  0.7818608E-02  0.1129151E+00
          2   -1    0    0  502    0  0.00000000000E+00  0.00000000000E+00  0.15301021314E+04  0.15301021314E+04  0.00000000000E+00 0. -1.
         -2   -1    0    0    0  501 -0.00000000000E+00 -0.00000000000E+00 -0.11824785969E+03  0.11824785969E+03  0.00000000000E+00 0.  1.
          6    2    1    2  502    0  0.27400855647E+01 -0.14724404981E+03  0.83434562693E+01  0.22669773142E+03  0.17214508386E+03 0.  0.
         24    2    3    3    0    0  0.23937356468E+02 -0.13055238837E+03 -0.51050226228E+02  0.16129409715E+03  0.76110032413E+02 0.  0.
         -6    2    1    2    0  501 -0.27400855647E+01  0.14724404981E+03  0.14035108154E+04  0.14216522596E+04  0.17194249066E+03 0.  0.
        -24    2    5    5    0    0 -0.52937475689E+01  0.82808755640E+02  0.38361261926E+03  0.39970664033E+03  0.75640220068E+02 0.  0.
          5    1    3    3  502    0 -0.21197270903E+02 -0.16691661440E+02  0.59393682497E+02  0.65403634272E+02  0.47000000000E+01 0. -1.
        -11    1    4    4    0    0 -0.95134840457E+01 -0.11070931193E+03 -0.51328336524E+02  0.12239957621E+03  0.00000000000E+00 0.  1.
         12    1    4    4    0    0  0.33450840514E+02 -0.19843076440E+02  0.27811029630E+00  0.38894520938E+02  0.00000000000E+00 0. -1.
         -5    1    5    5    0  501  0.25536620042E+01  0.64435294167E+02  0.10198981961E+04  0.10219456193E+04  0.47000000000E+01 0.  1.
         13    1    6    6    0    0 -0.96345951962E+01  0.85966225410E+02  0.38463497343E+03  0.39424241289E+03  0.00000000000E+00 0. -1.
        -14    1    6    6    0    0  0.43408476272E+01 -0.31574697704E+01 -0.10223541668E+01  0.54642274400E+01  0.00000000000E+00 0.  1.
</event>
<event>
12    1  0.1160104E+000  0.1253881E+04  0.7818608E-02  0.9066959E-01
         -1   -1    0    0    0  501 -0.00000000000E+00  0.00000000000E+00  0.13771861904E+04  0.13771861904E+04  0.00000000000E+00 0.  1.
          1   -1    0    0  502    0  0.00000000000E+00 -0.00000000000E+00 -0.15494928936E+04  0.15494928936E+04  0.00000000000E+00 0. -1.
          6    2    1    2  502    0  0.12344143388E+04  0.13631369303E+03  0.66461445811E+03  0.14194047151E+04  0.17503480929E+03 0.  0.
         24    2    3    3    0    0  0.11351297213E+04  0.10721191395E+03  0.64990746925E+03  0.13147971898E+04  0.79360273878E+02 0.  0.
         -6    2    1    2    0  501 -0.12344143388E+04 -0.13631369303E+03 -0.83692116128E+03  0.15072743689E+04  0.17052510176E+03 0.  0.
        -24    2    5    5    0    0 -0.70895168575E+03 -0.11345146654E+02 -0.46197204725E+03  0.84975093556E+03  0.76923825737E+02 0.  0.
          5    1    3    3  502    0  0.99284617511E+02  0.29101779074E+02  0.14706988858E+02  0.10460752526E+03  0.47000000000E+01 0. -1.
        -11    1    4    4    0    0  0.88707607213E+03  0.56713876617E+02  0.48374962191E+03  0.10119951177E+04  0.00000000000E+00 0.  1.
         12    1    4    4    0    0  0.24805364915E+03  0.50498037337E+02  0.16615784734E+03  0.30280207210E+03  0.00000000000E+00 0. -1.
         -5    1    5    5    0  501 -0.52546265305E+03 -0.12496854637E+03 -0.37494911403E+03  0.65752343338E+03  0.47000000000E+01 0.  1.
         11    1    6    6    0    0 -0.45181440910E+03 -0.40832382909E+02 -0.27560202320E+03  0.53081071858E+03  0.00000000000E+00 0. -1.
        -12    1    6    6    0    0 -0.25713727664E+03  0.29487236255E+02 -0.18637002406E+03  0.31894021698E+03  0.00000000000E+00 0.  1.
</event>
<event>
12    1  0.1081556E+000  0.1739141E+03  0.7818608E-02  0.1173826E+00
          2   -1    0    0  502    0  0.00000000000E+00  0.00000000000E+00  0.23980279234E+04  0.23980279234E+04  0.00000000000E+00 0. -1.
         -2   -1    0    0    0  501 -0.00000000000E+00 -0.00000000000E+00 -0.23361574936E+02  0.23361574936E+02  0.00000000000E+00 0.  1.
          6    2    1    2  502    0  0.15912747084E+02 -0.97656263979E+01  0.36713493854E+03  0.40636290235E+03  0.17318822802E+03 0.  0.
         24    2    3    3    0    0  0.19298752885E+02  0.54454861688E+02  0.28834389426E+03  0.30455006041E+03  0.79188156379E+02 0.  0.
         -6    2    1    2    0  501 -0.15912747084E+02  0.97656263979E+01  0.20075314099E+04  0.20150265960E+04  0.17263035001E+03 0.  0.
        -24    2    5    5    0    0 -0.69953303851E+02 -0.12350181084E+00  0.16315791867E+04  0.16350524643E+04  0.80327071801E+02 0.  0.
          5    1    3    3  502    0 -0.33860058015E+01 -0.64220488086E+02  0.78791044280E+02  0.10181284194E+03  0.47000000000E+01 0. -1.
        -11    1    4    4    0    0  0.24097101749E+02 -0.81828333525E+01  0.15589001429E+03  0.15795355529E+03  0.00000000000E+00 0.  1.
         12    1    4    4    0    0 -0.47983488634E+01  0.62637695040E+02  0.13245387997E+03  0.14659650512E+03  0.00000000000E+00 0. -1.
         -5    1    5    5    0  501  0.54040556767E+02  0.98891282087E+01  0.37595222324E+03  0.37997413174E+03  0.47000000000E+01 0.  1.
         11    1    6    6    0    0 -0.34327161941E+02 -0.30701851922E+02  0.12083199414E+04  0.12091972703E+04  0.00000000000E+00 0. -1.
        -12    1    6    6    0    0 -0.35626141910E+02  0.30578350111E+02  0.42325924532E+03  0.42585519397E+03  0.00000000000E+00 0.  1.
</event>
<event>
12    1  0.1081556E+000  0.4342085E+03  0.7818608E-02  0.1032539E+00
         -2   -1    0    0    0  501 -0.00000000000E+00  0.00000000000E+00  0.11108065689E+03  0.11108065689E+03  0.00000000000E+00 0.  1.
          2   -1    0    0  502    0  0.00000000000E+00 -0.00000000000E+00 -0.21287673585E+04  0.21287673585E+04  0.00000000000E+00 0. -1.
          6    2    1    2  502    0  0.38799778451E+03  0.90771797928E+02 -0.50535812423E+03  0.66652596421E+03  0.17345958366E+03 0.  0.
         24    2    3    3    0    0  0.35098899885E+03  0.39328986882E+02 -0.37202177808E+03  0.51882124449E+03  0.77686767513E+02 0.  0.
         -6    2    1    2    0  501 -0.38799778451E+03 -0.90771797928E+02 -0.15123285774E+04  0.15733220512E+04  0.17153061149E+03 0.  0.
        -24    2    5    5    0    0 -0.38913714223E+03 -0.10801056445E+03 -0.14813716599E+04  0.15375604245E+04  0.80845943242E+02 0.  0.
          5    1    3    3  502    0  0.37008785662E+02  0.51442811045E+02 -0.13333634615E+03  0.14770471973E+03  0.47000000000E+01 0. -1.
        -11    1    4    4    0    0  0.20817110685E+03 -0.69542592315E+01 -0.18161494677E+03  0.27634681171E+03  0.00000000000E+00 0.  1.
         12    1    4    4    0    0  0.14281789200E+03  0.46283246114E+02 -0.19040683130E+03  0.24247443278E+03  0.00000000000E+00 0. -1.
         -5    1    5    5    0  501  0.11393577201E+01  0.17238766518E+02 -0.30956917423E+02  0.35761626688E+02  0.47000000000E+01 0.  1.
         13    1    6    6    0    0 -0.44259576394E+02 -0.30863615899E+02 -0.28589683318E+03  0.29094410479E+03  0.00000000000E+00 0. -1.
        -14    1    6    6    0    0 -0.34487756584E+03 -0.77146948546E+02 -0.11954748268E+04  0.12466163197E+04  0.00000000000E+00 0.  1.
</event>
<event>
12    1  0.1193918E+000  0.2486657E+03  0.7818608E-02  0.1114151E+00
         -2   -1    0    0    0  501 -0.00000000000E+00  0.00000000000E+00  0.64089029255E+03  0.64089029255E+03  0.00000000000E+00 0.  1.
          2   -1    0    0  502    0  0.00000000000E+00 -0.00000000000E+00 -0.18117112659E+04  0.18117112659E+04  0.00000000000E+00 0. -1.
          6    2    1    2  502    0  0.18081261677E+03 -0.98280328984E+00  0.60796200986E+03  0.65632864280E+03  0.16868702869E+03 0.  0.
         24    2    3    3    0    0  0.20329641140E+02 -0.29356138668E+02  0.21128994612E+03  0.22745727773E+03  0.76277746927E+02 0.  0.
         -6    2    1    2    0  501 -0.18081261677E+03  0.98280328984E+00 -0.17787829832E+04  0.17962729156E+04  0.17272324065E+03 0.  0.
        -24    2    5    5    0    0 -0.10859877952E+03  0.68756121135E+02 -0.10574613361E+04  0.10681691666E+04  0.78992353195E+02 0.  0.
          5    1    3    3  502    0  0.16048297563E+03  0.28373335378E+02  0.39667206374E+03  0.42887136507E+03  0.47000000000E+01 0. -1.
        -13    1    4    4    0    0  0.48132777617E+02 -0.77472037869E+01  0.11381693215E+03  0.12381872836E+03  0.00000000000E+00 0.  1.
         14    1    4    4    0    0 -0.27803136478E+02 -0.21608934881E+02  0.97473013966E+02  0.10363854937E+03  0.00000000000E+00 0. -1.
         -5    1    5    5    0  501 -0.72213837241E+02 -0.67773317845E+02 -0.72132164705E+03  0.72810374907E+03  0.47000000000E+01 0.  1.
         13    1    6    6    0    0 -0.29966626418E+02 -0.16971899053E+02 -0.25823323930E+03  0.26051957688E+03  0.00000000000E+00 0. -1.
        -14    1    6    6    0    0 -0.78632153106E+02  0.85728020188E+02 -0.79922809682E+03  0.80764958967E+03  0.00000000000E+00 0.  1.
</event>
<event>
12    1  0.1185140E+000  0.6987491E+03  0.7818608E-02  0.9719374E-01
          2   -1    0    0  502    0  0.00000000000E+00  0.00000000000E+00  0.11823882283E+04  0.11823882283E+04  0.00000000000E+00 0. -1.
         -2   -1    0    0    0  501 -0.00000000000E+00 -0.00000000000E+00 -0.41420266627E+03  0.41420266627E+03  0.00000000000E+00 0.  1.
          6    2    1    2  502    0  0.77347718961E+02  0.67271841621E+03  0.33986178993E+03  0.77688553778E+03  0.17179163375E+03 0.  0.
         24    2    3    3    0    0  0.35215024798E+02  0.51983992461E+03  0.32114329144E+03  0.61713739445E+03  0.79068987640E+02 0.  0.
         -6    2    1    2    0  501 -0.77347718961E+02 -0.67271841621E+03  0.42832377215E+03  0.81970535683E+03  0.17298231439E+03 0.  0.
        -24    2    5    5    0    0 -0.89952437679E+02 -0.34782107348E+03  0.28015682633E+03  0.46236420879E+03  0.78878856678E+02 0.  0.
          5    1    3    3  502    0  0.42132694163E+02  0.15287849160E+03  0.18718498489E+02  0.15974814333E+03  0.47000000000E+01 0. -1.
        -11    1    4    4    0    0  0.40494430341E+02  0.24518825153E+03  0.11577980027E+03  0.27415696184E+03  0.00000000000E+00 0.  1.
         12    1    4    4    0    0 -0.52794055430E+01  0.27465167308E+03  0.20536349116E+03  0.34298043261E+03  0.00000000000E+00 0. -1.
         -5    1    5    5    0  501  0.12604718718E+02 -0.32489734273E+03  0.14816694581E+03  0.35734114804E+03  0.47000000000E+01 0.  1.
         11    1    6    6    0    0 -0.51220123676E+02 -0.13441425268E+03  0.68534647110E+02  0.15933515070E+03  0.00000000000E+00 0. -1.
        -12    1    6    6    0    0 -0.38732314002E+02 -0.21340682080E+03  0.21162217922E+03  0.30302905810E+03  0.00000000000E+00 0.  1.
</event>
<event>
12    1  0.1081556E+000  0.3225904E+03  0.7818608E-02  0.1074463E+00
         -1   -1    0    0    0  501 -0.00000000000E+00  0.00000000000E+00  0.79260715216E+03  0.79260715216E+03  0.00000000000E+00 0.  1.
          1   -1    0    0  502    0  0.00000000000E+00 -0.00000000000E+00 -0.14267879512E+03  0.14267879512E+03  0.00000000000E+00 0. -1.
          6    2    1    2  502    0 -0.77470002614E+02 -0.25822672343E+03  0.45430233223E+03  0.55551555773E+03  0.17182631873E+03 0.  0.
         24    2    3    3    0    0 -0.10204959244E+03 -0.20428412021E+03  0.27241103577E+03  0.36415073754E+03  0.79068743195E+02 0.  0.
         -6    2    1    2    0  501  0.77470002614E+02  0.25822672343E+03  0.19562602480E+03  0.37977038955E+03  0.18240988241E+03 0.  0.
        -24    2    5    5    0    0  0.12815323979E+02  0.58008174838E+02  0.12107379216E+03  0.15650413580E+03  0.79407181660E+02 0.  0.
          5    1    3    3  502    0  0.24579589829E+02 -0.53942603219E+02  0.18189129647E+03  0.19136482020E+03  0.47000000000E+01 0. -1.
        -11    1    4    4    0    0 -0.92627871256E+02 -0.19601767753E+03  0.27613549848E+03  0.35107501471E+03  0.00000000000E+00 0.  1.
         12    1    4    4    0    0 -0.94217211871E+01 -0.82664426852E+01 -0.37244627111E+01  0.13075722821E+02  0.00000000000E+00 0. -1.
         -5    1    5    5    0  501  0.64654678635E+02  0.20021854860E+03  0.74552232647E+02  0.22326625375E+03  0.47000000000E+01 0.  1.
         11    1    6    6    0    0 -0.71113833567E+01  0.72942258234E+02  0.99360931064E+02  0.12346553945E+03  0.00000000000E+00 0. -1.
        -12    1    6    6    0    0  0.19926707336E+02 -0.14934083396E+02  0.21712861092E+02  0.33038596353E+02  0.00000000000E+00 0.  1.
</event>
<event>
12    1  0.1081556E+000  0.1063975E+04  0.7818608E-02  0.9241033E-01
          1   -1    0    0  502    0  0.00000000000E+00  0.00000000000E+00  0.17472362980E+04  0.17472362980E+04  0.00000000000E+00 0. -1.
         -1   -1    0    0    0  501 -0.00000000000E+00 -0.00000000000E+00 -0.67884698801E+03  0.67884698801E+03  0.00000000000E+00 0.  1.
          6    2    1    2  502    0 -0.94001486051E+03 -0.46751855728E+03  0.27522351764E+03  0.10990097571E+04  0.17283784956E+03 0.  0.
         24    2    3    3    0    0 -0.88062215869E+03 -0.41868098318E+03  0.21589961135E+03  0.10017779849E+04  0.78468699582E+02 0.  0.
         -6    2    1    2    0  501  0.94001486051E+03  0.46751855728E+03  0.79316579233E+03  0.13270735289E+04  0.17265757291E+03 0.  0.
        -24    2    5    5    0    0  0.74663199218E+03  0.32728413153E+03  0.66990867132E+03  0.10582296414E+04  0.80610865163E+02 0.  0.
          5    1    3    3  502    0 -0.59392701822E+02 -0.48837574093E+02  0.59323906291E+02  0.97231772228E+02  0.47000000000E+01 0. -1.
        -11    1    4    4    0    0 -0.78028203759E+03 -0.36496086526E+03  0.21549813652E+03  0.88796167609E+03  0.00000000000E+00 0.  1.
         12    1    4    4    0    0 -0.10034012110E+03 -0.53720117927E+02  0.40147483426E+00  0.11381630882E+03  0.00000000000E+00 0. -1.
         -5    1    5    5    0  501  0.19338286833E+03  0.14023442575E+03  0.12325712102E+03  0.26884388743E+03  0.47000000000E+01 0.  1.
         13    1    6    6    0    0  0.12943655913E+03  0.87639946758E+02  0.14659283522E+03  0.21429895577E+03  0.00000000000E+00 0. -1.
        -14    1    6    6    0    0  0.61719543305E+03  0.23964418477E+03  0.52331583609E+03  0.84393068565E+03  0.00000000000E+00 0.  1.
</event>
<event>
12    1  0.1081556E+000  0.2078294E+03  0.7818608E-02  0.1143297E+00
         -2   -1    0    0    0  501 -0.00000000000E+00  0.00000000000E+00  0.53990569325E+02  0.53990569325E+02  0.00000000000E+00 0.  1.
          2   -1    0    0  502    0  0.00000000000E+00 -0.00000000000E+00 -0.13179306152E+04  0.13179306152E+04  0.00000000000E+00 0. -1.
          6    2    1    2  502    0  0.47811277088E+02  0.10655263148E+03 -0.10628359390E+04  0.10830538817E+04  0.17247056580E+03 0.  0.
         24    2    3    3    0    0 -0.31214361516E+01  0.12975815110E+03 -0.77698617427E+03  0.79173821892E+03  0.79340854246E+02 0.  0.
         -6    2    1    2    0  501 -0.47811277088E+02 -0.10655263148E+03 -0.20110410684E+03  0.28886730273E+03  0.17135365566E+03 0.  0.
        -24    2    5    5    0    0 -0.36799723461E+02 -0.75902492291E+02 -0.22149957810E+03  0.25015360240E+03  0.79995960610E+02 0.  0.
          5    1    3    3  502    0  0.50932713239E+02 -0.23205519614E+02 -0.28584976472E+03  0.29131566283E+03  0.47000000000E+01 0. -1.
        -13    1    4    4    0    0  0.34158864933E+02  0.35092782691E+02 -0.20454343217E+03  0.21032438540E+03  0.00000000000E+00 0.  1.
         14    1    4    4    0    0 -0.37280301084E+02  0.94665368407E+02 -0.57244274210E+03  0.58141383352E+03  0.00000000000E+00 0. -1.
         -5    1    5    5    0  501 -0.11011553626E+02 -0.30650139193E+02  0.20395471254E+02  0.38713700333E+02  0.47000000000E+01 0.  1.
         13    1    6    6    0    0 -0.44338774334E+02 -0.89964618116E+02 -0.19119197726E+03  0.21590259746E+03  0.00000000000E+00 0. -1.
        -14    1    6    6    0    0  0.75390508726E+01  0.14062125825E+02 -0.30307600842E+02  0.34251004943E+02  0.00000000000E+00 0.  1.
</event>
<event>
12    1  0.1081556E+000  0.5249422E+03  0.7818608E-02  0.1007466E+00
         -2   -1    0    0    0  501 -0.00000000000E+00  0.00000000000E+00  0.57794948284E+03  0.57794948284E+03  0.00000000000E+00 0.  1.
          2   -1    0    0  502    0  0.00000000000E+00 -0.00000000000E+00 -0.51420218612E+03  0.51420218612E+03  0.00000000000E+00 0. -1.
          6    2    1    2  502    0  0.52272402245E+02  0.49313667079E+03  0.17914379358E+03  0.55444324357E+03  0.17146029117E+03 0.  0.
         24    2    3    3    0    0  0.39291622283E+02  0.42940588994E+03  0.95372147492E+02  0.44828349713E+03  0.76999983031E+02 0.  0.
         -6    2    1    2    0  501 -0.52272402245E+02 -0.49313667079E+03 -0.11539649685E+03  0.53770842539E+03  0.17290985839E+03 0.  0.
        -24    2    5    5    0    0 -0.86974122310E+02 -0.46047441657E+03 -0.90956018533E+02  0.48394543433E+03  0.79555011407E+02 0.  0.
          5    1    3    3  502    0  0.12980779962E+02  0.63730780852E+02  0.83771646086E+02  0.10615974644E+03  0.47000000000E+01 0. -1.
        -11    1    4    4    0    0  0.38792144267E+02  0.41467422464E+03  0.10641610740E+03  0.42986501480E+03  0.00000000000E+00 0.  1.
         12    1    4    4    0    0  0.49947801526E+00  0.14731665306E+02 -0.11043959910E+02  0.18418482333E+02  0.00000000000E+00 0. -1.
         -5    1    5    5    0  501  0.34701720065E+02 -0.32662254227E+02 -0.24440478322E+02  0.53762991056E+02  0.47000000000E+01 0.  1.
         11    1    6    6    0    0 -0.93618246829E+02 -0.34783528447E+03 -0.89214820927E+02  0.37109708370E+03  0.00000000000E+00 0. -1.
        -12    1    6    6    0    0  0.66441245194E+01 -0.11263913210E+03 -0.17411976056E+01  0.11284835063E+03  0.00000000000E+00 0.  1.
</event>
<event>
12    1  0.1081556E+000  0.5758400E+03  0.7818608E-02  0.9956838E-01
         -2   -1    0    0    0  501 -0.00000000000E+00  0.00000000000E+00  0.12052366382E+04  0.12052366382E+04  0.00000000000E+00 0.  1.
          2   -1    0    0  502    0  0.00000000000E+00 -0.00000000000E+00 -0.59684353619E+03  0.59684353619E+03  0.00000000000E+00 0. -1.
          6    2    1    2  502    0  0.53077069582E+03  0.14371413521E+03  0.96567683753E+03  0.11242222051E+04  0.17021318301E+03 0.  0.
         24    2    3    3    0    0  0.24219166209E+03  0.36001359697E+02  0.54467617690E+03  0.60254841145E+03  0.80246815340E+02 0.  0.
         -6    2    1    2    0  501 -0.53077069582E+03 -0.14371413521E+03 -0.35728373553E+03  0.67785796928E+03  0.17166384196E+03 0.  0.
        -24    2    5    5    0    0 -0.44251257977E+03 -0.10408642450E+03 -0.22322051136E+03  0.51246483587E+03  0.78367367475E+02 0.  0.
          5    1    3    3  502    0  0.28857903374E+03  0.10771277551E+03  0.42100066063E+03  0.52167379364E+03  0.47000000000E+01 0. -1.
        -13    1    4    4    0    0  0.11084818646E+03  0.55869835036E+02  0.28530260264E+03  0.31113716265E+03  0.00000000000E+00 0.  1.
         14    1    4    4    0    0  0.13134347563E+03 -0.19868475339E+02  0.25937357426E+03  0.29141124880E+03  0.00000000000E+00 0. -1.
         -5    1    5    5    0  501 -0.88258116050E+02 -0.39627710706E+02 -0.13406322417E+03  0.16539313341E+03  0.47000000000E+01 0.  1.
         11    1    6    6    0    0 -0.20922999568E+03 -0.50610973711E+02 -0.62426618107E+02  0.22413331836E+03  0.00000000000E+00 0. -1.
        -12    1    6    6    0    0 -0.23328258409E+03 -0.53475450790E+02 -0.16079389325E+03  0.28833151750E+03  0.00000000000E+00 0.  1.
</event>
<event>
12    1  0.1081556E+000  0.2979051E+03  0.7818608E-02  0.1086293E+00
          2   -1    0    0  502    0  0.00000000000E+00  0.00000000000E+00  0.15764716592E+04  0.15764716592E+04  0.00000000000E+00 0. -1.
         -2   -1    0    0    0  501 -0.00000000000E+00 -0.00000000000E+00 -0.11155769196E+03  0.11155769196E+03  0.00000000000E+00 0.  1.
          6    2    1    2  502    0  0.24491098089E+03  0.39641672929E+01  0.13986026340E+03  0.33015334878E+03  0.17159031805E+03 0.  0.
         24    2    3    3    0    0  0.22144355454E+03  0.41448304056E+02  0.73319386455E+02  0.25011861311E+03  0.80177169062E+02 0.  0.
         -6    2    1    2    0  501 -0.24491098089E+03 -0.39641672929E+01  0.13250537038E+04  0.13578760024E+04  0.16751960061E+03 0.  0.
        -24    2    5    5    0    0 -0.26117635528E+03  0.91319981814E+01  0.12583245230E+04  0.12877978636E+04  0.82135561401E+02 0.  0.
          5    1    3    3  502    0  0.23467426350E+02 -0.37484136763E+02  0.66540876946E+02  0.80034735666E+02  0.47000000000E+01 0. -1.
        -11    1    4    4    0    0  0.95556246557E+02  0.56467886416E+02  0.20978259752E+02  0.11295886789E+03  0.00000000000E+00 0.  1.
         12    1    4    4    0    0  0.12588730798E+03 -0.15019582360E+02  0.52341126703E+02  0.13715974522E+03  0.00000000000E+00 0. -1.
         -5    1    5    5    0  501  0.16265374390E+02 -0.13096165474E+02  0.66729180818E+02  0.70078138723E+02  0.47000000000E+01 0.  1.
         11    1    6    6    0    0 -0.11325320616E+03 -0.34927458611E+02  0.49064180090E+03  0.50475300183E+03  0.00000000000E+00 0. -1.
        -12    1    6    6    0    0 -0.14792314912E+03  0.44059456792E+02  0.76768272210E+03  0.78304486180E+03  0.00000000000E+00 0.  1.
</event>
<event>
12    1  0.1081556E+000  0.2998822E+03  0.7818608E-02  0.1085300E+00
          2   -1    0    0  502    0  0.00000000000E+00  0.00000000000E+00  0.13120499315E+04  0.13120499315E+04  0.00000000000E+00 0. -1.
         -2   -1    0    0    0  501 -0.00000000000E+00 -0.00000000000E+00 -0.84953493103E+02  0.84953493103E+02  0.00000000000E+00 0.  1.
          6    2    1    2  502    0  0.23758000375E+03 -0.63122417023E+02  0.30671590621E+03  0.42903519950E+03  0.17195306795E+03 0.  0.
         24    2    3    3    0    0  0.24404928603E+03 -0.28983586425E+02  0.29453912743E+03  0.39191815073E+03  0.80289706630E+02 0.  0.
         -6    2    1    2    0  501 -0.23758000375E+03  0.63122417023E+02  0.92038053220E+03  0.96796822511E+03  0.17156183452E+03 0.  0.
        -24    2    5    5    0    0 -0.84509701216E+02  0.74710180883E+02  0.33913658539E+03  0.36677656725E+03  0.82388870619E+02 0.  0.
          5    1    3    3  502    0 -0.64692822847E+01 -0.34138830598E+02  0.12176778780E+02  0.37117048769E+02  0.47000000000E+01 0. -1.
        -13    1    4    4    0    0  0.21199474006E+03 -0.44373580120E+02  0.27877044807E+03  0.35302088769E+03  0.00000000000E+00 0.  1.
         14    1    4    4    0    0  0.32054545977E+02  0.15389993695E+02  0.15768679355E+02  0.38897263044E+02  0.00000000000E+00 0. -1.
         -5    1    5    5    0  501 -0.15307030253E+03 -0.11587763860E+02  0.58124394681E+03  0.60119165787E+03  0.47000000000E+01 0.  1.
         13    1    6    6    0    0 -0.60094978618E+02 -0.68668731699E+00  0.13383555389E+03  0.14671003196E+03  0.00000000000E+00 0. -1.
        -14    1    6    6    0    0 -0.24414722598E+02  0.75396868200E+02  0.20530103151E+03  0.22006653528E+03  0.00000000000E+00 0.  1.
</event>
<event>
12    1  0.1081556E+000  0.8403825E+03  0.7818608E-02  0.9503337E-01
         -1   -1    0    0    0  501 -0.00000000000E+00  0.00000000000E+00  0.67325858209E+03  0.67325858209E+03  0.00000000000E+00 0.  1.
          1   -1    0    0  502    0  0.00000000000E+00 -0.00000000000E+00 -0.12860769760E+04  0.12860769760E+04  0.00000000000E+00 0. -1.
          6    2    1    2  502    0  0.49958398588E+03  0.65193607884E+03  0.11450493957E+03  0.84718785641E+03  0.17323704290E+03 0.  0.
         24    2    3    3    0    0  0.36467849550E+03  0.43872985937E+03  0.15972423299E+02  0.57628726558E+03  0.79859874627E+02 0.  0.
         -6    2    1    2    0  501 -0.49958398588E+03 -0.65193607884E+03 -0.72732333351E+03  0.11121477017E+04  0.18239646135E+03 0.  0.
        -24    2    5    5    0    0 -0.21937552102E+03 -0.39350033638E+03 -0.43924906811E+03  0.63432483794E+03  0.80374885593E+02 0.  0.
          5    1    3    3  502    0  0.13490549038E+03  0.21320621947E+03  0.98532516268E+02  0.27090059084E+03  0.47000000000E+01 0. -1.
        -13    1    4    4    0    0  0.32249900629E+03  0.37315967413E+03  0.39669529946E+02  0.49480038709E+03  0.00000000000E+00 0.  1.
         14    1    4    4    0    0  0.42179489210E+02  0.65570185242E+02 -0.23697106647E+02  0.81486878491E+02  0.00000000000E+00 0. -1.
         -5    1    5    5    0  501 -0.28020846486E+03 -0.25843574246E+03 -0.28807426540E+03  0.47782286377E+03  0.47000000000E+01 0.  1.
         13    1    6    6    0    0 -0.14217225317E+03 -0.18960156853E+03 -0.19478903371E+03  0.30676452209E+03  0.00000000000E+00 0. -1.
        -14    1    6    6    0    0 -0.77203267851E+02 -0.20389876785E+03 -0.24446003441E+03  0.32756031585E+03  0.00000000000E+00 0.  1.
</event>
<event>
12    1  0.1081556E+000  0.5899222E+03  0.7818608E-02  0.9926538E-01
         -2   -1    0    0    0  501 -0.00000000000E+00  0.00000000000E+00  0.81920708012E+03  0.81920708012E+03  0.00000000000E+00 0.  1.
          2   -1    0    0  502    0  0.00000000000E+00 -0.00000000000E+00 -0.51289692571E+03  0.51289692571E+03  0.00000000000E+00 0. -1.
          6    2    1    2  502    0  0.56222282643E+03  0.53455221055E+02  0.42909051678E+03  0.72913991431E+03  0.16903956884E+03 0.  0.
         24    2    3    3    0    0  0.20754170946E+03  0.44895442737E+02  0.22851246820E+03  0.32155482122E+03  0.78040969893E+02 0.  0.
         -6    2    1    2    0  501 -0.56222282643E+03 -0.53455221055E+02 -0.12278036237E+03  0.60296409152E+03  0.17186829570E+03 0.  0.
        -24    2    5    5    0    0 -0.26540375509E+03 -0.71570970796E+01  0.16451690833E+01  0.27777356234E+03  0.81639868316E+02 0.  0.
          5    1    3    3  502    0  0.35468111696E+03  0.85597783179E+01  0.20057804858E+03  0.40758509309E+03  0.47000000000E+01 0. -1.
        -11    1    4    4    0    0  0.94852138004E+02 -0.77914060132E+01  0.61531880001E+02  0.11333051817E+03  0.00000000000E+00 0.  1.
         12    1    4    4    0    0  0.11268957146E+03  0.52686848750E+02  0.16698058820E+03  0.20822430305E+03  0.00000000000E+00 0. -1.
         -5    1    5    5    0  501 -0.29681907134E+03 -0.46298123975E+02 -0.12442553145E+03  0.32519052918E+03  0.47000000000E+01 0.  1.
         13    1    6    6    0    0 -0.21729839719E+03 -0.31476422843E+02  0.20843783778E+02  0.22055344463E+03  0.00000000000E+00 0. -1.
        -14    1    6    6    0    0 -0.48105357900E+02  0.24319325764E+02 -0.19198614695E+02  0.57220117707E+02  0.00000000000E+00 0.  1.
</event>
<event>
12    1  0.1081556E+000  0.5326380E+03  0.7818608E-02  0.1005594E+00
         -2   -1    0    0    0  501 -0.00000000000E+00  0.00000000000E+00  0.23125679634E+03  0.23125679634E+03  0.00000000000E+00 0.  1.
          2   -1    0    0  502    0  0.00000000000E+00 -0.00000000000E+00 -0.20224231658E+04  0.20224231658E+04  0.00000000000E+00 0. -1.
          6    2    1    2  502    0  0.22024464691E+03 -0.45340435595E+03 -0.18861119658E+03  0.56486702274E+03  0.17151488397E+03 0.  0.
         24    2    3    3    0    0  0.96373569026E+02 -0.30106912743E+03 -0.64065556387E+02  0.33230784259E+03  0.79960130275E+02 0.  0.
         -6    2    1    2    0  501 -0.22024464691E+03  0.45340435595E+03 -0.16025551729E+04  0.16888129394E+04  0.17269292872E+03 0.  0.
        -24    2    5    5    0    0 -0.16869389894E+03  0.33341263386E+03 -0.13674609707E+04  0.14198392104E+04  0.79826443318E+02 0.  0.
          5    1    3    3  502    0  0.12387107788E+03 -0.15233522852E+03 -0.12454564019E+03  0.23255918015E+03  0.47000000000E+01 0. -1.
        -11    1    4    4    0    0  0.27668570391E+02 -0.29736182633E+02  0.11828056232E+02  0.42304766390E+02  0.00000000000E+00 0.  1.
         12    1    4    4    0    0  0.68704998635E+02 -0.27133294480E+03 -0.75893612619E+02  0.29000307620E+03  0.00000000000E+00 0. -1.
         -5    1    5    5    0  501 -0.51550747966E+02  0.11999172208E+03 -0.23509420219E+03  0.26897372900E+03  0.47000000000E+01 0.  1.
         13    1    6    6    0    0 -0.66018067989E+02  0.19080624127E+03 -0.83796672663E+03  0.86194758654E+03  0.00000000000E+00 0. -1.
        -14    1    6    6    0    0 -0.10267583095E+03  0.14260639260E+03 -0.52949424404E+03  0.55789162383E+03  0.00000000000E+00 0.  1.
</event>
<event>
12    1  0.1081556E+000  0.3988990E+03  0.7818608E-02  0.1044162E+00
         -1   -1    0    0    0  501 -0.00000000000E+00  0.00000000000E+00  0.28008617573E+03  0.28008617573E+03  0.00000000000E+00 0.  1.
          1   -1    0    0  502    0  0.00000000000E+00 -0.00000000000E+00 -0.13722430768E+04  0.13722430768E+04  0.00000000000E+00 0. -1.
          6    2    1    2  502    0  0.35730106730E+03  0.41011987171E+02  0.86216315716E+02  0.40834779918E+03  0.17311451763E+03 0.  0.
         24    2    3    3    0    0  0.35380896710E+03  0.29227665963E+02  0.11213869690E+03  0.37927676830E+03  0.72392941474E+02 0.  0.
         -6    2    1    2    0  501 -0.35730106730E+03 -0.41011987171E+02 -0.11783732168E+04  0.12439814533E+04  0.17198948350E+03 0.  0.
        -24    2    5    5    0    0 -0.20761606552E+03  0.27881832847E+02 -0.53844079659E+03  0.58315806497E+03  0.79202336126E+02 0.  0.
          5    1    3    3  502    0  0.34921002017E+01  0.11784321209E+02 -0.25922381183E+02  0.29071030879E+02  0.47000000000E+01 0. -1.
        -11    1    4    4    0    0  0.19801289133E+03  0.49793679368E+02  0.77251007845E+02  0.21830307797E+03  0.00000000000E+00 0.  1.
         12    1    4    4    0    0  0.15579607576E+03 -0.20566013405E+02  0.34887689055E+02  0.16097369033E+03  0.00000000000E+00 0. -1.
         -5    1    5    5    0  501 -0.14968500178E+03 -0.68893820018E+02 -0.63993242018E+03  0.66082338835E+03  0.47000000000E+01 0.  1.
         13    1    6    6    0    0 -0.19432895827E+02  0.69042362476E+01 -0.14573515068E+03  0.14718709204E+03  0.00000000000E+00 0. -1.
        -14    1    6    6    0    0 -0.18818316970E+03  0.20977596599E+02 -0.39270564590E+03  0.43597097293E+03  0.00000000000E+00 0.  1.
</event>
<event>
12    1  0.1081556E+000  0.4125118E+03  0.7818608E-02  0.1039531E+00
          1   -1    0    0  502    0  0.00000000000E+00  0.00000000000E+00  0.10318191900E+04  0.10318191900E+04  0.00000000000E+00 0. -1.
         -1   -1    0    0    0  501 -0.00000000000E+00 -0.00000000000E+00 -0.77070766028E+03  0.77070766028E+03  0.00000000000E+00 0.  1.
          6    2    1    2  502    0  0.37506617179E+03 -0.93381371780E+01 -0.66846737526E+03  0.78562116121E+03  0.17201785700E+03 0.  0.
         24    2    3    3    0    0  0.35056681750E+03  0.24913381439E+02 -0.64048668230E+03  0.73484327166E+03  0.79080171974E+02 0.  0.
         -6    2    1    2    0  501 -0.37506617179E+03  0.93381371780E+01  0.92957890503E+03  0.10169056891E+04  0.17093392250E+03 0.  0.
        -24    2    5    5    0    0 -0.15041546622E+03  0.31473740869E+02  0.51103913080E+03  0.54134753592E+03  0.90998640618E+02 0.  0.
          5    1    3    3  502    0  0.24499354289E+02 -0.34251518617E+02 -0.27980692960E+02  0.50777889545E+02  0.47000000000E+01 0. -1.
        -13    1    4    4    0    0  0.32782811168E+03  0.98918407112E+01 -0.55025013881E+03  0.64058124745E+03  0.00000000000E+00 0.  1.
         14    1    4    4    0    0  0.22738705813E+02  0.15021540728E+02 -0.90236543485E+02  0.94262024209E+02  0.00000000000E+00 0. -1.
         -5    1    5    5    0  501 -0.22465070556E+03 -0.22135603691E+02  0.41853977423E+03  0.47555815320E+03  0.47000000000E+01 0.  1.
         13    1    6    6    0    0 -0.58601992497E+02 -0.29379504129E+02  0.14577582679E+03  0.15983723116E+03  0.00000000000E+00 0. -1.
        -14    1    6    6    0    0 -0.91813473725E+02  0.60853244998E+02  0.36526330401E+03  0.38151030476E+03  0.00000000000E+00 0.  1.
</event>
<event>
12    1  0.1081556E+000  0.5411123E+03  0.7818608E-02  0.1003572E+00
          2   -1    0    0  502    0  0.00000000000E+00  0.00000000000E+00  0.16235578842E+04  0.16235578842E+04  0.00000000000E+00 0. -1.
         -2   -1    0    0    0  501 -0.00000000000E+00 -0.00000000000E+00 -0.19972603259E+03  0.19972603259E+03  0.00000000000E+00 0.  1.
          6    2    1    2  502    0 -0.14184081509E+03  0.49300081938E+03  0.42794487919E+03  0.68988702228E+03  0.17215881956E+03 0.  0.
         24    2    3    3    0    0 -0.15957567158E+03  0.47265813249E+03  0.37236074664E+03  0.62791899959E+03  0.82217025238E+02 0.  0.
         -6    2    1    2    0  501  0.14184081509E+03 -0.49300081938E+03  0.99588697247E+03  0.11333968946E+04  0.17213086273E+03 0.  0.
        -24    2    5    5    0    0  0.13406325695E+03 -0.23273905122E+03  0.49257818447E+03  0.56670605780E+03  0.79887829522E+02 0.  0.
          5    1    3    3  502    0  0.17734856493E+02  0.20342686896E+02  0.55584132559E+02  0.61968022700E+02  0.47000000000E+01 0. -1.
        -13    1    4    4    0    0 -0.54598049831E+02  0.19534526936E+03  0.10375128047E+03  0.22782679716E+03  0.00000000000E+00 0.  1.
         14    1    4    4    0    0 -0.10497762175E+03  0.27731286312E+03  0.26860946617E+03  0.40009220242E+03  0.00000000000E+00 0. -1.
         -5    1    5    5    0  501  0.77775581403E+01 -0.26026176816E+03  0.50330878800E+03  0.56669083675E+03  0.47000000000E+01 0.  1.
         11    1    6    6    0    0  0.58068454400E+02 -0.97272718347E+02  0.29065714562E+03  0.31195432908E+03  0.00000000000E+00 0. -1.
        -12    1    6    6    0    0  0.75994802551E+02 -0.13546633287E+03  0.20192103885E+03  0.25475172872E+03  0.00000000000E+00 0.  1.
</event>
<event>
12    1  0.1081556E+000  0.1716026E+03  0.7818608E-02  0.1176187E+00
          1   -1    0    0  502    0  0.00000000000E+00  0.00000000000E+00  0.56482185292E+03  0.56482185292E+03  0.00000000000E+00 0. -1.
         -1   -1    0    0    0  501 -0.00000000000E+00 -0.00000000000E+00 -0.56114773675E+03  0.56114773675E+03  0.00000000000E+00 0.  1.
          6    2    1    2  502    0  0.10490112813E+02  0.16848290408E+01 -0.53435651579E+03  0.56133637478E+03  0.17160640597E+03 0.  0.
         24    2    3    3    0    0 -0.19058236053E+02  0.18882113632E+01 -0.52303774224E+03  0.52934651827E+03  0.79198957604E+02 0.  0.
         -6    2    1    2    0  501 -0.10490112813E+02 -0.16848290408E+01  0.53803063196E+03  0.56463321490E+03  0.17094099955E+03 0.  0.
        -24    2    5    5    0    0  0.29670921360E+00  0.35135153445E+02  0.13455303157E+03  0.15930824570E+03  0.77717641499E+02 0.  0.
          5    1    3    3  502    0  0.29548348865E+02 -0.20338232233E+00 -0.11318773542E+02  0.31989856510E+02  0.47000000000E+01 0. -1.
        -13    1    4    4    0    0 -0.43902156796E+02  0.66994317463E+01 -0.18079802198E+03  0.18617251813E+03  0.00000000000E+00 0.  1.
         14    1    4    4    0    0  0.24843920743E+02 -0.48112203831E+01 -0.34223972027E+03  0.34317400013E+03  0.00000000000E+00 0. -1.
         -5    1    5    5    0  501 -0.10786822026E+02 -0.36819982486E+02  0.40347760039E+03  0.40532496919E+03  0.47000000000E+01 0.  1.
         11    1    6    6    0    0 -0.38108923718E+02  0.17551623386E+02  0.79780362146E+02  0.90140200435E+02  0.00000000000E+00 0. -1.
        -12    1    6    6    0    0  0.38405632932E+02  0.17583530060E+02  0.54772669424E+02  0.69168045267E+02  0.00000000000E+00 0.  1.
</event>
<event>
12    1  0.1081556E+000  0.8105288E+03  0.7818608E-02  0.9544901E-01
          1   -1    0    0  502    0  0.00000000000E+00  0.00000000000E+00  0.21506480092E+04  0.21506480092E+04  0.00000000000E+00 0. -1.
         -1   -1    0    0    0  501 -0.00000000000E+00 -0.00000000000E+00 -0.18647844992E+04  0.18647844992E+04  0.00000000000E+00 0.  1.
          6    2    1    2  502    0  0.72616533060E+03  0.31644781447E+03 -0.16929899868E+04  0.18770617350E+04  0.17230889456E+03 0.  0.
         24    2    3    3    0    0  0.61021043257E+03  0.21319686693E+03 -0.14329889827E+04  0.15741939277E+04  0.82579789646E+02 0.  0.
         -6    2    1    2    0  501 -0.72616533060E+03 -0.31644781447E+03  0.19788534968E+04  0.21383707734E+04  0.17121067657E+03 0.  0.
        -24    2    5    5    0    0 -0.45233524875E+03 -0.19569031346E+03  0.14051892521E+04  0.14913174189E+04  0.81048959150E+02 0.  0.
          5    1    3    3  502    0  0.11595489802E+03  0.10325094754E+03 -0.26000100411E+03  0.30286780727E+03  0.47000000000E+01 0. -1.
        -13    1    4    4    0    0  0.54932256890E+03  0.20002957183E+03 -0.13432383461E+04  0.14649424455E+04  0.00000000000E+00 0.  1.
         14    1    4    4    0    0  0.60887863679E+02  0.13167295100E+02 -0.89750636575E+02  0.10925148223E+03  0.00000000000E+00 0. -1.
         -5    1    5    5    0  501 -0.27383008184E+03 -0.12075750100E+03  0.57366424474E+03  0.64705335442E+03  0.47000000000E+01 0.  1.
         11    1    6    6    0    0 -0.29876233492E+03 -0.96837455143E+02  0.96208242253E+03  0.10120469422E+04  0.00000000000E+00 0. -1.
        -12    1    6    6    0    0 -0.15357291383E+03 -0.98852858321E+02  0.44310682956E+03  0.47927047673E+03  0.00000000000E+00 0.  1.
</event>
<event>
12    1  0.1081556E+000  0.2993697E+03  0.7818608E-02  0.1085556E+00
          2   -1    0    0  502    0  0.00000000000E+00  0.00000000000E+00  0.61701542793E+03  0.61701542793E+03  0.00000000000E+00 0. -1.
         -2   -1    0    0    0  501 -0.00000000000E+00 -0.00000000000E+00 -0.16012005693E+03  0.16012005693E+03  0.00000000000E+00 0.  1.
          6    2    1    2  502    0  0.16567972902E+03  0.17987176908E+03  0.11041821069E+03  0.31959497556E+03  0.17362356186E+03 0.  0.
         24    2    3    3    0    0  0.10117466053E+03  0.13832799972E+03 -0.34241821506E+01  0.18223060958E+03  0.61849192445E+02 0.  0.
         -6    2    1    2    0  501 -0.16567972902E+03 -0.17987176908E+03  0.34647716032E+03  0.45754050930E+03  0.17173604487E+03 0.  0.
        -24    2    5    5    0    0 -0.65494734110E+02 -0.41322339825E+02  0.67856209781E+02  0.13060825082E+03  0.80355174150E+02 0.  0.
          5    1    3    3  502    0  0.64505068488E+02  0.41543769362E+02  0.11384239284E+03  0.13736436598E+03  0.47000000000E+01 0. -1.
        -11    1    4    4    0    0  0.26339901748E+02  0.27046100165E+02 -0.26540922997E+02  0.46148700434E+02  0.00000000000E+00 0.  1.
         12    1    4    4    0    0  0.74834758781E+02  0.11128189956E+03  0.23116740846E+02  0.13608190915E+03  0.00000000000E+00 0. -1.
         -5    1    5    5    0  501 -0.10018499491E+03 -0.13854942926E+03  0.27862095054E+03  0.32693225847E+03  0.47000000000E+01 0.  1.
         11    1    6    6    0    0 -0.22496036702E+02 -0.55075967492E+02  0.60530980089E+02  0.84873042911E+02  0.00000000000E+00 0. -1.
        -12    1    6    6    0    0 -0.42998697409E+02  0.13753627667E+02  0.73252296925E+01  0.45735207914E+02  0.00000000000E+00 0.  1.
</event>
<event>
12    1  0.1081556E+000  0.3325881E+03  0.7818608E-02  0.1069997E+00
          2   -1    0    0  502    0  0.00000000000E+00  0.00000000000E+00  0.13944223155E+04  0.13944223155E+04  0.00000000000E+00 0. -1.
         -2   -1    0    0    0  501 -0.00000000000E+00 -0.00000000000E+00 -0.79934877640E+02  0.79934877640E+02  0.00000000000E+00 0.  1.
          6    2    1    2  502    0  0.20944560767E+03 -0.19340278613E+03  0.72114626691E+03  0.79405972135E+03  0.17089997818E+03 0.  0.
         24    2    3    3    0    0  0.19754317944E+03 -0.21834583241E+03  0.64984015763E+03  0.71744069906E+03  0.75701492292E+02 0.  0.
         -6    2    1    2    0  501 -0.20944560767E+03  0.19340278613E+03  0.59334117096E+03  0.68029747179E+03  0.17169392744E+03 0.  0.
        -24    2    5    5    0    0 -0.11053955670E+03  0.93344813245E+02  0.44930206930E+03  0.47889400196E+03  0.80838529649E+02 0.  0.
          5    1    3    3  502    0  0.11902428231E+02  0.24943046281E+02  0.71306109280E+02  0.76619022287E+02  0.47000000000E+01 0. -1.
        -11    1    4    4    0    0  0.52246630198E+02 -0.89182062839E+02  0.29867913642E+03  0.31605755367E+03  0.00000000000E+00 0.  1.
         12    1    4    4    0    0  0.14529654924E+03 -0.12916376957E+03  0.35116102120E+03  0.40138314539E+03  0.00000000000E+00 0. -1.
         -5    1    5    5    0  501 -0.98906050969E+02  0.10005797289E+03  0.14403910166E+03  0.20140346984E+03  0.47000000000E+01 0.  1.
         13    1    6    6    0    0 -0.35732268662E+02 -0.10921525844E+02  0.96885623520E+02  0.10384073765E+03  0.00000000000E+00 0. -1.
        -14    1    6    6    0    0 -0.74807288041E+02  0.10426633909E+03  0.35241644578E+03  0.37505326431E+03  0.00000000000E+00 0.  1.
</event>
<event>
12    1  0.1081556E+000  0.1724987E+03  0.7818608E-02  0.1175267E+00
          2   -1    0    0  502    0  0.00000000000E+00  0.00000000000E+00  0.23188107995E+04  0.23188107995E+04  0.00000000000E+00 0. -1.
         -2   -1    0    0    0  501 -0.00000000000E+00 -0.00000000000E+00 -0.72727606569E+02  0.72727606569E+02  0.00000000000E+00 0.  1.
          6    2    1    2  502    0  0.11394980136E+02  0.57205710623E+01  0.38408516404E+02  0.17717036519E+03  0.17248638689E+03 0.  0.
         24    2    3    3    0    0  0.33390840088E+02 -0.57646401689E+02  0.35639054435E+02  0.10987288373E+03  0.79773758527E+02 0.  0.
         -6    2    1    2    0  501 -0.11394980136E+02 -0.57205710623E+01  0.22076746765E+04  0.22143680409E+04  0.17156856525E+03 0.  0.
        -24    2    5    5    0    0 -0.24196118713E+02  0.32732595266E+02  0.20426811703E+04  0.20444049206E+04  0.73404638957E+02 0.  0.
          5    1    3    3  502    0 -0.21995859952E+02  0.63366972752E+02  0.27694619689E+01  0.67297481456E+02  0.47000000000E+01 0. -1.
        -11    1    4    4    0    0 -0.17294931943E+02 -0.90758732744E+01 -0.13882677866E+02  0.23962781377E+02  0.00000000000E+00 0.  1.
         12    1    4    4    0    0  0.50685772031E+02 -0.48570528415E+02  0.49521732301E+02  0.85910102357E+02  0.00000000000E+00 0. -1.
         -5    1    5    5    0  501  0.12801138577E+02 -0.38453166329E+02  0.16499350623E+03  0.16996312026E+03  0.47000000000E+01 0.  1.
         11    1    6    6    0    0 -0.89930405444E+01  0.37767334404E+02  0.45791292881E+03  0.45955576016E+03  0.00000000000E+00 0. -1.
        -12    1    6    6    0    0 -0.15203078169E+02 -0.50347391376E+01  0.15847682415E+04  0.15848491605E+04  0.00000000000E+00 0.  1.
</event>
<event>
12    1  0.1081556E+000  0.5718272E+03  0.7818608E-02  0.9965643E-01
         -2   -1    0    0    0  501 -0.00000000000E+00  0.00000000000E+00  0.33236070106E+03  0.33236070106E+03  0.00000000000E+00 0.  1.
          2   -1    0    0  502    0  0.00000000000E+00 -0.00000000000E+00 -0.10397452640E+04  0.10397452640E+04  0.00000000000E+00 0. -1.
          6    2    1    2  502    0  0.54160340479E+03 -0.62506118457E+02 -0.19462087390E+03  0.60407961997E+03  0.17260834214E+03 0.  0.
         24    2    3    3    0    0  0.15534288829E+03 -0.37063077742E+02 -0.15669994115E+02  0.17759393169E+03  0.76085288878E+02 0.  0.
         -6    2    1    2    0  501 -0.54160340479E+03  0.62506118457E+02 -0.51276368904E+03  0.76802634509E+03  0.17232702351E+03 0.  0.
        -24    2    5    5    0    0 -0.25842045286E+03  0.94203742180E+02 -0.24615884818E+03  0.37777315192E+03  0.80392165499E+02 0.  0.
          5    1    3    3  502    0  0.38626051650E+03 -0.25443040715E+02 -0.17895087979E+03  0.42648568828E+03  0.47000000000E+01 0. -1.
        -13    1    4    4    0    0  0.12632663561E+03 -0.16654232231E+02  0.17999617752E+02  0.12868476427E+03  0.00000000000E+00 0.  1.
         14    1    4    4    0    0  0.29016252682E+02 -0.20408845511E+02 -0.33669611867E+02  0.48909167423E+02  0.00000000000E+00 0. -1.
         -5    1    5    5    0  501 -0.28318295193E+03 -0.31697623723E+02 -0.26660484086E+03  0.39025319317E+03  0.47000000000E+01 0.  1.
         13    1    6    6    0    0 -0.11182155017E+03  0.20415141639E+02 -0.56422332109E+02  0.12690278426E+03  0.00000000000E+00 0. -1.
        -14    1    6    6    0    0 -0.14659890269E+03  0.73788600541E+02 -0.18973651607E+03  0.25087036766E+03  0.00000000000E+00 0.  1.
</event>
<event>
12    1  0.1081556E+000  0.6661693E+03  0.7818608E-02  0.9776903E-01
         -2   -1    0    0    0  501 -0.00000000000E+00  0.00000000000E+00  0.15952468932E+03  0.15952468932E+03  0.00000000000E+00 0.  1.
          2   -1    0    0  502    0  0.00000000000E+00 -0.00000000000E+00 -0.27902186140E+04  0.27902186140E+04  0.00000000000E+00 0. -1.
          6    2    1    2  502    0  0.54670950768E+03  0.33943563611E+03 -0.12344833295E+04  0.14026790440E+04  0.17161460544E+03 0.  0.
         24    2    3    3    0    0  0.19646278991E+03  0.18249200467E+03 -0.46191181810E+03  0.54001288784E+03  0.79689596182E+02 0.  0.
         -6    2    1    2    0  501 -0.54670950768E+03 -0.33943563611E+03 -0.13962105952E+04  0.15470642593E+04  0.17290448089E+03 0.  0.
        -24    2    5    5    0    0 -0.42949379050E+03 -0.19474956916E+03 -0.94859585032E+03  0.10622399281E+04  0.78276860179E+02 0.  0.
          5    1    3    3  502    0  0.35024671777E+03  0.15694363144E+03 -0.77257151138E+03  0.86266615614E+03  0.47000000000E+01 0. -1.
        -13    1    4    4    0    0  0.69169062599E+02  0.62305740815E+02 -0.92586994984E+02  0.13129629164E+03  0.00000000000E+00 0.  1.
         14    1    4    4    0    0  0.12729372732E+03  0.12018626385E+03 -0.36932482312E+03  0.40871659619E+03  0.00000000000E+00 0. -1.
         -5    1    5    5    0  501 -0.11721571718E+03 -0.14468606695E+03 -0.44761474487E+03  0.48482433123E+03  0.47000000000E+01 0.  1.
         11    1    6    6    0    0 -0.76732349165E+02 -0.65237977526E+02 -0.23705498428E+03  0.25756341489E+03  0.00000000000E+00 0. -1.
        -12    1    6    6    0    0 -0.35276144133E+03 -0.12951159164E+03 -0.71154086604E+03  0.80467651321E+03  0.00000000000E+00 0.  1.
</event>
<event>
12    1  0.1081556E+000  0.2737592E+03  0.7818608E-02  0.1099147E+00
          2   -1    0    0  502    0  0.00000000000E+00  0.00000000000E+00  0.45990362733E+03  0.45990362733E+03  0.00000000000E+00 0. -1.
         -2   -1    0    0    0  501 -0.00000000000E+00 -0.00000000000E+00 -0.12464094061E+04  0.12464094061E+04  0.00000000000E+00 0.  1.
          6    2    1    2  502    0  0.18533680644E+03  0.10034487092E+03 -0.11885307940E+04  0.12194681349E+04  0.17343084760E+03 0.  0.
         24    2    3    3    0    0  0.14499958272E+03  0.33361992006E+02 -0.10169670007E+04  0.10308679683E+04  0.79554924711E+02 0.  0.
         -6    2    1    2    0  501 -0.18533680644E+03 -0.10034487092E+03  0.40202501520E+03  0.48684489852E+03  0.17599720858E+03 0.  0.
        -24    2    5    5    0    0 -0.20321192320E+03 -0.54309009419E+02  0.34419535031E+03  0.41065316350E+03  0.76948211705E+02 0.  0.
          5    1    3    3  502    0  0.40337223723E+02  0.66982878916E+02 -0.17156379328E+03  0.18860016662E+03  0.47000000000E+01 0. -1.
        -11    1    4    4    0    0  0.53308615105E+02  0.51574952509E+02 -0.50810208742E+03  0.51348760006E+03  0.00000000000E+00 0.  1.
         12    1    4    4    0    0  0.91690967612E+02 -0.18212960503E+02 -0.50886491328E+03  0.51738036824E+03  0.00000000000E+00 0. -1.
         -5    1    5    5    0  501  0.17875116761E+02 -0.46035861502E+02  0.57829664887E+02  0.76191735014E+02  0.47000000000E+01 0.  1.
         11    1    6    6    0    0 -0.98814278960E+02 -0.33512972612E+02  0.10116851434E+03  0.14533564378E+03  0.00000000000E+00 0. -1.
        -12    1    6    6    0    0 -0.10439764424E+03 -0.20796036807E+02  0.24302683597E+03  0.26531751972E+03  0.00000000000E+00 0.  1.
</event>
<event>
12    1  0.1081556E+000  0.4855552E+03  0.7818608E-02  0.1017620E+00
         -2   -1    0    0    0  501 -0.00000000000E+00  0.00000000000E+00  0.41518186694E+03  0.41518186694E+03  0.00000000000E+00 0.  1.
          2   -1    0    0  502    0  0.00000000000E+00 -0.00000000000E+00 -0.14326757678E+04  0.14326757678E+04  0.00000000000E+00 0. -1.
          6    2    1    2  502    0 -0.31162955977E+03 -0.32800300622E+03 -0.12259092426E+04  0.13179717805E+04  0.17174745590E+03 0.  0.
         24    2    3    3    0    0 -0.17472573370E+03 -0.99876433382E+02 -0.58836482797E+03  0.62712493684E+03  0.81290415521E+02 0.  0.
         -6    2    1    2    0  501  0.31162955977E+03  0.32800300622E+03  0.20841534179E+03  0.52988585415E+03  0.18067404111E+03 0.  0.
        -24    2    5    5    0    0  0.20564941856E+03  0.30860402300E+03  0.16304287464E+03  0.41288644537E+03  0.79775381133E+02 0.  0.
          5    1    3    3  502    0 -0.13690382607E+03 -0.22812657284E+03 -0.63754441464E+03  0.69084684371E+03  0.47000000000E+01 0. -1.
        -13    1    4    4    0    0 -0.59173147861E+02 -0.67718198274E+02 -0.33406888500E+03  0.34596132115E+03  0.00000000000E+00 0.  1.
         14    1    4    4    0    0 -0.11555258584E+03 -0.32158235108E+02 -0.25429594296E+03  0.28116361569E+03  0.00000000000E+00 0. -1.
         -5    1    5    5    0  501  0.10598014120E+03  0.19398983216E+02  0.45372467149E+02  0.11699940878E+03  0.47000000000E+01 0.  1.
         11    1    6    6    0    0  0.11445720876E+03  0.23720188418E+03  0.11835969342E+03  0.28874591516E+03  0.00000000000E+00 0. -1.
        -12    1    6    6    0    0  0.91192209807E+02  0.71402138817E+02  0.44683181217E+02  0.12414053021E+03  0.00000000000E+00 0.  1.
</event>
<event>
12    1  0.1081556E+000  0.3022609E+03  0.7818608E-02  0.1084116E+00
          2   -1    0    0  502    0  0.00000000000E+00  0.00000000000E+00  0.69660061280E+03  0.69660061280E+03  0.00000000000E+00 0. -1.
         -2   -1    0    0    0  501 -0.00000000000E+00 -0.00000000000E+00 -0.17880777718E+04  0.17880777718E+04  0.00000000000E+00 0.  1.
          6    2    1    2  502    0 -0.16636846184E+03 -0.18428586235E+03 -0.17415530759E+04  0.17674667165E+04  0.17114827986E+03 0.  0.
         24    2    3    3    0    0 -0.11676086949E+03 -0.19441840954E+03 -0.15771264376E+04  0.15953568937E+04  0.80026242428E+02 0.  0.
         -6    2    1    2    0  501  0.16636846184E+03  0.18428586235E+03  0.65007591686E+03  0.71721166811E+03  0.17364946020E+03 0.  0.
        -24    2    5    5    0    0  0.14116027117E+03  0.13576213659E+03  0.33315316174E+03  0.39557192002E+03  0.84430651072E+02 0.  0.
          5    1    3    3  502    0 -0.49607592352E+02  0.10132547189E+02 -0.16442663823E+03  0.17210982276E+03  0.47000000000E+01 0. -1.
        -11    1    4    4    0    0 -0.11072464282E+02 -0.65561526525E+02 -0.64801339899E+03  0.65141559583E+03  0.00000000000E+00 0.  1.
         12    1    4    4    0    0 -0.10568840521E+03 -0.12885688302E+03 -0.92911303864E+03  0.94394129789E+03  0.00000000000E+00 0. -1.
         -5    1    5    5    0  501  0.25208190671E+02  0.48523725765E+02  0.31692275512E+03  0.32163974809E+03  0.47000000000E+01 0.  1.
         13    1    6    6    0    0  0.41099681204E+02  0.86546330571E+02  0.20094661201E+03  0.22261848982E+03  0.00000000000E+00 0. -1.
        -14    1    6    6    0    0  0.10006058996E+03  0.49215806019E+02  0.13220654973E+03  0.17295343020E+03  0.00000000000E+00 0.  1.
</event>
<event>
12    1  0.1081556E+000  0.2871924E+03  0.7818608E-02  0.1091824E+00
          1   -1    0    0  502    0  0.00000000000E+00  0.00000000000E+00  0.52454052054E+03  0.52454052054E+03  0.00000000000E+00 0. -1.
         -1   -1    0    0    0  501 -0.00000000000E+00 -0.00000000000E+00 -0.22874928711E+03  0.22874928711E+03  0.00000000000E+00 0.  1.
          6    2    1    2  502    0  0.56967894959E+02  0.22208731762E+03 -0.62570206805E+02  0.29425980568E+03  0.17350989815E+03 0.  0.
         24    2    3    3    0    0 -0.34725217888E+02  0.11668850615E+03 -0.20224992703E+02  0.14820589933E+03  0.82060282973E+02 0.  0.
         -6    2    1    2    0  501 -0.56967894959E+02 -0.22208731762E+03  0.35836144024E+03  0.45903000196E+03  0.17238765370E+03 0.  0.
        -24    2    5    5    0    0 -0.31036628277E+02 -0.55183140606E+02  0.21359716127E+03  0.23652557198E+03  0.79449025149E+02 0.  0.
          5    1    3    3  502    0  0.91693112847E+02  0.10539881147E+03 -0.42345214103E+02  0.14605390635E+03  0.47000000000E+01 0. -1.
        -11    1    4    4    0    0 -0.12030884482E+02  0.83245122773E+02 -0.50141580111E+02  0.97921758067E+02  0.00000000000E+00 0.  1.
         12    1    4    4    0    0 -0.22694333406E+02  0.33443383377E+02  0.29916587408E+02  0.50284141264E+02  0.00000000000E+00 0. -1.
         -5    1    5    5    0  501 -0.25931266682E+02 -0.16690417701E+03  0.14476427897E+03  0.22250442998E+03  0.47000000000E+01 0.  1.
         13    1    6    6    0    0 -0.38759763103E+02 -0.71453469094E+02  0.15228399526E+03  0.17262193572E+03  0.00000000000E+00 0. -1.
        -14    1    6    6    0    0  0.77231348262E+01  0.16270328488E+02  0.61313166010E+02  0.63903636256E+02  0.00000000000E+00 0.  1.
</event>
<event>
12    1  0.1081556E+000  0.8425930E+03  0.7818608E-02  0.9500333E-01
         -2   -1    0    0    0  501 -0.00000000000E+00  0.00000000000E+00  0.64364435777E+03  0.64364435777E+03  0.00000000000E+00 0.  1.
          2   -1    0    0  502    0  0.00000000000E+00 -0.00000000000E+00 -0.15694455401E+04  0.15694455401E+04  0.00000000000E+00 0. -1.
          6    2    1    2  502    0 -0.56367644225E+03 -0.60247019386E+03  0.14044009128E+03  0.85392186075E+03  0.16958083325E+03 0.  0.
         24    2    3    3    0    0 -0.24816760952E+03 -0.29021219564E+03  0.12707824382E+03  0.40979180103E+03  0.77266805479E+02 0.  0.
         -6    2    1    2    0  501  0.56367644225E+03  0.60247019386E+03 -0.10662412736E+04  0.13591680371E+04  0.17252777608E+03 0.  0.
        -24    2    5    5    0    0  0.15464100239E+03  0.17741384503E+03 -0.39029812899E+03  0.46200355080E+03  0.75664651114E+02 0.  0.
          5    1    3    3  502    0 -0.31550883273E+03 -0.31225799822E+03  0.13361847454E+02  0.44413005972E+03  0.47000000000E+01 0. -1.
        -11    1    4    4    0    0 -0.20355096681E+03 -0.20049410033E+03  0.11821226184E+03  0.30920061321E+03  0.00000000000E+00 0.  1.
         12    1    4    4    0    0 -0.44616642703E+02 -0.89718095305E+02  0.88659819858E+01  0.10059118782E+03  0.00000000000E+00 0. -1.
         -5    1    5    5    0  501  0.40903543986E+03  0.42505634882E+03 -0.67594314458E+03  0.89716448627E+03  0.47000000000E+01 0.  1.
         13    1    6    6    0    0  0.11025786643E+03  0.86122084237E+02 -0.27388344399E+03  0.30754829116E+03  0.00000000000E+00 0. -1.
        -14    1    6    6    0    0  0.44383135959E+02  0.91291760795E+02 -0.11641468500E+03  0.15445525964E+03  0.00000000000E+00 0.  1.
</event>
<event>
12    1  0.1081556E+000  0.9412728E+03  0.7818608E-02  0.9375410E-01
          2   -1    0    0  502    0  0.00000000000E+00  0.00000000000E+00  0.18586437625E+04  0.18586437625E+04  0.00000000000E+00 0. -1.
         -2   -1    0    0    0  501 -0.00000000000E+00 -0.00000000000E+00 -0.69770023109E+03  0.69770023109E+03  0.00000000000E+00 0.  1.
          6    2    1    2  502    0  0.56656789284E+03 -0.73170862391E+03  0.12998870732E+04  0.16049391145E+04  0.17241366157E+03 0.  0.
         24    2    3    3    0    0  0.42761405983E+03 -0.55403798265E+03  0.10825198871E+04  0.12916571200E+04  0.81956935941E+02 0.  0.
         -6    2    1    2    0  501 -0.56656789284E+03  0.73170862391E+03 -0.13894354174E+03  0.95140487913E+03  0.17166609663E+03 0.  0.
        -24    2    5    5    0    0 -0.51511347331E+03  0.71877068695E+03 -0.13519880447E+03  0.89800955575E+03  0.78544603057E+02 0.  0.
          5    1    3    3  502    0  0.13895383302E+03 -0.17767064126E+03  0.21736718609E+03  0.31328199448E+03  0.47000000000E+01 0. -1.
        -13    1    4    4    0    0  0.93492654936E+02 -0.72365366158E+02  0.19362510449E+03  0.22686626862E+03  0.00000000000E+00 0.  1.
         14    1    4    4    0    0  0.33412140489E+03 -0.48167261649E+03  0.88889478261E+03  0.10647908514E+04  0.00000000000E+00 0. -1.
         -5    1    5    5    0  501 -0.51454419531E+02  0.12937936957E+02 -0.37447372693E+01  0.53395323383E+02  0.47000000000E+01 0.  1.
         13    1    6    6    0    0 -0.39720139032E+02  0.93699368796E+02 -0.26906298015E+02  0.10526732651E+03  0.00000000000E+00 0. -1.
        -14    1    6    6    0    0 -0.47539333428E+03  0.62507131816E+03 -0.10829250646E+03  0.79274222924E+03  0.00000000000E+00 0.  1.
</event>
<event>
12    1  0.1081556E+000  0.4361660E+03  0.7818608E-02  0.1031930E+00
         -1   -1    0    0    0  501 -0.00000000000E+00  0.00000000000E+00  0.24062756360E+03  0.24062756360E+03  0.00000000000E+00 0.  1.
          1   -1    0    0  502    0  0.00000000000E+00 -0.00000000000E+00 -0.90227884640E+03  0.90227884640E+03  0.00000000000E+00 0. -1.
          6    2    1    2  502    0 -0.10611281822E+03  0.38266248546E+03 -0.12782340619E+03  0.45163843311E+03  0.17305474024E+03 0.  0.
         24    2    3    3    0    0 -0.59770713394E+02  0.95287354972E+02 -0.11347372553E+02  0.13807693561E+03  0.79273318875E+02 0.  0.
         -6    2    1    2    0  501  0.10611281822E+03 -0.38266248546E+03 -0.53382787660E+03  0.69126797689E+03  0.18758652955E+03 0.  0.
        -24    2    5    5    0    0 -0.17095351536E+02 -0.21278237202E+03 -0.24684814041E+03  0.33571352955E+03  0.78746305405E+02 0.  0.
          5    1    3    3  502    0 -0.46342104827E+02  0.28737513049E+03 -0.11647603364E+03  0.31356149750E+03  0.47000000000E+01 0. -1.
        -11    1    4    4    0    0 -0.66860617059E+02  0.49962173321E+02 -0.29803396762E+02  0.88627328376E+02  0.00000000000E+00 0.  1.
         12    1    4    4    0    0  0.70899036644E+01  0.45325181651E+02  0.18456024210E+02  0.49449607231E+02  0.00000000000E+00 0. -1.
         -5    1    5    5    0  501  0.12320816976E+03 -0.16988011344E+03 -0.28697973619E+03  0.35555444734E+03  0.47000000000E+01 0.  1.
         11    1    6    6    0    0 -0.33002643977E+02 -0.32473215214E+02 -0.44475720439E+02  0.64201043016E+02  0.00000000000E+00 0. -1.
        -12    1    6    6    0    0  0.15907292441E+02 -0.18030915681E+03 -0.20237241997E+03  0.27151248654E+03  0.00000000000E+00 0.  1.
</event>
<event>
12    1  0.1081556E+000  0.7171822E+03  0.7818608E-02  0.9688291E-01
         -2   -1    0    0    0  501 -0.00000000000E+00  0.00000000000E+00  0.33114259216E+03  0.33114259216E+03  0.00000000000E+00 0.  1.
          2   -1    0    0  502    0  0.00000000000E+00 -0.00000000000E+00 -0.16179414457E+04  0.16179414457E+04  0.00000000000E+00 0. -1.
          6    2    1    2  502    0  0.66498743678E+03  0.20652976927E+03 -0.83824088974E+03  0.11031662822E+04  0.17165436315E+03 0.  0.
         24    2    3    3    0    0  0.40747696199E+03  0.19395728820E+03 -0.56103729605E+03  0.72457199510E+03  0.81146930480E+02 0.  0.
         -6    2    1    2    0  501 -0.66498743678E+03 -0.20652976927E+03 -0.44855796380E+03  0.84591775561E+03  0.17178406704E+03 0.  0.
        -24    2    5    5    0    0 -0.43325172201E+03 -0.18250704446E+03 -0.35462228740E+03  0.59467179223E+03  0.82835366006E+02 0.  0.
          5    1    3    3  502    0  0.25751047479E+03  0.12572481068E+02 -0.27720359369E+03  0.37859428715E+03  0.47000000000E+01 0. -1.
        -11    1    4    4    0    0  0.17096656205E+03  0.46450245035E+02 -0.25642818569E+03  0.31167708453E+03  0.00000000000E+00 0.  1.
         12    1    4    4    0    0  0.23651039994E+03  0.14750704316E+03 -0.30460911036E+03  0.41289491057E+03  0.00000000000E+00 0. -1.
         -5    1    5    5    0  501 -0.23173571478E+03 -0.24022724810E+02 -0.93935676406E+02  0.25124596338E+03  0.47000000000E+01 0.  1.
         11    1    6    6    0    0 -0.35446004570E+03 -0.12737753724E+03 -0.24736437285E+03  0.45061745854E+03  0.00000000000E+00 0. -1.
        -12    1    6    6    0    0 -0.78791676308E+02 -0.55129507220E+02 -0.10725791455E+03  0.14405433369E+03  0.00000000000E+00 0.  1.
</event>
<event>
12    1  0.1081556E+000  0.4731606E+03  0.7818608E-02  0.1021032E+00
         -2   -1    0    0    0  501 -0.00000000000E+00  0.00000000000E+00  0.22285970455E+03  0.22285970455E+03  0.00000000000E+00 0.  1.
          2   -1    0    0  502    0  0.00000000000E+00 -0.00000000000E+00 -0.10610188357E+04  0.10610188357E+04  0.00000000000E+00 0. -1.
          6    2    1    2  502    0 -0.28144049890E+03 -0.33761959136E+03 -0.27212701113E+03  0.54696018956E+03  0.17865216452E+03 0.  0.
         24    2    3    3    0    0 -0.22680225326E+03 -0.20141815280E+03 -0.11973758931E+03  0.33534545558E+03  0.78172565064E+02 0.  0.
         -6    2    1    2    0  501  0.28144049890E+03  0.33761959136E+03 -0.56603212005E+03  0.73691835072E+03  0.17164076384E+03 0.  0.
        -24    2    5    5    0    0  0.17036735018E+03  0.26029615900E+03 -0.47696419062E+03  0.57483397882E+03  0.78486557360E+02 0.  0.
          5    1    3    3  502    0 -0.54638245639E+02 -0.13620143856E+03 -0.15238942182E+03  0.21161473397E+03  0.47000000000E+01 0. -1.
        -11    1    4    4    0    0 -0.98531017581E+02 -0.98888323131E+02 -0.14598558411E+02  0.14035804140E+03  0.00000000000E+00 0.  1.
         12    1    4    4    0    0 -0.12827123568E+03 -0.10252982967E+03 -0.10513903090E+03  0.19498741419E+03  0.00000000000E+00 0. -1.
         -5    1    5    5    0  501  0.11107314872E+03  0.77323432363E+02 -0.89067929432E+02  0.16208437189E+03  0.47000000000E+01 0.  1.
         11    1    6    6    0    0  0.11604397599E+03  0.21658758308E+03 -0.32318478959E+03  0.40598619894E+03  0.00000000000E+00 0. -1.
        -12    1    6    6    0    0  0.54323374188E+02  0.43708575915E+02 -0.15377940102E+03  0.16884777988E+03  0.00000000000E+00 0.  1.
</event>
<event>
12    1  0.1081556E+000  0.7636537E+03  0.7818608E-02  0.9614170E-01
         -2   -1    0    0    0  501 -0.00000000000E+00  0.00000000000E+00  0.83552623990E+03  0.83552623990E+03  0.00000000000E+00 0.  1.
          2   -1    0    0  502    0  0.00000000000E+00 -0.00000000000E+00 -0.80646901447E+03  0.80646901447E+03  0.00000000000E+00 0. -1.
          6    2    1    2  502    0  0.59642615378E+03 -0.44436323783E+03 -0.28661128713E+03  0.81587757421E+03  0.17414747238E+03 0.  0.
         24    2    3    3    0    0  0.17736412598E+03 -0.92352356909E+02 -0.60510971319E+02  0.22370522916E+03  0.79971625538E+02 0.  0.
         -6    2    1    2    0  501 -0.59642615378E+03  0.44436323783E+03  0.31566851256E+03  0.82611768016E+03  0.17216552386E+03 0.  0.
        -24    2    5    5    0    0 -0.59008028024E+03  0.42785573553E+03  0.27788041379E+03  0.78413199031E+03  0.79938640924E+02 0.  0.
          5    1    3    3  502    0  0.41906202780E+03 -0.35201088092E+03 -0.22610031582E+03  0.59217234505E+03  0.47000000000E+01 0. -1.
        -11    1    4    4    0    0  0.36492525243E+02  0.10687495167E+02 -0.25249989824E+02  0.45645250988E+02  0.00000000000E+00 0.  1.
         12    1    4    4    0    0  0.14087160074E+03 -0.10303985208E+03 -0.35260981494E+02  0.17805997817E+03  0.00000000000E+00 0. -1.
         -5    1    5    5    0  501 -0.63458735426E+01  0.16507502301E+02  0.37788098776E+02  0.41985689852E+02  0.47000000000E+01 0.  1.
         13    1    6    6    0    0 -0.37937490573E+03  0.23753734005E+03  0.19593895825E+03  0.48861168874E+03  0.00000000000E+00 0. -1.
        -14    1    6    6    0    0 -0.21070537451E+03  0.19031839548E+03  0.81941455539E+02  0.29552030157E+03  0.00000000000E+00 0.  1.
</event>
<event>
12    1  0.1081556E+000  0.3519006E+03  0.7818608E-02  0.1061838E+00
          1   -1    0    0  502    0  0.00000000000E+00  0.00000000000E+00  0.20551680667E+03  0.20551680667E+03  0.00000000000E+00 0. -1.
         -1   -1    0    0    0  501 -0.00000000000E+00 -0.00000000000E+00 -0.91015364121E+03  0.91015364121E+03  0.00000000000E+00 0.  1.
          6    2    1    2  502    0  0.28628952832E+03  0.10914666748E+03 -0.67595497591E+03  0.76161138524E+03  0.17106163691E+03 0.  0.
         24    2    3    3    0    0  0.28138627614E+03  0.10494857702E+03 -0.68322080360E+03  0.75081564083E+03  0.82103713758E+02 0.  0.
         -6    2    1    2    0  501 -0.28628952832E+03 -0.10914666748E+03 -0.28681858629E+02  0.35405906263E+03  0.17510134714E+03 0.  0.
        -24    2    5    5    0    0 -0.24577007716E+03 -0.12011657806E+03 -0.70823595519E+02  0.29439181158E+03  0.82581074657E+02 0.  0.
          5    1    3    3  502    0  0.49032521766E+01  0.41980904606E+01  0.72658276927E+01  0.10795744415E+02  0.47000000000E+01 0. -1.
        -13    1    4    4    0    0  0.12967930423E+03  0.58267754852E+02 -0.22775880162E+03  0.26848822119E+03  0.00000000000E+00 0.  1.
         14    1    4    4    0    0  0.15170697191E+03  0.46680822168E+02 -0.45546200198E+03  0.48232741964E+03  0.00000000000E+00 0. -1.
         -5    1    5    5    0  501 -0.40519451161E+02  0.10969910575E+02  0.42141736890E+02  0.59667251055E+02  0.47000000000E+01 0.  1.
         13    1    6    6    0    0 -0.37306606841E+02  0.63533464581E+01  0.69184860566E+01  0.38470941950E+02  0.00000000000E+00 0. -1.
        -14    1    6    6    0    0 -0.20846347031E+03 -0.12646992451E+03 -0.77742081575E+02  0.25592086963E+03  0.00000000000E+00 0.  1.
</event>
<event>
12    1  0.1081556E+000  0.2491328E+03  0.7818608E-02  0.1113854E+00
          2   -1    0    0  502    0  0.00000000000E+00  0.00000000000E+00  0.68590792109E+03  0.68590792109E+03  0.00000000000E+00 0. -1.
         -2   -1    0    0    0  501 -0.00000000000E+00 -0.00000000000E+00 -0.34237652084E+03  0.34237652084E+03  0.00000000000E+00 0.  1.
          6    2    1    2  502    0 -0.11782542685E+02  0.17100313559E+03 -0.26822283208E+03  0.36966952582E+03  0.18796587450E+03 0.  0.
         24    2    3    3    0    0  0.53357136264E+02  0.45311889617E+02 -0.15628179151E+03  0.18913046176E+03  0.80288117909E+02 0.  0.
         -6    2    1    2    0  501  0.11782542685E+02 -0.17100313559E+03  0.61175423233E+03  0.65861491610E+03  0.17363601656E+03 0.  0.
        -24    2    5    5    0    0  0.75375463663E+02 -0.10203866407E+03  0.40024173517E+03  0.42718504684E+03  0.78741781725E+02 0.  0.
          5    1    3    3  502    0 -0.65139678949E+02  0.12569124597E+03 -0.11194104057E+03  0.18053906406E+03  0.47000000000E+01 0. -1.
        -11    1    4    4    0    0 -0.41925759715E+01  0.38243543598E+02 -0.25734876191E+02  0.46286392955E+02  0.00000000000E+00 0.  1.
         12    1    4    4    0    0  0.57549712235E+02  0.70683460196E+01 -0.13054691532E+03  0.14284406881E+03  0.00000000000E+00 0. -1.
         -5    1    5    5    0  501 -0.63592920978E+02 -0.68964471518E+02  0.21151249716E+03  0.23142986926E+03  0.47000000000E+01 0.  1.
         13    1    6    6    0    0  0.80818740308E+01 -0.19996291573E+02  0.19449837045E+03  0.19569053240E+03  0.00000000000E+00 0. -1.
        -14    1    6    6    0    0  0.67293589632E+02 -0.82042372500E+02  0.20574336472E+03  0.23149451444E+03  0.00000000000E+00 0.  1.
</event>
<event>
12    1  0.1081556E+000  0.2846330E+03  0.7818608E-02  0.1093185E+00
         -1   -1    0    0    0  501 -0.00000000000E+00  0.00000000000E+00  0.50037335844E+02  0.50037335844E+02  0.00000000000E+00 0.  1.
          1   -1    0    0  502    0  0.00000000000E+00 -0.00000000000E+00 -0.16202597508E+04  0.16202597508E+04  0.00000000000E+00 0. -1.
          6    2    1    2  502    0 -0.74273690721E+02 -0.21329309211E+03 -0.80458903127E+03  0.85313855552E+03  0.17167224998E+03 0.  0.
         24    2    3    3    0    0 -0.61479475414E+02 -0.16472868329E+03 -0.39201192008E+03  0.43748947707E+03  0.82513223556E+02 0.  0.
         -6    2    1    2    0  501  0.74273690721E+02  0.21329309211E+03 -0.76563338371E+03  0.81715853114E+03  0.17476573604E+03 0.  0.
        -24    2    5    5    0    0  0.72050708636E+02  0.18632850139E+03 -0.75882595531E+03  0.78886609605E+03  0.81137365059E+02 0.  0.
          5    1    3    3  502    0 -0.12794215306E+02 -0.48564408816E+02 -0.41257711118E+03  0.41564907846E+03  0.47000000000E+01 0. -1.
        -11    1    4    4    0    0 -0.64900866189E+02 -0.14609889081E+03 -0.38570964118E+03  0.41752716753E+03  0.00000000000E+00 0.  1.
         12    1    4    4    0    0  0.34213907747E+01 -0.18629792480E+02 -0.63022789062E+01  0.19962309538E+02  0.00000000000E+00 0. -1.
         -5    1    5    5    0  501  0.22229820846E+01  0.26964590717E+02 -0.68074284054E+01  0.28292435091E+02  0.47000000000E+01 0.  1.
         11    1    6    6    0    0  0.77970131335E+02  0.90124746250E+02 -0.42912843149E+03  0.44536841152E+03  0.00000000000E+00 0. -1.
        -12    1    6    6    0    0 -0.59194226991E+01  0.96203755138E+02 -0.32969752381E+03  0.34349768453E+03  0.00000000000E+00 0.  1.
</event>
<event>
12    1  0.1081556E+000  0.1495212E+04  0.7818608E-02  0.8887643E-01
          1   -1    0    0  502    0  0.00000000000E+00  0.00000000000E+00  0.17784800451E+04  0.17784800451E+04  0.00000000000E+00 0. -1.
         -1   -1    0    0    0  501 -0.00000000000E+00 -0.00000000000E+00 -0.12614190497E+04  0.12614190497E+04  0.00000000000E+00 0.  1.
          6    2    1    2  502    0 -0.86764661015E+03  0.12052802434E+04  0.16917380014E+03  0.15045987942E+04  0.17229814743E+03 0.  0.
         24    2    3    3    0    0 -0.66638271183E+03  0.93857424383E+03  0.19172737330E+03  0.11696808929E+04  0.80040462532E+02 0.  0.
         -6    2    1    2    0  501  0.86764661015E+03 -0.12052802434E+04  0.34788719532E+03  0.15353003006E+04  0.17495830134E+03 0.  0.
        -24    2    5    5    0    0  0.80422996500E+03 -0.10601992669E+04  0.34425686262E+03  0.13768533697E+04  0.80025570351E+02 0.  0.
          5    1    3    3  502    0 -0.20126389831E+03  0.26670599953E+03 -0.22553573157E+02  0.33491790130E+03  0.47000000000E+01 0. -1.
        -11    1    4    4    0    0 -0.31629644264E+03  0.41920819002E+03  0.50120602960E+02  0.52753295731E+03  0.00000000000E+00 0.  1.
         12    1    4    4    0    0 -0.35008626919E+03  0.51936605381E+03  0.14160677034E+03  0.64214793555E+03  0.00000000000E+00 0. -1.
         -5    1    5    5    0  501  0.63416645147E+02 -0.14508097643E+03  0.36303326951E+01  0.15844693093E+03  0.47000000000E+01 0.  1.
         11    1    6    6    0    0  0.14771987038E+03 -0.14902240162E+03  0.44770841641E+02  0.21455364027E+03  0.00000000000E+00 0. -1.
        -12    1    6    6    0    0  0.65651009462E+03 -0.91117686531E+03  0.29948602098E+03  0.11622997294E+04  0.00000000000E+00 0.  1.
</event>
<event>
12    1  0.1081556E+000  0.3011397E+03  0.7818608E-02  0.1084672E+00
         -2   -1    0    0    0  501 -0.00000000000E+00  0.00000000000E+00  0.20270708276E+03  0.20270708276E+03  0.00000000000E+00 0.  1.
          2   -1    0    0  502    0  0.00000000000E+00 -0.00000000000E+00 -0.10728932882E+04  0.10728932882E+04  0.00000000000E+00 0. -1.
          6    2    1    2  502    0 -0.24401588348E+03  0.31244863305E+02  0.51672415687E+02  0.30592220564E+03  0.17435126753E+03 0.  0.
         24    2    3    3    0    0 -0.23919367344E+03 -0.15248264987E+02  0.35888234321E+02  0.25636319970E+03  0.83594268945E+02 0.  0.
         -6    2    1    2    0  501  0.24401588348E+03 -0.31244863305E+02 -0.92185862109E+03  0.96967816528E+03  0.17300992482E+03 0.  0.
        -24    2    5    5    0    0  0.24129118062E+03 -0.68403139931E+02 -0.82477550213E+03  0.86558501702E+03  0.77989546699E+02 0.  0.
          5    1    3    3  502    0 -0.48222100355E+01  0.46493128293E+02  0.15784181366E+02  0.49559005937E+02  0.47000000000E+01 0. -1.
        -11    1    4    4    0    0 -0.11327925256E+03  0.20464143568E+02  0.48423881071E+02  0.12488331550E+03  0.00000000000E+00 0.  1.
         12    1    4    4    0    0 -0.12591442088E+03 -0.35712408555E+02 -0.12535646750E+02  0.13147988420E+03  0.00000000000E+00 0. -1.
         -5    1    5    5    0  501  0.27247028577E+01  0.37158276626E+02 -0.97083118959E+02  0.10409314826E+03  0.47000000000E+01 0.  1.
         11    1    6    6    0    0  0.18963785051E+03 -0.24132475312E+02 -0.54143842953E+03  0.57419549257E+03  0.00000000000E+00 0. -1.
        -12    1    6    6    0    0  0.51653330105E+02 -0.44270664619E+02 -0.28333707260E+03  0.29138952446E+03  0.00000000000E+00 0.  1.
</event>
<event>
12    1  0.1081556E+000  0.2525416E+03  0.7818608E-02  0.1111709E+00
          1   -1    0    0  502    0  0.00000000000E+00  0.00000000000E+00  0.16320241744E+04  0.16320241744E+04  0.00000000000E+00 0. -1.
         -1   -1    0    0    0  501 -0.00000000000E+00 -0.00000000000E+00 -0.39776958221E+02  0.39776958221E+02  0.00000000000E+00 0.  1.
          6    2    1    2  502    0  0.17470251049E+03 -0.56686526793E+02  0.68997760826E+03  0.73524510405E+03  0.17544780887E+03 0.  0.
         24    2    3    3    0    0  0.17544654696E+03 -0.21924517587E+02  0.41719572275E+03  0.46021601843E+03  0.80525382497E+02 0.  0.
         -6    2    1    2    0  501 -0.17470251049E+03  0.56686526793E+02  0.90226960794E+03  0.93655602859E+03  0.17120870243E+03 0.  0.
        -24    2    5    5    0    0 -0.95544775448E+02 -0.23948930129E+02  0.59119565629E+03  0.60556189371E+03  0.86547950465E+02 0.  0.
          5    1    3    3  502    0 -0.74403647215E+00 -0.34762009206E+02  0.27278188551E+03  0.27502908562E+03  0.47000000000E+01 0. -1.
        -13    1    4    4    0    0  0.27212186335E+02 -0.34471246533E+02  0.72125497033E+02  0.84444403278E+02  0.00000000000E+00 0.  1.
         14    1    4    4    0    0  0.14823436063E+03  0.12546728946E+02  0.34507022572E+03  0.37577161516E+03  0.00000000000E+00 0. -1.
         -5    1    5    5    0  501 -0.79157735045E+02  0.80635456922E+02  0.31107395165E+03  0.33099413488E+03  0.47000000000E+01 0.  1.
         13    1    6    6    0    0 -0.29435074687E+01  0.17765288579E+02  0.21958998787E+03  0.22032710339E+03  0.00000000000E+00 0. -1.
        -14    1    6    6    0    0 -0.92601267979E+02 -0.41714218708E+02  0.37160566841E+03  0.38523479032E+03  0.00000000000E+00 0.  1.
</event>
<event>
12    1  0.1081556E+000  0.4933888E+03  0.7818608E-02  0.1015519E+00
          2   -1    0    0  502    0  0.00000000000E+00  0.00000000000E+00  0.22005428778E+04  0.22005428778E+04  0.00000000000E+00 0. -1.
         -2   -1    0    0    0  501 -0.00000000000E+00 -0.00000000000E+00 -0.11575922897E+03  0.11575922897E+03  0.00000000000E+00 0.  1.
          6    2    1    2  502    0  0.39593033301E+03 -0.23916237342E+03  0.12873151397E+04  0.13788029557E+04  0.17308336777E+03 0.  0.
         24    2    3    3    0    0  0.11071679196E+03 -0.85274527428E+02  0.31871217391E+03  0.35741075456E+03  0.81455783270E+02 0.  0.
         -6    2    1    2    0  501 -0.39593033301E+03  0.23916237342E+03  0.79746850914E+03  0.93749915112E+03  0.17026205042E+03 0.  0.
        -24    2    5    5    0    0 -0.40888594901E+03  0.23156892874E+03  0.77528147045E+03  0.91029872697E+03  0.82283205057E+02 0.  0.
          5    1    3    3  502    0  0.28521354105E+03 -0.15388784599E+03  0.96860296578E+03  0.10213922011E+04  0.47000000000E+01 0. -1.
        -11    1    4    4    0    0  0.39403737938E+01 -0.38779983736E+02  0.12941433158E+03  0.13515725249E+03  0.00000000000E+00 0.  1.
         12    1    4    4    0    0  0.10677641817E+03 -0.46494543692E+02  0.18929784233E+03  0.22225350207E+03  0.00000000000E+00 0. -1.
         -5    1    5    5    0  501  0.12955616002E+02  0.75934446756E+01  0.22187038690E+02  0.27200424149E+02  0.47000000000E+01 0.  1.
         11    1    6    6    0    0 -0.22675585901E+03  0.15239747757E+03  0.38107348598E+03  0.46889253831E+03  0.00000000000E+00 0. -1.
        -12    1    6    6    0    0 -0.18213009000E+03  0.79171451178E+02  0.39420798448E+03  0.44140618866E+03  0.00000000000E+00 0.  1.
</event>
<event>
12    1  0.1081556E+000  0.1812533E+03  0.7818608E-02  0.1166596E+00
         -4   -1    0    0    0  501 -0.00000000000E+00  0.00000000000E+00  0.12252582574E+03  0.12252582574E+03  0.00000000000E+00 0. -1.
          4   -1    0    0  502    0  0.00000000000E+00 -0.00000000000E+00 -0.30438820713E+03  0.30438820713E+03  0.00000000000E+00 0.  1.
          6    2    1    2  502    0  0.62385406264E+02  0.39757340163E+01 -0.16128301751E+02  0.17928808740E+03  0.16726132485E+03 0.  0.
         24    2    3    3    0    0  0.77245718593E+02 -0.45649448333E+02 -0.32443380771E+02  0.12477424137E+03  0.80406872711E+02 0.  0.
         -6    2    1    2    0  501 -0.62385406264E+02 -0.39757340163E+01 -0.16573407964E+03  0.24762594547E+03  0.17304068405E+03 0.  0.
        -24    2    5    5    0    0 -0.22012122061E+02 -0.23305524508E+02 -0.17935126532E+03  0.20060296573E+03  0.83946366775E+02 0.  0.
          5    1    3    3  502    0 -0.14860312329E+02  0.49625182349E+02  0.16315079021E+02  0.54513846031E+02  0.47000000000E+01 0. -1.
        -11    1    4    4    0    0  0.82443570747E+00  0.21552101986E+01 -0.34531503353E+02  0.34608515557E+02  0.00000000000E+00 0.  1.
         12    1    4    4    0    0  0.76421282885E+02 -0.47804658531E+02  0.20881225820E+01  0.90165725811E+02  0.00000000000E+00 0. -1.
         -5    1    5    5    0  501 -0.40373284203E+02  0.19329790492E+02  0.13617185679E+02  0.47022979740E+02  0.47000000000E+01 0.  1.
         13    1    6    6    0    0 -0.35853646601E+02  0.18670441196E+02 -0.52417909756E+02  0.66194460586E+02  0.00000000000E+00 0. -1.
        -14    1    6    6    0    0  0.13841524540E+02 -0.41975965704E+02 -0.12693335557E+03  0.13440850514E+03  0.00000000000E+00 0.  1.
</event>
<event>
12    1  0.1081556E+000  0.3306666E+03  0.7818608E-02  0.1070842E+00
          1   -1    0    0  502    0  0.00000000000E+00  0.00000000000E+00  0.11127423573E+04  0.11127423573E+04  0.00000000000E+00 0. -1.
         -1   -1    0    0    0  501 -0.00000000000E+00 -0.00000000000E+00 -0.18571566997E+03  0.18571566997E+03  0.00000000000E+00 0.  1.
          6    2    1    2  502    0  0.29447448119E+02 -0.28074261859E+03  0.17845561511E+02  0.33094207181E+03  0.17181565916E+03 0.  0.
         24    2    3    3    0    0 -0.34604364017E+02 -0.77924777185E+02 -0.28462406492E+01  0.11719466923E+03  0.80353945159E+02 0.  0.
         -6    2    1    2    0  501 -0.29447448119E+02  0.28074261859E+03  0.90918112582E+03  0.96751595547E+03  0.17260716802E+03 0.  0.
        -24    2    5    5    0    0 -0.58403765400E+02  0.28478026499E+03  0.81843439333E+03  0.87206004755E+03  0.78377746914E+02 0.  0.
          5    1    3    3  502    0  0.64051812136E+02 -0.20281784140E+03  0.20691802160E+02  0.21374740257E+03  0.47000000000E+01 0. -1.
        -11    1    4    4    0    0 -0.14409227215E+02 -0.84479209159E+02 -0.22132211336E+02  0.88511001507E+02  0.00000000000E+00 0.  1.
         12    1    4    4    0    0 -0.20195136802E+02  0.65544319741E+01  0.19285970687E+02  0.28683667727E+02  0.00000000000E+00 0. -1.
         -5    1    5    5    0  501  0.28956317281E+02 -0.40376464012E+01  0.90746732491E+02  0.95455907920E+02  0.47000000000E+01 0.  1.
         13    1    6    6    0    0 -0.38157485055E+02  0.17846103529E+03  0.61658773498E+03  0.64302781411E+03  0.00000000000E+00 0. -1.
        -14    1    6    6    0    0 -0.20246280345E+02  0.10631922970E+03  0.20184665835E+03  0.22903223344E+03  0.00000000000E+00 0.  1.
</event>
<event>
12    1  0.1081556E+000  0.2103970E+03  0.7818608E-02  0.1141252E+00
         -2   -1    0    0    0  501 -0.00000000000E+00  0.00000000000E+00  0.28786090633E+02  0.28786090633E+02  0.00000000000E+00 0.  1.
          2   -1    0    0  502    0  0.00000000000E+00 -0.00000000000E+00 -0.17396613966E+04  0.17396613966E+04  0.00000000000E+00 0. -1.
          6    2    1    2  502    0  0.11869794800E+03  0.56584292735E+01 -0.55519175851E+03  0.59381614026E+03  0.17394970259E+03 0.  0.
         24    2    3    3    0    0  0.10285096720E+03  0.56044871150E+02 -0.28722999550E+03  0.32065773061E+03  0.81246297448E+02 0.  0.
         -6    2    1    2    0  501 -0.11869794800E+03 -0.56584292735E+01 -0.11556835474E+04  0.11746313469E+04  0.17330065999E+03 0.  0.
        -24    2    5    5    0    0 -0.12846529917E+03  0.11457987836E+02 -0.61409995003E+03  0.63266893510E+03  0.80725548859E+02 0.  0.
          5    1    3    3  502    0  0.15846980800E+02 -0.50386441877E+02 -0.26796176301E+03  0.27315840965E+03  0.47000000000E+01 0. -1.
        -11    1    4    4    0    0  0.13772500958E+02  0.40594886480E+02 -0.45208170572E+02  0.62300925173E+02  0.00000000000E+00 0.  1.
         12    1    4    4    0    0  0.89078466241E+02  0.15449984671E+02 -0.24202182493E+03  0.25835680544E+03  0.00000000000E+00 0. -1.
         -5    1    5    5    0  501  0.97673511689E+01 -0.17116417110E+02 -0.54158359738E+03  0.54196241183E+03  0.47000000000E+01 0.  1.
         11    1    6    6    0    0 -0.10928229194E+03  0.10141787004E+02 -0.59678706129E+03  0.60679508213E+03  0.00000000000E+00 0. -1.
        -12    1    6    6    0    0 -0.19183007231E+02  0.13162008322E+01 -0.17312888744E+02  0.25873852974E+02  0.00000000000E+00 0.  1.
</event>
<event>
12    1  0.1081556E+000  0.1894969E+03  0.7818608E-02  0.1158916E+00
          2   -1    0    0  502    0  0.00000000000E+00  0.00000000000E+00  0.85330591438E+03  0.85330591438E+03  0.00000000000E+00 0. -1.
         -2   -1    0    0    0  501 -0.00000000000E+00 -0.00000000000E+00 -0.79727488669E+02  0.79727488669E+02  0.00000000000E+00 0.  1.
          6    2    1    2  502    0 -0.33201803541E+02 -0.73274991142E+02  0.66575906199E+02  0.20116049025E+03  0.17193489310E+03 0.  0.
         24    2    3    3    0    0  0.26769082009E+02  0.13619829815E+02  0.23083826408E+02  0.86876335497E+02  0.78182805731E+02 0.  0.
         -6    2    1    2    0  501  0.33201803541E+02  0.73274991142E+02  0.70700251951E+03  0.73187291280E+03  0.17121277349E+03 0.  0.
        -24    2    5    5    0    0  0.20187487769E+02 -0.24152374316E+02  0.25105232799E+03  0.26542449003E+03  0.80199854553E+02 0.  0.
          5    1    3    3  502    0 -0.59970885551E+02 -0.86894820957E+02  0.43492079791E+02  0.11428415475E+03  0.47000000000E+01 0. -1.
        -11    1    4    4    0    0  0.52551621074E+02  0.18097170157E+02  0.66529660996E+01  0.55977159656E+02  0.00000000000E+00 0.  1.
         12    1    4    4    0    0 -0.25782539065E+02 -0.44773403419E+01  0.16430860308E+02  0.30899175841E+02  0.00000000000E+00 0. -1.
         -5    1    5    5    0  501  0.13014315773E+02  0.97427365458E+02  0.45595019153E+03  0.46644842277E+03  0.47000000000E+01 0.  1.
         11    1    6    6    0    0 -0.67272351057E+01 -0.85261692078E+01  0.22378124989E+03  0.22404463631E+03  0.00000000000E+00 0. -1.
        -12    1    6    6    0    0  0.26914722875E+02 -0.15626205108E+02  0.27271078093E+02  0.41379853720E+02  0.00000000000E+00 0.  1.
</event>
<event>
12    1  0.1081556E+000  0.3964006E+03  0.7818608E-02  0.1045033E+00
          2   -1    0    0  502    0  0.00000000000E+00  0.00000000000E+00  0.26885522567E+04  0.26885522567E+04  0.00000000000E+00 0. -1.
         -2   -1    0    0    0  501 -0.00000000000E+00 -0.00000000000E+00 -0.20331226891E+03  0.20331226891E+03  0.00000000000E+00 0.  1.
          6    2    1    2  502    0  0.35451573476E+03  0.45119248173E+02  0.21195847599E+02  0.39598148018E+03  0.16921854492E+03 0.  0.
         24    2    3    3    0    0  0.23751117308E+03  0.77118935958E+02 -0.29872792430E+02  0.26428431444E+03  0.81209159008E+02 0.  0.
         -6    2    1    2    0  501 -0.35451573476E+03 -0.45119248173E+02  0.24640441402E+04  0.24958830454E+04  0.17378578444E+03 0.  0.
        -24    2    5    5    0    0 -0.34368683030E+03 -0.14126529090E+02  0.20224670552E+04  0.20530622851E+04  0.79822057550E+02 0.  0.
          5    1    3    3  502    0  0.11700456167E+03 -0.31999687785E+02  0.51068640029E+02  0.13169716574E+03  0.47000000000E+01 0. -1.
        -13    1    4    4    0    0  0.67782810842E+02 -0.10691690582E+02  0.91938070190E+01  0.69234007400E+02  0.00000000000E+00 0.  1.
         14    1    4    4    0    0  0.16972836224E+03  0.87810626540E+02 -0.39066599448E+02  0.19505030704E+03  0.00000000000E+00 0. -1.
         -5    1    5    5    0  501 -0.10828904452E+02 -0.30992719083E+02  0.44157708495E+03  0.44282076031E+03  0.47000000000E+01 0.  1.
         11    1    6    6    0    0 -0.13318013297E+03  0.90292151709E+01  0.10019714169E+04  0.10108240177E+04  0.00000000000E+00 0. -1.
        -12    1    6    6    0    0 -0.21050669734E+03 -0.23155744261E+02  0.10204956383E+04  0.10422382674E+04  0.00000000000E+00 0.  1.
</event>
<event>
12    1  0.1081556E+000  0.4196433E+03  0.7818608E-02  0.1037182E+00
          2   -1    0    0  502    0  0.00000000000E+00  0.00000000000E+00  0.31341083980E+04  0.31341083980E+04  0.00000000000E+00 0. -1.
         -2   -1    0    0    0  501 -0.00000000000E+00 -0.00000000000E+00 -0.10969260642E+03  0.10969260642E+03  0.00000000000E+00 0.  1.
          6    2    1    2  502    0  0.24770148047E+03 -0.29194634926E+03  0.37914879170E+03  0.56542762689E+03  0.17136481766E+03 0.  0.
         24    2    3    3    0    0  0.18072459520E+03 -0.15143575214E+03  0.15966712441E+03  0.29631162339E+03  0.81931808259E+02 0.  0.
         -6    2    1    2    0  501 -0.24770148047E+03  0.29194634926E+03  0.26452669999E+04  0.26783733776E+04  0.17221426930E+03 0.  0.
        -24    2    5    5    0    0 -0.25963451900E+03  0.29034341228E+03  0.23981724517E+04  0.24309410180E+04  0.80831579716E+02 0.  0.
          5    1    3    3  502    0  0.66976885273E+02 -0.14051059712E+03  0.21948166729E+03  0.26911600350E+03  0.47000000000E+01 0. -1.
        -11    1    4    4    0    0  0.78591188496E+02 -0.11870367821E+03  0.90715445606E+02  0.16880885700E+03  0.00000000000E+00 0.  1.
         12    1    4    4    0    0  0.10213340670E+03 -0.32732073932E+02  0.68951678806E+02  0.12750276639E+03  0.00000000000E+00 0. -1.
         -5    1    5    5    0  501  0.11933038526E+02  0.16029369789E+01  0.24709454819E+03  0.24743235957E+03  0.47000000000E+01 0.  1.
         11    1    6    6    0    0 -0.12426033349E+03  0.19490189968E+03  0.13103141690E+04  0.13305452275E+04  0.00000000000E+00 0. -1.
        -12    1    6    6    0    0 -0.13537418550E+03  0.95441512603E+02  0.10878582828E+04  0.11003957905E+04  0.00000000000E+00 0.  1.
</event>
<event>
12    1  0.1081556E+000  0.4997736E+03  0.7818608E-02  0.1013838E+00
          2   -1    0    0  502    0  0.00000000000E+00  0.00000000000E+00  0.14404217958E+04  0.14404217958E+04  0.00000000000E+00 0. -1.
         -2   -1    0    0    0  501 -0.00000000000E+00 -0.00000000000E+00 -0.92987571844E+03  0.92987571844E+03  0.00000000000E+00 0.  1.
          6    2    1    2  502    0  0.86302677502E+02 -0.46174345453E+03 -0.81375710448E+03  0.95452505942E+03  0.16811393168E+03 0.  0.
         24    2    3    3    0    0 -0.99543105596E+01 -0.29148525728E+03 -0.46466095033E+03  0.55434575420E+03  0.79540385537E+02 0.  0.
         -6    2    1    2    0  501 -0.86302677502E+02  0.46174345453E+03  0.13243031819E+04  0.14157724548E+04  0.17314027962E+03 0.  0.
        -24    2    5    5    0    0 -0.42009839907E+02  0.39090710899E+03  0.12049581503E+04  0.12700159116E+04  0.80268782625E+02 0.  0.
          5    1    3    3  502    0  0.96256988062E+02 -0.17025819725E+03 -0.34909615415E+03  0.40017930522E+03  0.47000000000E+01 0. -1.
        -13    1    4    4    0    0 -0.11530363634E+02 -0.20673313413E+03 -0.38923364687E+03  0.44087908760E+03  0.00000000000E+00 0.  1.
         14    1    4    4    0    0  0.15760530744E+01 -0.84752123150E+02 -0.75427303466E+02  0.11346666660E+03  0.00000000000E+00 0. -1.
         -5    1    5    5    0  501 -0.44292837596E+02  0.70836345539E+02  0.11934503160E+03  0.14575654318E+03  0.47000000000E+01 0.  1.
         11    1    6    6    0    0 -0.45669229772E+02  0.98461568643E+02  0.34691064568E+03  0.36349326697E+03  0.00000000000E+00 0. -1.
        -12    1    6    6    0    0  0.36593898650E+01  0.29244554034E+03  0.85804750458E+03  0.90652264468E+03  0.00000000000E+00 0.  1.
</event>
<event>
12    1  0.1081556E+000  0.1409428E+04  0.7818608E-02  0.8947022E-01
          1   -1    0    0  502    0  0.00000000000E+00  0.00000000000E+00  0.12987977535E+04  0.12987977535E+04  0.00000000000E+00 0. -1.
         -1   -1    0    0    0  501 -0.00000000000E+00 -0.00000000000E+00 -0.15982214598E+04  0.15982214598E+04  0.00000000000E+00 0.  1.
          6    2    1    2  502    0 -0.82955255970E+03  0.11264890872E+04 -0.45011513094E+03  0.14795264944E+04  0.17105526467E+03 0.  0.
         24    2    3    3    0    0 -0.64966703745E+03  0.86027034412E+03 -0.40688268143E+03  0.11553007166E+04  0.83868377911E+02 0.  0.
         -6    2    1    2    0  501  0.82955255970E+03 -0.11264890872E+04  0.15069142472E+03  0.14174927190E+04  0.17158843208E+03 0.  0.
        -24    2    5    5    0    0  0.34008939021E+03 -0.39430837629E+03  0.10492680097E+03  0.53557476448E+03  0.68489457826E+02 0.  0.
          5    1    3    3  502    0 -0.17988552224E+03  0.26621874305E+03 -0.43232449512E+02  0.32422577775E+03  0.47000000000E+01 0. -1.
        -11    1    4    4    0    0 -0.42745076480E+03  0.62907112616E+03 -0.28121064458E+03  0.81087857581E+03  0.00000000000E+00 0.  1.
         12    1    4    4    0    0 -0.22221627266E+03  0.23119921796E+03 -0.12567203686E+03  0.34442214079E+03  0.00000000000E+00 0. -1.
         -5    1    5    5    0  501  0.48946316948E+03 -0.73218071088E+03  0.45764623753E+02  0.88191795449E+03  0.47000000000E+01 0.  1.
         13    1    6    6    0    0  0.28373677324E+03 -0.34307125102E+03  0.66087410346E+02  0.45007997686E+03  0.00000000000E+00 0. -1.
        -14    1    6    6    0    0  0.56352616971E+02 -0.51237125279E+02  0.38839390619E+02  0.85494787619E+02  0.00000000000E+00 0.  1.
</event>
<event>
12    1  0.1081556E+000  0.2034233E+03  0.7818608E-02  0.1146883E+00
          1   -1    0    0  502    0  0.00000000000E+00  0.00000000000E+00  0.31505683765E+03  0.31505683765E+03  0.00000000000E+00 0. -1.
         -1   -1    0    0    0  501 -0.00000000000E+00 -0.00000000000E+00 -0.13426714674E+03  0.13426714674E+03  0.00000000000E+00 0.  1.
          6    2    1    2  502    0 -0.10758630909E+03 -0.16908477534E+02  0.57183548765E+02  0.21116084573E+03  0.17163401179E+03 0.  0.
         24    2    3    3    0    0 -0.92376443070E+02  0.39662164426E+02  0.75582618249E+02  0.14958005884E+03  0.80962752540E+02 0.  0.
         -6    2    1    2    0  501  0.10758630909E+03  0.16908477534E+02  0.12360614215E+03  0.23816313866E+03  0.17199561542E+03 0.  0.
        -24    2    5    5    0    0  0.15161457767E+02  0.18971200169E+02  0.22870881566E+02  0.10135564365E+03  0.95708479450E+02 0.  0.
          5    1    3    3  502    0 -0.15209866018E+02 -0.56570641959E+02 -0.18399069485E+02  0.61580786889E+02  0.47000000000E+01 0. -1.
        -11    1    4    4    0    0 -0.48210588731E+02  0.32180613834E+01  0.78573702447E+02  0.92241224520E+02  0.00000000000E+00 0.  1.
         12    1    4    4    0    0 -0.44165854339E+02  0.36444103042E+02 -0.29910841973E+01  0.57338834316E+02  0.00000000000E+00 0. -1.
         -5    1    5    5    0  501  0.92424851320E+02 -0.20627226350E+01  0.10073526058E+03  0.13680749501E+03  0.47000000000E+01 0.  1.
         11    1    6    6    0    0  0.26796244191E+02 -0.20829283203E+02  0.43392599225E+02  0.55089158725E+02  0.00000000000E+00 0. -1.
        -12    1    6    6    0    0 -0.11634786424E+02  0.39800483371E+02 -0.20521717659E+02  0.46266484926E+02  0.00000000000E+00 0.  1.
</event>
<event>
12    1  0.1081556E+000  0.6428325E+03  0.7818608E-02  0.9820322E-01
         -1   -1    0    0    0  501 -0.00000000000E+00  0.00000000000E+00  0.55565451643E+03  0.55565451643E+03  0.00000000000E+00 0.  1.
          1   -1    0    0  502    0  0.00000000000E+00 -0.00000000000E+00 -0.11046822692E+04  0.11046822692E+04  0.00000000000E+00 0. -1.
          6    2    1    2  502    0 -0.20776507884E+03 -0.58369857239E+03  0.19995753098E+03  0.67353090971E+03  0.17259930688E+03 0.  0.
         24    2    3    3    0    0 -0.15930886360E+03 -0.41137129508E+03  0.74696829164E+02  0.45499709374E+03  0.82686653013E+02 0.  0.
         -6    2    1    2    0  501  0.20776507884E+03  0.58369857239E+03 -0.74898528376E+03  0.98680587593E+03  0.17010740744E+03 0.  0.
        -24    2    5    5    0    0  0.22969286360E+03  0.50487525558E+03 -0.65616466639E+03  0.86298463370E+03  0.80824335999E+02 0.  0.
          5    1    3    3  502    0 -0.48456215232E+02 -0.17232727731E+03  0.12526070182E+03  0.21853381596E+03  0.47000000000E+01 0. -1.
        -11    1    4    4    0    0 -0.11552348451E+02 -0.12469486973E+03  0.67989315263E+01  0.12541328782E+03  0.00000000000E+00 0.  1.
         12    1    4    4    0    0 -0.14775651515E+03 -0.28667642535E+03  0.67897897638E+02  0.32958380592E+03  0.00000000000E+00 0. -1.
         -5    1    5    5    0  501 -0.21927784760E+02  0.78823316812E+02 -0.92820617372E+02  0.12382124223E+03  0.47000000000E+01 0.  1.
         13    1    6    6    0    0  0.10118969657E+03  0.20484335633E+03 -0.33157537704E+03  0.40266907751E+03  0.00000000000E+00 0. -1.
        -14    1    6    6    0    0  0.12850316703E+03  0.30003189925E+03 -0.32458928936E+03  0.46031555619E+03  0.00000000000E+00 0.  1.
</event>
<event>
12    1  0.1081556E+000  0.7240170E+03  0.7818608E-02  0.9677019E-01
          2   -1    0    0  502    0  0.00000000000E+00  0.00000000000E+00  0.13356418438E+04  0.13356418438E+04  0.00000000000E+00 0. -1.
         -2   -1    0    0    0  501 -0.00000000000E+00 -0.00000000000E+00 -0.68163514784E+03  0.68163514784E+03  0.00000000000E+00 0.  1.
          6    2    1    2  502    0  0.19600217606E+03  0.67540298753E+03 -0.32999013662E+03  0.79551720690E+03  0.17137119836E+03 0.  0.
         24    2    3    3    0    0  0.20674892512E+03  0.59760362409E+03 -0.25405878545E+03  0.68617419772E+03  0.80087162398E+02 0.  0.
         -6    2    1    2    0  501 -0.19600217606E+03 -0.67540298753E+03  0.98399683261E+03  0.12217597848E+04  0.17280380928E+03 0.  0.
        -24    2    5    5    0    0 -0.40336799497E+02 -0.26156731524E+03  0.30372539782E+03  0.41041338025E+03  0.78393288082E+02 0.  0.
          5    1    3    3  502    0 -0.10746749064E+02  0.77799363435E+02 -0.75931351172E+02  0.10934300918E+03  0.47000000000E+01 0. -1.
        -13    1    4    4    0    0  0.92027750968E+02  0.24540717819E+03 -0.14746617357E+03  0.30073254297E+03  0.00000000000E+00 0.  1.
         14    1    4    4    0    0  0.11472117416E+03  0.35219644590E+03 -0.10659261188E+03  0.38544165474E+03  0.00000000000E+00 0. -1.
         -5    1    5    5    0  501 -0.15566537656E+03 -0.41383567229E+03  0.68027143480E+03  0.81134640451E+03  0.47000000000E+01 0.  1.
         13    1    6    6    0    0 -0.29494542614E+02 -0.24273352404E+03  0.30204933696E+03  0.38861715569E+03  0.00000000000E+00 0. -1.
        -14    1    6    6    0    0 -0.10842256883E+02 -0.18833791201E+02  0.16760608564E+01  0.21796224566E+02  0.00000000000E+00 0.  1.
</event>
<event>
12    1  0.1081556E+000  0.5637342E+03  0.7818608E-02  0.9983641E-01
         -1   -1    0    0    0  501 -0.00000000000E+00  0.00000000000E+00  0.44334043058E+03  0.44334043058E+03  0.00000000000E+00 0.  1.
          1   -1    0    0  502    0  0.00000000000E+00 -0.00000000000E+00 -0.38396582046E+04  0.38396582046E+04  0.00000000000E+00 0. -1.
          6    2    1    2  502    0  0.38295100653E+02 -0.53490336789E+03  0.23325377547E+03  0.60987421509E+03  0.17306388054E+03 0.  0.
         24    2    3    3    0    0  0.67817340782E+02 -0.38494740050E+03  0.22308548488E+03  0.45662983852E+03  0.77200926138E+02 0.  0.
         -6    2    1    2    0  501 -0.38295100653E+02  0.53490336789E+03 -0.36295715495E+04  0.36731244201E+04  0.17454296006E+03 0.  0.
        -24    2    5    5    0    0 -0.67732770713E+02  0.42181165788E+03 -0.31321693528E+04  0.31621573501E+04  0.79002845300E+02 0.  0.
          5    1    3    3  502    0 -0.29522240129E+02 -0.14995596738E+03  0.10168290589E+02  0.15324437657E+03  0.47000000000E+01 0. -1.
        -11    1    4    4    0    0  0.92167886257E+01 -0.14499734267E+03  0.44918324878E+02  0.15207509489E+03  0.00000000000E+00 0.  1.
         12    1    4    4    0    0  0.58600552157E+02 -0.23995005783E+03  0.17816716000E+03  0.30455474363E+03  0.00000000000E+00 0. -1.
         -5    1    5    5    0  501  0.29437670061E+02  0.11309171001E+03 -0.49740219675E+03  0.51096707000E+03  0.47000000000E+01 0.  1.
         13    1    6    6    0    0  0.32502318647E+01  0.15542147400E+03 -0.13234164958E+04  0.13325155233E+04  0.00000000000E+00 0. -1.
        -14    1    6    6    0    0 -0.70983002578E+02  0.26639018388E+03 -0.18087528570E+04  0.18296418268E+04  0.00000000000E+00 0.  1.
</event>
<event>
12    1  0.1081556E+000  0.3360463E+03  0.7818608E-02  0.1068492E+00
         -2   -1    0    0    0  501 -0.00000000000E+00  0.00000000000E+00  0.26675484660E+03  0.26675484660E+03  0.00000000000E+00 0.  1.
          2   -1    0    0  502    0  0.00000000000E+00 -0.00000000000E+00 -0.42501197306E+03  0.42501197306E+03  0.00000000000E+00 0. -1.
          6    2    1    2  502    0 -0.10984771949E+03  0.26778728033E+03 -0.10097591578E+03  0.35146122127E+03  0.17190784015E+03 0.  0.
         24    2    3    3    0    0 -0.69181928562E+02  0.58078514507E+02 -0.12790493668E+02  0.12031141770E+03  0.78434605976E+02 0.  0.
         -6    2    1    2    0  501  0.10984771949E+03 -0.26778728033E+03 -0.57281210676E+02  0.34030559839E+03  0.16955888126E+03 0.  0.
        -24    2    5    5    0    0  0.12916117288E+03 -0.27115855976E+03 -0.66562973118E+02  0.31811064128E+03  0.80957875414E+02 0.  0.
          5    1    3    3  502    0 -0.40665790923E+02  0.20970876583E+03 -0.88185422113E+02  0.23114980357E+03  0.47000000000E+01 0. -1.
        -13    1    4    4    0    0 -0.38578900724E+02  0.68398903425E+02 -0.29575947765E+02  0.83913516534E+02  0.00000000000E+00 0.  1.
         14    1    4    4    0    0 -0.30603027838E+02 -0.10320388919E+02  0.16785454098E+02  0.36397901169E+02  0.00000000000E+00 0. -1.
         -5    1    5    5    0  501 -0.19313453398E+02  0.33712794306E+01  0.92817624420E+01  0.22194957111E+02  0.47000000000E+01 0.  1.
         11    1    6    6    0    0  0.53798833122E+02 -0.40548741756E+02 -0.36128964023E+01  0.67465309039E+02  0.00000000000E+00 0. -1.
        -12    1    6    6    0    0  0.75362339761E+02 -0.23060981801E+03 -0.62950076715E+02  0.25064533224E+03  0.00000000000E+00 0.  1.
</event>
<event>
12    1  0.1081556E+000  0.3222428E+03  0.7818608E-02  0.1074622E+00
          1   -1    0    0  502    0  0.00000000000E+00  0.00000000000E+00  0.19546927322E+04  0.19546927322E+04  0.00000000000E+00 0. -1.
         -1   -1    0    0    0  501 -0.00000000000E+00 -0.00000000000E+00 -0.14998023628E+03  0.14998023628E+03  0.00000000000E+00 0.  1.
          6    2    1    2  502    0 -0.27010918267E+03 -0.39510302668E+02  0.57121163992E+02  0.32770012194E+03  0.17205960586E+03 0.  0.
         24    2    3    3    0    0 -0.25252504808E+03 -0.75883527234E+02  0.75579438320E+02  0.28303457431E+03  0.69779002149E+02 0.  0.
         -6    2    1    2    0  501  0.27010918267E+03  0.39510302668E+02  0.17475913320E+04  0.17769728466E+04  0.17040246274E+03 0.  0.
        -24    2    5    5    0    0  0.11997412165E+03  0.33525399266E+02  0.12009841567E+04  0.12100708712E+04  0.79942644710E+02 0.  0.
          5    1    3    3  502    0 -0.17584134583E+02  0.36373224567E+02 -0.18458274328E+02  0.44665547635E+02  0.47000000000E+01 0. -1.
        -11    1    4    4    0    0 -0.23664820394E+03 -0.58053251434E+02  0.51345665740E+02  0.24901592283E+03  0.00000000000E+00 0.  1.
         12    1    4    4    0    0 -0.15876844140E+02 -0.17830275801E+02  0.24233772579E+02  0.34018651478E+02  0.00000000000E+00 0. -1.
         -5    1    5    5    0  501  0.15013506102E+03  0.59849034012E+01  0.54660717527E+03  0.56690197537E+03  0.47000000000E+01 0.  1.
         13    1    6    6    0    0  0.90850935334E+02  0.50199694637E+02  0.66648056272E+03  0.67451481991E+03  0.00000000000E+00 0. -1.
        -14    1    6    6    0    0  0.29123186312E+02 -0.16674295370E+02  0.53450359396E+03  0.53555605128E+03  0.00000000000E+00 0.  1.
</event>
<event>
12    1  0.1081556E+000  0.4086830E+03  0.7818608E-02  0.1040814E+00
         -2   -1    0    0    0  501 -0.00000000000E+00  0.00000000000E+00  0.20491888328E+03  0.20491888328E+03  0.00000000000E+00 0.  1.
          2   -1    0    0  502    0  0.00000000000E+00 -0.00000000000E+00 -0.19324376973E+04  0.19324376973E+04  0.00000000000E+00 0. -1.
          6    2    1    2  502    0  0.19398490685E+03  0.31580650204E+03 -0.51027646112E+02  0.41174466686E+03  0.17194754782E+03 0.  0.
         24    2    3    3    0    0  0.16154815750E+03  0.31080283875E+03 -0.10190742454E+02  0.35914312643E+03  0.78636647111E+02 0.  0.
         -6    2    1    2    0  501 -0.19398490685E+03 -0.31580650204E+03 -0.16764911679E+04  0.17256119137E+04  0.17248173784E+03 0.  0.
        -24    2    5    5    0    0 -0.21397239734E+03 -0.26108529939E+03 -0.15083741656E+04  0.15476250427E+04  0.77465662859E+02 0.  0.
          5    1    3    3  502    0  0.32436749352E+02  0.50036632956E+01 -0.40836903658E+02  0.52601540427E+02  0.47000000000E+01 0. -1.
        -11    1    4    4    0    0  0.54933947662E+02  0.40305679218E+02 -0.54966254610E+01  0.68355682093E+02  0.00000000000E+00 0.  1.
         12    1    4    4    0    0  0.10661420984E+03  0.27049715953E+03 -0.46941169928E+01  0.29078744434E+03  0.00000000000E+00 0. -1.
         -5    1    5    5    0  501  0.19987490488E+02 -0.54721202652E+02 -0.16811700230E+03  0.17798687103E+03  0.47000000000E+01 0.  1.
         11    1    6    6    0    0 -0.77626829164E+02 -0.92958247650E+02 -0.71810959771E+03  0.72825033795E+03  0.00000000000E+00 0. -1.
        -12    1    6    6    0    0 -0.13634556818E+03 -0.16812705174E+03 -0.79026456787E+03  0.81937470471E+03  0.00000000000E+00 0.  1.
</event>
<event>
12    1  0.1081556E+000  0.6454251E+03  0.7818608E-02  0.9815402E-01
         -1   -1    0    0    0  501 -0.00000000000E+00  0.00000000000E+00  0.40773130785E+03  0.40773130785E+03  0.00000000000E+00 0.  1.
          1   -1    0    0  502    0  0.00000000000E+00 -0.00000000000E+00 -0.16771474340E+04  0.16771474340E+04  0.00000000000E+00 0. -1.
          6    2    1    2  502    0  0.13041345232E+03  0.60831463790E+03  0.17021357322E+02  0.64557750806E+03  0.17154073881E+03 0.  0.
         24    2    3    3    0    0  0.38604976356E+02  0.14033679531E+03 -0.25722218747E+02  0.16674438398E+03  0.77183526320E+02 0.  0.
         -6    2    1    2    0  501 -0.13041345232E+03 -0.60831463790E+03 -0.12864374835E+04  0.14393012338E+04  0.17208217653E+03 0.  0.
        -24    2    5    5    0    0 -0.11426625319E+03 -0.49535077144E+03 -0.11595342194E+04  0.12685731002E+04  0.79554642865E+02 0.  0.
          5    1    3    3  502    0  0.91808475967E+02  0.46797784259E+03  0.42743576069E+02  0.47883312408E+03  0.47000000000E+01 0. -1.
        -11    1    4    4    0    0  0.56786399084E+02  0.13346371555E+03 -0.25732424665E+02  0.14730721696E+03  0.00000000000E+00 0.  1.
         12    1    4    4    0    0 -0.18181422728E+02  0.68730797631E+01  0.10205918240E-01  0.19437167026E+02  0.00000000000E+00 0. -1.
         -5    1    5    5    0  501 -0.16147199136E+02 -0.11296386647E+03 -0.12690326404E+03  0.17072813356E+03  0.47000000000E+01 0.  1.
         13    1    6    6    0    0 -0.54436893679E+02 -0.12997352674E+03 -0.25799889301E+03  0.29397265492E+03  0.00000000000E+00 0. -1.
        -14    1    6    6    0    0 -0.59829359509E+02 -0.36537724470E+03 -0.90153532643E+03  0.97460044531E+03  0.00000000000E+00 0.  1.
</event>
<event>
12    1  0.1081556E+000  0.5441283E+03  0.7818608E-02  0.1002862E+00
         -1   -1    0    0    0  501 -0.00000000000E+00  0.00000000000E+00  0.16938135029E+03  0.16938135029E+03  0.00000000000E+00 0.  1.
          1   -1    0    0  502    0  0.00000000000E+00 -0.00000000000E+00 -0.23379109286E+04  0.23379109286E+04  0.00000000000E+00 0. -1.
          6    2    1    2  502    0 -0.10285873512E+03 -0.50988479452E+03 -0.45860589886E+03  0.71370088377E+03  0.16878139103E+03 0.  0.
         24    2    3    3    0    0 -0.12215577076E+03 -0.36729575676E+03 -0.28007930909E+03  0.48435868851E+03  0.79565787182E+02 0.  0.
         -6    2    1    2    0  501  0.10285873512E+03  0.50988479452E+03 -0.17099236795E+04  0.17935913951E+04  0.15022875896E+03 0.  0.
        -24    2    5    5    0    0  0.74726617525E+02  0.26611758482E+03 -0.75379766461E+03  0.80646783911E+03  0.76005394757E+02 0.  0.
          5    1    3    3  502    0  0.19297035640E+02 -0.14258903776E+03 -0.17852658977E+03  0.22934219526E+03  0.47000000000E+01 0. -1.
        -11    1    4    4    0    0 -0.33012538866E+02 -0.18239713036E+03 -0.16963782124E+03  0.25126784768E+03  0.00000000000E+00 0.  1.
         12    1    4    4    0    0 -0.89143231895E+02 -0.18489862640E+03 -0.11044148785E+03  0.23309084082E+03  0.00000000000E+00 0. -1.
         -5    1    5    5    0  501  0.28132117596E+02  0.24376720970E+03 -0.95612601486E+03  0.98712355602E+03  0.47000000000E+01 0.  1.
         13    1    6    6    0    0  0.76286745815E+02  0.25727767511E+03 -0.66330823219E+03  0.71553426235E+03  0.00000000000E+00 0. -1.
        -14    1    6    6    0    0 -0.15601282901E+01  0.88399097086E+01 -0.90489432417E+02  0.90933576764E+02  0.00000000000E+00 0.  1.
</event>
<event>
12    1  0.1081556E+000  0.2065700E+03  0.7818608E-02  0.1144311E+00
         -2   -1    0    0    0  501 -0.00000000000E+00  0.00000000000E+00  0.15318122831E+03  0.15318122831E+03  0.00000000000E+00 0.  1.
          2   -1    0    0  502    0  0.00000000000E+00 -0.00000000000E+00 -0.57960659530E+03  0.57960659530E+03  0.00000000000E+00 0. -1.
          6    2    1    2  502    0 -0.53929144175E+02  0.10229250201E+03  0.50963954392E+02  0.21252468816E+03  0.17087220333E+03 0.  0.
         24    2    3    3    0    0 -0.81818310848E+02  0.37161851359E+02  0.88535084843E+01  0.12997054274E+03  0.93481111357E+02 0.  0.
         -6    2    1    2    0  501  0.53929144175E+02 -0.10229250201E+03 -0.47738932138E+03  0.52026313545E+03  0.17146736534E+03 0.  0.
        -24    2    5    5    0    0  0.30887799347E+02 -0.13150529767E+03 -0.44081723520E+03  0.46788090096E+03  0.79655528175E+02 0.  0.
          5    1    3    3  502    0  0.27889166673E+02  0.65130650649E+02  0.42110445908E+02  0.82554145421E+02  0.47000000000E+01 0. -1.
        -13    1    4    4    0    0 -0.43915670295E+02  0.24220505475E+02  0.51209418771E+02  0.71677217816E+02  0.00000000000E+00 0.  1.
         14    1    4    4    0    0 -0.37902640553E+02  0.12941345884E+02 -0.42355910287E+02  0.58293324922E+02  0.00000000000E+00 0. -1.
         -5    1    5    5    0  501  0.23041344827E+02  0.29212795667E+02 -0.36572086183E+02  0.52382234488E+02  0.47000000000E+01 0.  1.
         11    1    6    6    0    0  0.31651036950E+02 -0.10321171536E+02 -0.65355733009E+02  0.73346346597E+02  0.00000000000E+00 0. -1.
        -12    1    6    6    0    0 -0.76323760256E+00 -0.12118412614E+03 -0.37546150219E+03  0.39453455436E+03  0.00000000000E+00 0.  1.
</event>
<event>
12    1  0.1081556E+000  0.3087819E+03  0.7818608E-02  0.1080931E+00
          2   -1    0    0  502    0  0.00000000000E+00  0.00000000000E+00  0.46908613341E+03  0.46908613341E+03  0.00000000000E+00 0. -1.
         -2   -1    0    0    0  501 -0.00000000000E+00 -0.00000000000E+00 -0.21005709968E+03  0.21005709968E+03  0.00000000000E+00 0.  1.
          6    2    1    2  502    0 -0.19346538040E+03  0.16186733943E+03  0.67153371513E+02  0.31266761012E+03  0.17210918083E+03 0.  0.
         24    2    3    3    0    0 -0.52682552025E+02  0.95391905730E+02  0.33954245886E+00  0.14318319844E+03  0.92877586417E+02 0.  0.
         -6    2    1    2    0  501  0.19346538040E+03 -0.16186733943E+03  0.19187566222E+03  0.36647562297E+03  0.18400604199E+03 0.  0.
        -24    2    5    5    0    0  0.16268283531E+02 -0.34237211623E+02  0.87136859152E+02  0.12423490069E+03  0.80028961115E+02 0.  0.
          5    1    3    3  502    0 -0.14078282838E+03  0.66475433697E+02  0.66813829054E+02  0.16948441168E+03  0.47000000000E+01 0. -1.
        -11    1    4    4    0    0 -0.73128109239E+02  0.38901592679E+02 -0.41810520072E+01  0.82936936703E+02  0.00000000000E+00 0.  1.
         12    1    4    4    0    0  0.20445557215E+02  0.56490313051E+02  0.45205944661E+01  0.60246261732E+02  0.00000000000E+00 0. -1.
         -5    1    5    5    0  501  0.17719709687E+03 -0.12763012780E+03  0.10473880306E+03  0.24224072228E+03  0.47000000000E+01 0.  1.
         11    1    6    6    0    0  0.34278935436E+02 -0.19232218232E+01  0.79309120801E+02  0.86421529951E+02  0.00000000000E+00 0. -1.
        -12    1    6    6    0    0 -0.18010651904E+02 -0.32313989799E+02  0.78277383507E+01  0.37813370737E+02  0.00000000000E+00 0.  1.
</event>
<event>
12    1  0.1081556E+000  0.3002037E+03  0.7818608E-02  0.1085139E+00
         -2   -1    0    0    0  501 -0.00000000000E+00  0.00000000000E+00  0.21501633846E+04  0.21501633846E+04  0.00000000000E+00 0.  1.
          2   -1    0    0  502    0  0.00000000000E+00 -0.00000000000E+00 -0.41959746258E+02  0.41959746258E+02  0.00000000000E+00 0. -1.
          6    2    1    2  502    0  0.11827360273E+03  0.21495607644E+03  0.10145045398E+04  0.10576941624E+04  0.17118037269E+03 0.  0.
         24    2    3    3    0    0  0.98696061210E+02  0.22770759687E+03  0.78869971257E+03  0.83063515816E+03  0.79472430391E+02 0.  0.
         -6    2    1    2    0  501 -0.11827360273E+03 -0.21495607644E+03  0.10936990986E+04  0.11344289685E+04  0.17480448060E+03 0.  0.
        -24    2    5    5    0    0 -0.93834496358E+02 -0.88255339763E+02  0.78825100073E+03  0.80281024606E+03  0.81060059968E+02 0.  0.
          5    1    3    3  502    0  0.19577541516E+02 -0.12751520433E+02  0.22580482720E+03  0.22705900421E+03  0.47000000000E+01 0. -1.
        -11    1    4    4    0    0  0.72842713863E+02  0.22137051163E+03  0.72696489268E+03  0.76340613017E+03  0.00000000000E+00 0.  1.
         12    1    4    4    0    0  0.25853347348E+02  0.63370852391E+01  0.61734819888E+02  0.67229027994E+02  0.00000000000E+00 0. -1.
         -5    1    5    5    0  501 -0.24439106369E+02 -0.12670073667E+03  0.30544809787E+03  0.33161872246E+03  0.47000000000E+01 0.  1.
         13    1    6    6    0    0 -0.67042305263E+02 -0.85316066011E+02  0.42755356296E+03  0.44110718767E+03  0.00000000000E+00 0. -1.
        -14    1    6    6    0    0 -0.26792191095E+02 -0.29392737520E+01  0.36069743777E+03  0.36170305839E+03  0.00000000000E+00 0.  1.
</event>
<event>
12    1  0.1081556E+000  0.1922278E+03  0.7818608E-02  0.1156467E+00
         -2   -1    0    0    0  501 -0.00000000000E+00  0.00000000000E+00  0.39484398341E+02  0.39484398341E+02  0.00000000000E+00 0.  1.
          2   -1    0    0  502    0  0.00000000000E+00 -0.00000000000E+00 -0.12834366346E+04  0.12834366346E+04  0.00000000000E+00 0. -1.
          6    2    1    2  502    0 -0.87566729552E+02 -0.28658996917E+01 -0.28108979182E+03  0.34133049474E+03  0.17268146997E+03 0.  0.
         24    2    3    3    0    0 -0.96935742407E+01 -0.31818817244E+02 -0.59775404859E+02  0.10488885791E+03  0.79512080690E+02 0.  0.
         -6    2    1    2    0  501  0.87566729552E+02  0.28658996917E+01 -0.96286244439E+03  0.98159053815E+03  0.16952802793E+03 0.  0.
        -24    2    5    5    0    0  0.12012268255E+03  0.32312907919E+02 -0.72669082639E+03  0.74132789120E+03  0.77549353488E+02 0.  0.
          5    1    3    3  502    0 -0.77873155311E+02  0.28952917552E+02 -0.22131438696E+03  0.23644163683E+03  0.47000000000E+01 0. -1.
        -13    1    4    4    0    0  0.21731426543E+02  0.15372213205E+02 -0.72203766052E+01  0.27580675784E+02  0.00000000000E+00 0.  1.
         14    1    4    4    0    0 -0.31425000783E+02 -0.47191030449E+02 -0.52555028254E+02  0.77308182128E+02  0.00000000000E+00 0. -1.
         -5    1    5    5    0  501 -0.32555953002E+02 -0.29447008227E+02 -0.23617161800E+03  0.24026264695E+03  0.47000000000E+01 0.  1.
         13    1    6    6    0    0  0.26876311838E+02 -0.23925704842E+02 -0.13575457354E+03  0.14044244275E+03  0.00000000000E+00 0. -1.
        -14    1    6    6    0    0  0.93246370716E+02  0.56238612761E+02 -0.59093625285E+03  0.60088544844E+03  0.00000000000E+00 0.  1.
</event>
<event>
12    1  0.1280543E+000  0.6790312E+03  0.7818608E-02  0.9753779E-01
          2   -1    0    0  502    0  0.00000000000E+00  0.00000000000E+00  0.12652000683E+04  0.12652000683E+04  0.00000000000E+00 0. -1.
         -2   -1    0    0    0  501 -0.00000000000E+00 -0.00000000000E+00 -0.48344980431E+03  0.48344980431E+03  0.00000000000E+00 0.  1.
          6    2    1    2  502    0 -0.49592776293E+03  0.43002535608E+03 -0.42636583570E+02  0.68104796953E+03  0.17647182671E+03 0.  0.
         24    2    3    3    0    0 -0.40361006539E+03  0.26040044906E+03 -0.33556925089E+02  0.48765795799E+03  0.77296429571E+02 0.  0.
         -6    2    1    2    0  501  0.49592776293E+03 -0.43002535608E+03  0.82438684759E+03  0.10676019031E+04  0.17115488938E+03 0.  0.
        -24    2    5    5    0    0  0.47871729340E+03 -0.41222207702E+03  0.82528650073E+03  0.10423817449E+04  0.79778480577E+02 0.  0.
          5    1    3    3  502    0 -0.92317697541E+02  0.16962490702E+03 -0.90796584818E+01  0.19339001153E+03  0.47000000000E+01 0. -1.
        -11    1    4    4    0    0 -0.15143115190E+03  0.14263270392E+03 -0.83269264027E+01  0.20819418747E+03  0.00000000000E+00 0.  1.
         12    1    4    4    0    0 -0.25217891349E+03  0.11776774514E+03 -0.25229998686E+02  0.27946377053E+03  0.00000000000E+00 0. -1.
         -5    1    5    5    0  501  0.17210469529E+02 -0.17803279054E+02 -0.89965314142E+00  0.25220158252E+02  0.47000000000E+01 0.  1.
         13    1    6    6    0    0  0.36300707975E+03 -0.29252385280E+03  0.55369506044E+03  0.72382495423E+03  0.00000000000E+00 0. -1.
        -14    1    6    6    0    0  0.11571021365E+03 -0.11969822422E+03  0.27159144030E+03  0.31855679064E+03  0.00000000000E+00 0.  1.
</event>
<event>
12    1  0.1081556E+000  0.1036736E+04  0.7818608E-02  0.9269146E-01
          1   -1    0    0  502    0  0.00000000000E+00  0.00000000000E+00  0.20280813905E+04  0.20280813905E+04  0.00000000000E+00 0. -1.
         -1   -1    0    0    0  501 -0.00000000000E+00 -0.00000000000E+00 -0.10285094347E+04  0.10285094347E+04  0.00000000000E+00 0.  1.
          6    2    1    2  502    0 -0.96312558940E+03  0.34287650847E+03 -0.56424693345E+03  0.11803193912E+04  0.17205831100E+03 0.  0.
         24    2    3    3    0    0 -0.83733570058E+03  0.29515332419E+03 -0.54296802547E+03  0.10440274972E+04  0.83262104358E+02 0.  0.
         -6    2    1    2    0  501  0.96312558940E+03 -0.34287650847E+03  0.15638188892E+04  0.18762714339E+04  0.17230720953E+03 0.  0.
        -24    2    5    5    0    0  0.52177203086E+03 -0.16597487205E+03  0.95479021616E+03  0.11035973971E+04  0.80679288698E+02 0.  0.
          5    1    3    3  502    0 -0.12578988883E+03  0.47723184284E+02 -0.21278907979E+02  0.13629189401E+03  0.47000000000E+01 0. -1.
        -11    1    4    4    0    0 -0.48943232976E+03  0.21283410399E+03 -0.34243722025E+03  0.63411797881E+03  0.00000000000E+00 0.  1.
         12    1    4    4    0    0 -0.34790337082E+03  0.82319220200E+02 -0.20053080522E+03  0.40990951841E+03  0.00000000000E+00 0. -1.
         -5    1    5    5    0  501  0.44135355854E+03 -0.17690163642E+03  0.60902867306E+03  0.77267403685E+03  0.47000000000E+01 0.  1.
         13    1    6    6    0    0  0.39132161791E+03 -0.11699149127E+03  0.63830711450E+03  0.75779653608E+03  0.00000000000E+00 0. -1.
        -14    1    6    6    0    0  0.13045041295E+03 -0.48983380778E+02  0.31648310166E+03  0.34580086099E+03  0.00000000000E+00 0.  1.
</event>
<event>
12    1  0.1081556E+000  0.1733724E+03  0.7818608E-02  0.1174376E+00
          2   -1    0    0  502    0  0.00000000000E+00  0.00000000000E+00  0.40747040244E+03  0.40747040244E+03  0.00000000000E+00 0. -1.
         -2   -1    0    0    0  501 -0.00000000000E+00 -0.00000000000E+00 -0.17669053111E+03  0.17669053111E+03  0.00000000000E+00 0.  1.
          6    2    1    2  502    0 -0.85102277730E+01 -0.76694033798E+01 -0.10713136480E+03  0.20500850695E+03  0.17441363156E+03 0.  0.
         24    2    3    3    0    0 -0.30726893740E+02 -0.57747421434E+02 -0.10662116743E+03  0.15001997687E+03  0.82819161036E+02 0.  0.
         -6    2    1    2    0  501  0.85102277730E+01  0.76694033798E+01  0.33791123613E+03  0.37915242659E+03  0.17158471775E+03 0.  0.
        -24    2    5    5    0    0 -0.42502318862E+02  0.54344444820E+02  0.19664538469E+03  0.22180259282E+03  0.75942195573E+02 0.  0.
          5    1    3    3  502    0  0.22216665967E+02  0.50078018054E+02 -0.51019736576E+00  0.54988530079E+02  0.47000000000E+01 0. -1.
        -13    1    4    4    0    0  0.25424032806E+01 -0.59622627460E+02 -0.99378523407E+02  0.11591985349E+03  0.00000000000E+00 0.  1.
         14    1    4    4    0    0 -0.33269297020E+02  0.18752060263E+01 -0.72426440260E+01  0.34100123377E+02  0.00000000000E+00 0. -1.
         -5    1    5    5    0  501  0.51012546635E+02 -0.46675041440E+02  0.14126585143E+03  0.15734983377E+03  0.47000000000E+01 0.  1.
         13    1    6    6    0    0 -0.10050166278E+02  0.23963655217E+02  0.16549110331E+03  0.16751885830E+03  0.00000000000E+00 0. -1.
        -14    1    6    6    0    0 -0.32452152584E+02  0.30380789603E+02  0.31154281386E+02  0.54283734515E+02  0.00000000000E+00 0.  1.
</event>
<event>
12    1  0.1081556E+000  0.4985311E+03  0.7818608E-02  0.1014163E+00
          2   -1    0    0  502    0  0.00000000000E+00  0.00000000000E+00  0.48391093949E+03  0.48391093949E+03  0.00000000000E+00 0. -1.
         -2   -1    0    0    0  501 -0.00000000000E+00 -0.00000000000E+00 -0.60704520497E+03  0.60704520497E+03  0.00000000000E+00 0.  1.
          6    2    1    2  502    0 -0.46202742084E+03  0.82708665022E+02 -0.27570570559E+03  0.57068386955E+03  0.17133704211E+03 0.  0.
         24    2    3    3    0    0 -0.12713558196E+03 -0.16996579904E+02 -0.10693874772E+03  0.18261421642E+03  0.73889893401E+02 0.  0.
         -6    2    1    2    0  501  0.46202742084E+03 -0.82708665022E+02  0.15257144012E+03  0.52027227491E+03  0.16460599874E+03 0.  0.
        -24    2    5    5    0    0  0.35205362177E+03 -0.80787824486E+01  0.14040029253E+03  0.38672796508E+03  0.76415034534E+02 0.  0.
          5    1    3    3  502    0 -0.33489183888E+03  0.99705244926E+02 -0.16876695787E+03  0.38806965313E+03  0.47000000000E+01 0. -1.
        -11    1    4    4    0    0 -0.10316982704E+03  0.18250752777E+02 -0.83474327495E+02  0.13395919729E+03  0.00000000000E+00 0.  1.
         12    1    4    4    0    0 -0.23965754917E+02 -0.35247332681E+02 -0.23464420227E+02  0.48655019129E+02  0.00000000000E+00 0. -1.
         -5    1    5    5    0  501  0.10997379906E+03 -0.74629882573E+02  0.12171147586E+02  0.13354430983E+03  0.47000000000E+01 0.  1.
         11    1    6    6    0    0  0.10083707218E+03 -0.18836563432E+01  0.78816809162E+02  0.12799903395E+03  0.00000000000E+00 0. -1.
        -12    1    6    6    0    0  0.25121654960E+03 -0.61951261054E+01  0.61583483370E+02  0.25872893113E+03  0.00000000000E+00 0.  1.
</event>
<event>
12    1  0.1081556E+000  0.3471612E+03  0.7818608E-02  0.1063786E+00
          2   -1    0    0  502    0  0.00000000000E+00  0.00000000000E+00  0.14475874154E+04  0.14475874154E+04  0.00000000000E+00 0. -1.
         -2   -1    0    0    0  501 -0.00000000000E+00 -0.00000000000E+00 -0.14471970762E+03  0.14471970762E+03  0.00000000000E+00 0.  1.
          6    2    1    2  502    0  0.18472900176E+03 -0.23702852615E+03  0.13310233036E+03  0.37224968345E+03  0.17477491291E+03 0.  0.
         24    2    3    3    0    0  0.17862593179E+03 -0.12080134348E+03  0.73590496371E+02  0.24144542572E+03  0.79875805819E+02 0.  0.
         -6    2    1    2    0  501 -0.18472900176E+03  0.23702852615E+03  0.11697653775E+04  0.12200574396E+04  0.17286350496E+03 0.  0.
        -24    2    5    5    0    0 -0.71686958022E+02  0.19624761837E+03  0.68232593600E+03  0.71800078426E+03  0.79399594408E+02 0.  0.
          5    1    3    3  502    0  0.61030699771E+01 -0.11622718267E+03  0.59511833990E+02  0.13080425773E+03  0.47000000000E+01 0. -1.
        -13    1    4    4    0    0  0.93152793171E+02 -0.49923435305E+02 -0.43616187300E+01  0.10577719975E+03  0.00000000000E+00 0.  1.
         14    1    4    4    0    0  0.85473138614E+02 -0.70877908171E+02  0.77952115101E+02  0.13566822598E+03  0.00000000000E+00 0. -1.
         -5    1    5    5    0  501 -0.11304204374E+03  0.40780907775E+02  0.48743944145E+03  0.50205665535E+03  0.47000000000E+01 0.  1.
         13    1    6    6    0    0 -0.84968079975E+02  0.13979848859E+03  0.54239792585E+03  0.56653217207E+03  0.00000000000E+00 0. -1.
        -14    1    6    6    0    0  0.13281121953E+02  0.56449129782E+02  0.13992801016E+03  0.15146861219E+03  0.00000000000E+00 0.  1.
</event>
<event>
12    1  0.1081556E+000  0.4399530E+03  0.7818608E-02  0.1030761E+00
         -1   -1    0    0    0  501 -0.00000000000E+00  0.00000000000E+00  0.50066618281E+03  0.50066618281E+03  0.00000000000E+00 0.  1.
          1   -1    0    0  502    0  0.00000000000E+00 -0.00000000000E+00 -0.83413085908E+03  0.83413085908E+03  0.00000000000E+00 0. -1.
          6    2    1    2  502    0  0.34822267528E+03  0.20721493049E+03  0.32219399495E+03  0.54497794878E+03  0.17027899249E+03 0.  0.
         24    2    3    3    0    0  0.28833340053E+03  0.11017307023E+03  0.19406255434E+03  0.37338656221E+03  0.80517045269E+02 0.  0.
         -6    2    1    2    0  501 -0.34822267528E+03 -0.20721493049E+03 -0.65565867122E+03  0.78981909310E+03  0.17242055469E+03 0.  0.
        -24    2    5    5    0    0 -0.31401179505E+03 -0.12563067088E+03 -0.56258585636E+03  0.66132390016E+03  0.80374014788E+02 0.  0.
          5    1    3    3  502    0  0.59889274752E+02  0.97041860262E+02  0.12813144061E+03  0.17159138658E+03  0.47000000000E+01 0. -1.
        -13    1    4    4    0    0  0.16527482912E+03  0.74864595008E+02  0.15744801385E+03  0.24022979372E+03  0.00000000000E+00 0.  1.
         14    1    4    4    0    0  0.12305857141E+03  0.35308475217E+02  0.36614540491E+02  0.13315676849E+03  0.00000000000E+00 0. -1.
         -5    1    5    5    0  501 -0.34210880236E+02 -0.81584259607E+02 -0.93072814859E+02  0.12849519294E+03  0.47000000000E+01 0.  1.
         11    1    6    6    0    0 -0.26625230505E+03 -0.11308505362E+03 -0.41635952865E+03  0.50698498636E+03  0.00000000000E+00 0. -1.
        -12    1    6    6    0    0 -0.47759489994E+02 -0.12545617259E+02 -0.14622632772E+03  0.15433891380E+03  0.00000000000E+00 0.  1.
</event>
<event>
12    1  0.1081556E+000  0.4347380E+03  0.7818608E-02  0.1032374E+00
          1   -1    0    0  502    0  0.00000000000E+00  0.00000000000E+00  0.82136448959E+03  0.82136448959E+03  0.00000000000E+00 0. -1.
         -1   -1    0    0    0  501 -0.00000000000E+00 -0.00000000000E+00 -0.23251326278E+03  0.23251326278E+03  0.00000000000E+00 0.  1.
          6    2    1    2  502    0 -0.34528568102E+02  0.39726135109E+03  0.24034799181E+03  0.49621201711E+03  0.17161120495E+03 0.  0.
         24    2    3    3    0    0  0.39688219571E+02  0.28522233210E+03  0.15089110471E+03  0.33470196170E+03  0.79563460076E+02 0.  0.
         -6    2    1    2    0  501  0.34528568102E+02 -0.39726135109E+03  0.34850323500E+03  0.55766573527E+03  0.17472196313E+03 0.  0.
        -24    2    5    5    0    0 -0.42122971022E+02 -0.18417007903E+03  0.20520070936E+03  0.28963392272E+03  0.78022531196E+02 0.  0.
          5    1    3    3  502    0 -0.74216787673E+02  0.11203901899E+03  0.89456887101E+02  0.16151005541E+03  0.47000000000E+01 0. -1.
        -11    1    4    4    0    0  0.65339473569E+01  0.17408805841E+03  0.50687113765E+02  0.18143463851E+03  0.00000000000E+00 0.  1.
         12    1    4    4    0    0  0.33154272214E+02  0.11113427369E+03  0.10020399095E+03  0.15326732319E+03  0.00000000000E+00 0. -1.
         -5    1    5    5    0  501  0.76651539124E+02 -0.21309127207E+03  0.14330252564E+03  0.26803181254E+03  0.47000000000E+01 0.  1.
         11    1    6    6    0    0 -0.11276652002E+02 -0.16990959293E+03  0.16703246476E+03  0.23852940476E+03  0.00000000000E+00 0. -1.
        -12    1    6    6    0    0 -0.30846319020E+02 -0.14260486097E+02  0.38168244597E+02  0.51104517965E+02  0.00000000000E+00 0.  1.
</event>
<event>
12    1  0.1081556E+000  0.4687397E+03  0.7818608E-02  0.1022277E+00
          1   -1    0    0  502    0  0.00000000000E+00  0.00000000000E+00  0.42358828797E+03  0.42358828797E+03  0.00000000000E+00 0. -1.
         -1   -1    0    0    0  501 -0.00000000000E+00 -0.00000000000E+00 -0.52481973418E+03  0.52481973418E+03  0.00000000000E+00 0.  1.
          6    2    1    2  502    0 -0.18782663198E+03  0.39316181210E+03  0.56578045613E+00  0.46882195549E+03  0.17302789274E+03 0.  0.
         24    2    3    3    0    0 -0.19575856809E+03  0.36762748359E+03  0.34365104422E+02  0.42546988699E+03  0.79826566145E+02 0.  0.
         -6    2    1    2    0  501  0.18782663198E+03 -0.39316181210E+03 -0.10179722667E+03  0.47958606666E+03  0.17258350384E+03 0.  0.
        -24    2    5    5    0    0  0.15250823245E+03 -0.17781550377E+03 -0.27572623751E+02  0.24903714878E+03  0.79888281646E+02 0.  0.
          5    1    3    3  502    0  0.79319361066E+01  0.25534328515E+02 -0.33799323966E+02  0.43352068505E+02  0.47000000000E+01 0. -1.
        -11    1    4    4    0    0 -0.10302720428E+03  0.26946254692E+03  0.33527207455E+02  0.29042855000E+03  0.00000000000E+00 0.  1.
         12    1    4    4    0    0 -0.92731363806E+02  0.98164936666E+02  0.83789696722E+00  0.13504133699E+03  0.00000000000E+00 0. -1.
         -5    1    5    5    0  501  0.35318399530E+02 -0.21534630833E+03 -0.74224602920E+02  0.23054891788E+03  0.47000000000E+01 0.  1.
         13    1    6    6    0    0  0.13385213453E+02 -0.17881270714E+02  0.21988907919E+02  0.31343513731E+02  0.00000000000E+00 0. -1.
        -14    1    6    6    0    0  0.13912301900E+03 -0.15993423305E+03 -0.49561531670E+02  0.21769363505E+03  0.00000000000E+00 0.  1.
</event>
<event>
12    1  0.1081556E+000  0.2780025E+03  0.7818608E-02  0.1096785E+00
         -2   -1    0    0    0  501 -0.00000000000E+00  0.00000000000E+00  0.32773405033E+03  0.32773405033E+03  0.00000000000E+00 0.  1.
          2   -1    0    0  502    0  0.00000000000E+00 -0.00000000000E+00 -0.98456385427E+03  0.98456385427E+03  0.00000000000E+00 0. -1.
          6    2    1    2  502    0 -0.18705285131E+03  0.11030993603E+03  0.24409616108E+03  0.36912693940E+03  0.17179845857E+03 0.  0.
         24    2    3    3    0    0 -0.16450334074E+03  0.14519280421E+03  0.22158530293E+03  0.32164932726E+03  0.78841256593E+02 0.  0.
         -6    2    1    2    0  501  0.18705285131E+03 -0.11030993603E+03 -0.90092596503E+03  0.94317096519E+03  0.17534772298E+03 0.  0.
        -24    2    5    5    0    0  0.18400405065E+03 -0.12332436096E+03 -0.63809034468E+03  0.67995370937E+03  0.78175253420E+02 0.  0.
          5    1    3    3  502    0 -0.22549510575E+02 -0.34882868187E+02  0.22510858150E+02  0.47477612143E+02  0.47000000000E+01 0. -1.
        -13    1    4    4    0    0 -0.12154779141E+03  0.10666216456E+03  0.10863734910E+03  0.19481467235E+03  0.00000000000E+00 0.  1.
         14    1    4    4    0    0 -0.42955549329E+02  0.38530639654E+02  0.11294795383E+03  0.12683465490E+03  0.00000000000E+00 0. -1.
         -5    1    5    5    0  501  0.30488006616E+01  0.13014424930E+02 -0.26283562034E+03  0.26321725582E+03  0.47000000000E+01 0.  1.
         11    1    6    6    0    0  0.84574673935E+02 -0.85720688903E+02 -0.42631367702E+03  0.44299465368E+03  0.00000000000E+00 0. -1.
        -12    1    6    6    0    0  0.99429376714E+02 -0.37603672053E+02 -0.21177666767E+03  0.23695905569E+03  0.00000000000E+00 0.  1.
</event>
<event>
12    1  0.1081556E+000  0.5907576E+03  0.7818608E-02  0.9924769E-01
          2   -1    0    0  502    0  0.00000000000E+00  0.00000000000E+00  0.13410052209E+04  0.13410052209E+04  0.00000000000E+00 0. -1.
         -2   -1    0    0    0  501 -0.00000000000E+00 -0.00000000000E+00 -0.26481743226E+03  0.26481743226E+03  0.00000000000E+00 0.  1.
          6    2    1    2  502    0 -0.36654327181E+03  0.42995163399E+03  0.64349537090E+03  0.87349808145E+03  0.17233754160E+03 0.  0.
         24    2    3    3    0    0 -0.20673646278E+03  0.33750392984E+03  0.40506782007E+03  0.57191130917E+03  0.79710344396E+02 0.  0.
         -6    2    1    2    0  501  0.36654327181E+03 -0.42995163399E+03  0.43269241779E+03  0.73232457175E+03  0.17281253516E+03 0.  0.
        -24    2    5    5    0    0  0.23140523055E+03 -0.20379490316E+03  0.30103945972E+03  0.43776770379E+03  0.77039359400E+02 0.  0.
          5    1    3    3  502    0 -0.15980680903E+03  0.92447704142E+02  0.23842755084E+03  0.30158677228E+03  0.47000000000E+01 0. -1.
        -13    1    4    4    0    0 -0.88465654831E+02  0.19887671219E+03  0.25937248723E+03  0.33860331639E+03  0.00000000000E+00 0.  1.
         14    1    4    4    0    0 -0.11827080795E+03  0.13862721765E+03  0.14569533283E+03  0.23330799278E+03  0.00000000000E+00 0. -1.
         -5    1    5    5    0  501  0.13513804126E+03 -0.22615673083E+03  0.13165295807E+03  0.29455686796E+03  0.47000000000E+01 0.  1.
         11    1    6    6    0    0  0.20361110043E+03 -0.18664463885E+03  0.22946177274E+03  0.35909108396E+03  0.00000000000E+00 0. -1.
        -12    1    6    6    0    0  0.27794130117E+02 -0.17150264309E+02  0.71577686983E+02  0.78676619835E+02  0.00000000000E+00 0.  1.
</event>
<event>
12    1  0.1081556E+000  0.4464395E+03  0.7818608E-02  0.1028789E+00
         -2   -1    0    0    0  501 -0.00000000000E+00  0.00000000000E+00  0.11469218384E+03  0.11469218384E+03  0.00000000000E+00 0.  1.
          2   -1    0    0  502    0  0.00000000000E+00 -0.00000000000E+00 -0.26833628858E+04  0.26833628858E+04  0.00000000000E+00 0. -1.
          6    2    1    2  502    0 -0.38281972767E+03  0.14078490956E+03 -0.44682918621E+03  0.62896718208E+03  0.17196528670E+03 0.  0.
         24    2    3    3    0    0 -0.13699995801E+03  0.16814768073E+02 -0.10901425281E+03  0.19314958908E+03  0.79818115285E+02 0.  0.
         -6    2    1    2    0  501  0.38281972767E+03 -0.14078490956E+03 -0.21218415157E+04  0.21690878875E+04  0.19068170165E+03 0.  0.
        -24    2    5    5    0    0  0.28816138221E+03 -0.87458634382E+02 -0.18537773788E+04  0.18798053863E+04  0.80571244651E+02 0.  0.
          5    1    3    3  502    0 -0.24581976966E+03  0.12397014149E+03 -0.33781493340E+03  0.43581759300E+03  0.47000000000E+01 0. -1.
        -11    1    4    4    0    0 -0.14731694328E+03  0.12243232614E+02 -0.10431976222E+03  0.18092758583E+03  0.00000000000E+00 0.  1.
         12    1    4    4    0    0  0.10316985277E+02  0.45715354596E+01 -0.46944905880E+01  0.12222003254E+02  0.00000000000E+00 0. -1.
         -5    1    5    5    0  501  0.94658345456E+02 -0.53326275182E+02 -0.26806413696E+03  0.28928250122E+03  0.47000000000E+01 0.  1.
         13    1    6    6    0    0  0.22650168421E+03 -0.96166329535E+02 -0.13557767777E+04  0.13779265753E+04  0.00000000000E+00 0. -1.
        -14    1    6    6    0    0  0.61659698001E+02  0.87076951535E+01 -0.49800060103E+03  0.50187881101E+03  0.00000000000E+00 0.  1.
</event>
<event>
12    1  0.1081556E+000  0.5606065E+03  0.7818608E-02  0.9990683E-01
          2   -1    0    0  502    0  0.00000000000E+00  0.00000000000E+00  0.22322011399E+04  0.22322011399E+04  0.00000000000E+00 0. -1.
         -2   -1    0    0    0  501 -0.00000000000E+00 -0.00000000000E+00 -0.38874444799E+03  0.38874444799E+03  0.00000000000E+00 0.  1.
          6    2    1    2  502    0 -0.44011649514E+03  0.30164711378E+03 -0.12474720527E+03  0.57451423102E+03  0.17265927684E+03 0.  0.
         24    2    3    3    0    0 -0.26737711418E+03  0.25747653769E+03 -0.12052019866E+03  0.39610489519E+03  0.67744232692E+02 0.  0.
         -6    2    1    2    0  501  0.44011649514E+03 -0.30164711378E+03  0.19682038972E+04  0.20464313569E+04  0.17135112173E+03 0.  0.
        -24    2    5    5    0    0  0.18462982447E+03 -0.17708948309E+03  0.11291489853E+04  0.11605288355E+04  0.80005561379E+02 0.  0.
          5    1    3    3  502    0 -0.17273938096E+03  0.44170576089E+02 -0.42270066099E+01  0.17840933583E+03  0.47000000000E+01 0. -1.
        -11    1    4    4    0    0 -0.15528142025E+03  0.10870241796E+03 -0.78418059230E+02  0.20512905001E+03  0.00000000000E+00 0.  1.
         12    1    4    4    0    0 -0.11209569393E+03  0.14877411972E+03 -0.42102139435E+02  0.19097584518E+03  0.00000000000E+00 0. -1.
         -5    1    5    5    0  501  0.25548667067E+03 -0.12455763069E+03  0.83905491193E+03  0.88590252144E+03  0.47000000000E+01 0.  1.
         13    1    6    6    0    0  0.12344725089E+03 -0.66132080274E+02  0.64943052663E+03  0.66435885236E+03  0.00000000000E+00 0. -1.
        -14    1    6    6    0    0  0.61182573579E+02 -0.11095740281E+03  0.47971845867E+03  0.49616998311E+03  0.00000000000E+00 0.  1.
</event>
<event>
12    1  0.1081556E+000  0.6531153E+03  0.7818608E-02  0.9800951E-01
         -2   -1    0    0    0  501 -0.00000000000E+00  0.00000000000E+00  0.11382468741E+04  0.11382468741E+04  0.00000000000E+00 0.  1.
          2   -1    0    0  502    0  0.00000000000E+00 -0.00000000000E+00 -0.19517677847E+04  0.19517677847E+04  0.00000000000E+00 0. -1.
          6    2    1    2  502    0  0.12729550254E+03  0.61756914553E+03  0.98206727190E+03  0.11792086070E+04  0.16876320030E+03 0.  0.
         24    2    3    3    0    0  0.23752888509E+02  0.17701492194E+03  0.36282297346E+03  0.41220489905E+03  0.79836623339E+02 0.  0.
         -6    2    1    2    0  501 -0.12729550254E+03 -0.61756914553E+03 -0.17955881824E+04  0.19108060518E+04  0.17160143467E+03 0.  0.
        -24    2    5    5    0    0 -0.28666422298E+02 -0.23010134601E+03 -0.83350643736E+03  0.86894120200E+03  0.80978010637E+02 0.  0.
          5    1    3    3  502    0  0.10354261403E+03  0.44055422358E+03  0.61924429844E+03  0.76700370793E+03  0.47000000000E+01 0. -1.
        -11    1    4    4    0    0 -0.95299131102E+01  0.14909572510E+03  0.30742623092E+03  0.34180585416E+03  0.00000000000E+00 0.  1.
         12    1    4    4    0    0  0.33282801619E+02  0.27919196848E+02  0.55396742549E+02  0.70399044889E+02  0.00000000000E+00 0. -1.
         -5    1    5    5    0  501 -0.98629080239E+02 -0.38746779952E+03 -0.96208174505E+03  0.10418648498E+04  0.47000000000E+01 0.  1.
         11    1    6    6    0    0  0.23863258490E+02 -0.13272964114E+03 -0.44442401010E+03  0.46443440171E+03  0.00000000000E+00 0. -1.
        -12    1    6    6    0    0 -0.52529680788E+02 -0.97371704866E+02 -0.38908242726E+03  0.40450680028E+03  0.00000000000E+00 0.  1.
</event>
<event>
12    1  0.1081556E+000  0.3616381E+03  0.7818608E-02  0.1057937E+00
          3   -1    0    0  502    0  0.00000000000E+00  0.00000000000E+00  0.76042615557E+03  0.76042615557E+03  0.00000000000E+00 0. -1.
         -3   -1    0    0    0  501 -0.00000000000E+00 -0.00000000000E+00 -0.37965076394E+03  0.37965076394E+03  0.00000000000E+00 0.  1.
          6    2    1    2  502    0 -0.12216342124E+03 -0.29330839985E+03 -0.23129359347E+03  0.42896704990E+03  0.17193686227E+03 0.  0.
         24    2    3    3    0    0 -0.63217808339E+02 -0.26192643043E+03 -0.22574708845E+03  0.36179363996E+03  0.85620930410E+02 0.  0.
         -6    2    1    2    0  501  0.12216342124E+03  0.29330839985E+03  0.61206898509E+03  0.71110986961E+03  0.17347935102E+03 0.  0.
        -24    2    5    5    0    0  0.10766434433E+03  0.29977640279E+03  0.50263304400E+03  0.60042846423E+03  0.80105312114E+02 0.  0.
          5    1    3    3  502    0 -0.58945612906E+02 -0.31381969423E+02 -0.55465050248E+01  0.67173409945E+02  0.47000000000E+01 0. -1.
        -13    1    4    4    0    0 -0.16819777461E+02 -0.19550295999E+03 -0.12562176000E+03  0.23299171416E+03  0.00000000000E+00 0.  1.
         14    1    4    4    0    0 -0.46398030878E+02 -0.66423470435E+02 -0.10012532845E+03  0.12880192580E+03  0.00000000000E+00 0. -1.
         -5    1    5    5    0  501  0.14499076916E+02 -0.64680029385E+01  0.10943594110E+03  0.11068140538E+03  0.47000000000E+01 0.  1.
         11    1    6    6    0    0  0.64397821183E+02  0.15499710589E+03  0.33531864582E+03  0.37497970138E+03  0.00000000000E+00 0. -1.
        -12    1    6    6    0    0  0.43266523146E+02  0.14477929689E+03  0.16731439817E+03  0.22544876285E+03  0.00000000000E+00 0.  1.
</event>
<event>
12    1  0.1081556E+000  0.4855533E+03  0.7818608E-02  0.1017620E+00
          2   -1    0    0  502    0  0.00000000000E+00  0.00000000000E+00  0.18032654217E+04  0.18032654217E+04  0.00000000000E+00 0. -1.
         -2   -1    0    0    0  501 -0.00000000000E+00 -0.00000000000E+00 -0.15522227982E+04  0.15522227982E+04  0.00000000000E+00 0.  1.
          6    2    1    2  502    0 -0.42612491950E+03  0.15549995604E+03 -0.14800202438E+04  0.15575096916E+04  0.17208670498E+03 0.  0.
         24    2    3    3    0    0 -0.90235930041E+02  0.21632688180E+02 -0.33260477368E+03  0.35446097700E+03  0.80038443704E+02 0.  0.
         -6    2    1    2    0  501  0.42612491950E+03 -0.15549995604E+03  0.17310628673E+04  0.17979785283E+04  0.17431424010E+03 0.  0.
        -24    2    5    5    0    0  0.10495112729E+03 -0.84144865427E+02  0.56033356439E+03  0.58188916297E+03  0.80784881637E+02 0.  0.
          5    1    3    3  502    0 -0.33588898946E+03  0.13386726786E+03 -0.11474154701E+04  0.12030487146E+04  0.47000000000E+01 0. -1.
        -11    1    4    4    0    0 -0.81105784755E+02  0.37357058807E+02 -0.32027916856E+03  0.33249427660E+03  0.00000000000E+00 0.  1.
         12    1    4    4    0    0 -0.91301452859E+01 -0.15724370627E+02 -0.12325605128E+02  0.21966700397E+02  0.00000000000E+00 0. -1.
         -5    1    5    5    0  501  0.32117379220E+03 -0.71355090617E+02  0.11707293029E+04  0.12160893653E+04  0.47000000000E+01 0.  1.
         11    1    6    6    0    0  0.61448537462E+02 -0.41785012226E+02  0.15340299023E+03  0.17045347581E+03  0.00000000000E+00 0. -1.
        -12    1    6    6    0    0  0.43502589831E+02 -0.42359853201E+02  0.40693057416E+03  0.41143568716E+03  0.00000000000E+00 0.  1.
</event>
<event>
12    1  0.1081556E+000  0.7674993E+03  0.7818608E-02  0.9608290E-01
          1   -1    0    0  502    0  0.00000000000E+00  0.00000000000E+00  0.16648394979E+04  0.16648394979E+04  0.00000000000E+00 0. -1.
         -1   -1    0    0    0  501 -0.00000000000E+00 -0.00000000000E+00 -0.88825310575E+03  0.88825310575E+03  0.00000000000E+00 0.  1.
          6    2    1    2  502    0 -0.43236980946E+03  0.61148085712E+03 -0.60197660298E+03  0.97506500284E+03  0.16590189410E+03 0.  0.
         24    2    3    3    0    0 -0.27311314127E+03  0.31217576779E+03 -0.38470299517E+03  0.57235402271E+03  0.86880578341E+02 0.  0.
         -6    2    1    2    0  501  0.43236980946E+03 -0.61148085712E+03  0.13785629952E+04  0.15780276008E+04  0.16994907067E+03 0.  0.
        -24    2    5    5    0    0  0.32206548375E+03 -0.53240162263E+03  0.10598885669E+04  0.12316231395E+04  0.79712733846E+02 0.  0.
          5    1    3    3  502    0 -0.15925666819E+03  0.29930508934E+03 -0.21727360781E+03  0.40271098013E+03  0.47000000000E+01 0. -1.
        -13    1    4    4    0    0 -0.20713363764E+03  0.17526186444E+03 -0.23354513525E+03  0.35800055191E+03  0.00000000000E+00 0.  1.
         14    1    4    4    0    0 -0.65979503633E+02  0.13691390335E+03 -0.15115785992E+03  0.21435347080E+03  0.00000000000E+00 0. -1.
         -5    1    5    5    0  501  0.11030432571E+03 -0.79079234496E+02  0.31867442828E+03  0.34640446134E+03  0.47000000000E+01 0.  1.
         11    1    6    6    0    0  0.69361507408E+02 -0.10527536046E+03  0.15723561527E+03  0.20153649530E+03  0.00000000000E+00 0. -1.
        -12    1    6    6    0    0  0.25270397635E+03 -0.42712626217E+03  0.90265295160E+03  0.10300866442E+04  0.00000000000E+00 0.  1.
</event>
<event>
12    1  0.1081556E+000  0.2715056E+03  0.7818608E-02  0.1100421E+00
         -1   -1    0    0    0  501 -0.00000000000E+00  0.00000000000E+00  0.31822416503E+02  0.31822416503E+02  0.00000000000E+00 0.  1.
          1   -1    0    0  502    0  0.00000000000E+00 -0.00000000000E+00 -0.25276606697E+04  0.25276606697E+04  0.00000000000E+00 0. -1.
          6    2    1    2  502    0  0.74041079470E+02 -0.19572556384E+03 -0.16198830325E+04  0.16425591616E+04  0.17374977055E+03 0.  0.
         24    2    3    3    0    0  0.57700883369E+02 -0.12661310165E+03 -0.14440761008E+04  0.14528918169E+04  0.78603926180E+02 0.  0.
         -6    2    1    2    0  501 -0.74041079470E+02  0.19572556384E+03 -0.87595522075E+03  0.91692392460E+03  0.17222472806E+03 0.  0.
        -24    2    5    5    0    0 -0.72625886201E+02  0.16848421915E+03 -0.86702207021E+03  0.88783810656E+03  0.53551673967E+02 0.  0.
          5    1    3    3  502    0  0.16340196101E+02 -0.69112462193E+02 -0.17580693168E+03  0.18966734476E+03  0.47000000000E+01 0. -1.
        -11    1    4    4    0    0  0.49828683959E+02 -0.76247507944E+02 -0.56106985312E+03  0.56841530618E+03  0.00000000000E+00 0.  1.
         12    1    4    4    0    0  0.78721994094E+01 -0.50365593706E+02 -0.88300624768E+03  0.88447651071E+03  0.00000000000E+00 0. -1.
         -5    1    5    5    0  501 -0.14151932686E+01  0.27241344693E+02 -0.89331505477E+01  0.29085818046E+02  0.47000000000E+01 0.  1.
         13    1    6    6    0    0 -0.29309286980E+02  0.75821113030E+02 -0.51055021328E+03  0.51698104005E+03  0.00000000000E+00 0. -1.
        -14    1    6    6    0    0 -0.43316599221E+02  0.92663106121E+02 -0.35647185692E+03  0.37085706651E+03  0.00000000000E+00 0.  1.
</event>
<event>
12    1  0.1081556E+000  0.2622744E+03  0.7818608E-02  0.1105784E+00
         -2   -1    0    0    0  501 -0.00000000000E+00  0.00000000000E+00  0.64680622723E+02  0.64680622723E+02  0.00000000000E+00 0.  1.
          2   -1    0    0  502    0  0.00000000000E+00 -0.00000000000E+00 -0.27664595408E+04  0.27664595408E+04  0.00000000000E+00 0. -1.
          6    2    1    2  502    0  0.30262705515E+02 -0.19606859905E+03 -0.24104336816E+03  0.35650908050E+03  0.17215717314E+03 0.  0.
         24    2    3    3    0    0 -0.41531721432E+02 -0.15350776013E+03 -0.17557937377E+03  0.25033239138E+03  0.80923873958E+02 0.  0.
         -6    2    1    2    0  501 -0.30262705515E+02  0.19606859905E+03 -0.24607355499E+04  0.24746310831E+04  0.17094099440E+03 0.  0.
        -24    2    5    5    0    0 -0.19842943695E+02  0.31778824755E+02 -0.11783516852E+04  0.11817157077E+04  0.80843574835E+02 0.  0.
          5    1    3    3  502    0  0.71794426946E+02 -0.42560838926E+02 -0.65463994397E+02  0.10617668912E+03  0.47000000000E+01 0. -1.
        -13    1    4    4    0    0  0.24485141660E+02 -0.45281514534E+02 -0.45644113235E+02  0.68799148205E+02  0.00000000000E+00 0.  1.
         14    1    4    4    0    0 -0.66016863092E+02 -0.10822624559E+03 -0.12993526053E+03  0.18153324317E+03  0.00000000000E+00 0. -1.
         -5    1    5    5    0  501 -0.10419761820E+02  0.16428977430E+03 -0.12823838647E+04  0.12929153754E+04  0.47000000000E+01 0.  1.
         13    1    6    6    0    0 -0.51080776200E+02  0.17036262355E+02 -0.64292052163E+03  0.64517150981E+03  0.00000000000E+00 0. -1.
        -14    1    6    6    0    0  0.31237832505E+02  0.14742562401E+02 -0.53543116360E+03  0.53654419788E+03  0.00000000000E+00 0.  1.
</event>
<event>
12    1  0.1081556E+000  0.1741440E+03  0.7818608E-02  0.1173594E+00
          1   -1    0    0  502    0  0.00000000000E+00  0.00000000000E+00  0.59589012946E+02  0.59589012946E+02  0.00000000000E+00 0. -1.
         -1   -1    0    0    0  501 -0.00000000000E+00 -0.00000000000E+00 -0.64572956049E+03  0.64572956049E+03  0.00000000000E+00 0.  1.
          6    2    1    2  502    0  0.29658507840E+02 -0.70898989231E+01 -0.45679418262E+03  0.48924455466E+03  0.17253815587E+03 0.  0.
         24    2    3    3    0    0  0.36908808524E+02 -0.68324797620E+02 -0.25955417189E+03  0.28253705235E+03  0.80176553222E+02 0.  0.
         -6    2    1    2    0  501 -0.29658507840E+02  0.70898989231E+01 -0.12934636492E+03  0.21607401877E+03  0.17037489755E+03 0.  0.
        -24    2    5    5    0    0 -0.71559607195E+02 -0.31007255229E+02 -0.10868578518E+03  0.15560878217E+03  0.79493810645E+02 0.  0.
          5    1    3    3  502    0 -0.72503006839E+01  0.61234898697E+02 -0.19724001073E+03  0.20670750231E+03  0.47000000000E+01 0. -1.
        -11    1    4    4    0    0  0.21541647140E+02  0.23505108285E+01 -0.14806591078E+03  0.14964318026E+03  0.00000000000E+00 0.  1.
         12    1    4    4    0    0  0.15367161384E+02 -0.70675308449E+02 -0.11148826111E+03  0.13289387209E+03  0.00000000000E+00 0. -1.
         -5    1    5    5    0  501  0.41901099355E+02  0.38097154152E+02 -0.20660579735E+02  0.60465236596E+02  0.47000000000E+01 0.  1.
         13    1    6    6    0    0 -0.60547432543E+02 -0.56923680710E+02 -0.83982403342E+02  0.11814965546E+03  0.00000000000E+00 0. -1.
        -14    1    6    6    0    0 -0.11012174652E+02  0.25916425482E+02 -0.24703381839E+02  0.37459126720E+02  0.00000000000E+00 0.  1.
</event>
<event>
12    1  0.1081556E+000  0.4210055E+03  0.7818608E-02  0.1036740E+00
         -1   -1    0    0    0  501 -0.00000000000E+00  0.00000000000E+00  0.11235607273E+03  0.11235607273E+03  0.00000000000E+00 0.  1.
          1   -1    0    0  502    0  0.00000000000E+00 -0.00000000000E+00 -0.16628838411E+04  0.16628838411E+04  0.00000000000E+00 0. -1.
          6    2    1    2  502    0  0.32891551451E+03 -0.19914528401E+03 -0.97619966543E+03  0.10630786470E+04  0.17124883393E+03 0.  0.
         24    2    3    3    0    0  0.19621840318E+03 -0.47244999661E+02 -0.51518518871E+03  0.55985041104E+03  0.85340215204E+02 0.  0.
         -6    2    1    2    0  501 -0.32891551451E+03  0.19914528401E+03 -0.57432810298E+03  0.71216126687E+03  0.17168762425E+03 0.  0.
        -24    2    5    5    0    0 -0.12222536656E+03  0.11495922892E+03 -0.17596558050E+03  0.25551819131E+03  0.78555687424E+02 0.  0.
          5    1    3    3  502    0  0.13269711133E+03 -0.15190028435E+03 -0.46101447672E+03  0.50322823598E+03  0.47000000000E+01 0. -1.
        -11    1    4    4    0    0  0.28816241966E+02  0.10097714505E+02 -0.27638190956E+02  0.41185060866E+02  0.00000000000E+00 0.  1.
         12    1    4    4    0    0  0.16740216121E+03 -0.57342714166E+02 -0.48754699775E+03  0.51866535017E+03  0.00000000000E+00 0. -1.
         -5    1    5    5    0  501 -0.20669014796E+03  0.84186055090E+02 -0.39836252248E+03  0.45664307556E+03  0.47000000000E+01 0.  1.
         11    1    6    6    0    0 -0.10641039008E+03  0.48789859490E+02 -0.11661770006E+03  0.16523713104E+03  0.00000000000E+00 0. -1.
        -12    1    6    6    0    0 -0.15814976479E+02  0.66169369430E+02 -0.59347880435E+02  0.90281060273E+02  0.00000000000E+00 0.  1.
</event>
<event>
12    1  0.1081556E+000  0.3570657E+03  0.7818608E-02  0.1059752E+00
          2   -1    0    0  502    0  0.00000000000E+00  0.00000000000E+00  0.56320868374E+03  0.56320868374E+03  0.00000000000E+00 0. -1.
         -2   -1    0    0    0  501 -0.00000000000E+00 -0.00000000000E+00 -0.50733128446E+03  0.50733128446E+03  0.00000000000E+00 0.  1.
          6    2    1    2  502    0 -0.20468359659E+03 -0.23639947184E+03 -0.37040581423E+03  0.51426741920E+03  0.17172776780E+03 0.  0.
         24    2    3    3    0    0 -0.65382423263E+02 -0.74673596567E+02 -0.70127024397E+02  0.14582540578E+03  0.80599268765E+02 0.  0.
         -6    2    1    2    0  501  0.20468359659E+03  0.23639947184E+03  0.42628321351E+03  0.55627254901E+03  0.17303665988E+03 0.  0.
        -24    2    5    5    0    0  0.10117521828E+03  0.96598138414E+02  0.11234844439E+03  0.19733588821E+03  0.82168453057E+02 0.  0.
          5    1    3    3  502    0 -0.13930117332E+03 -0.16172587527E+03 -0.30027878984E+03  0.36844201341E+03  0.47000000000E+01 0. -1.
        -11    1    4    4    0    0 -0.23198506486E+02 -0.57272629415E+02 -0.78009248300E+02  0.99517674830E+02  0.00000000000E+00 0.  1.
         12    1    4    4    0    0 -0.42183916778E+02 -0.17400967152E+02  0.78822239025E+01  0.46307730955E+02  0.00000000000E+00 0. -1.
         -5    1    5    5    0  501  0.10350837831E+03  0.13980133342E+03  0.31393476912E+03  0.35893666080E+03  0.47000000000E+01 0.  1.
         11    1    6    6    0    0  0.11378391214E+03  0.76007983809E+02  0.86090481564E+02  0.16166497233E+03  0.00000000000E+00 0. -1.
        -12    1    6    6    0    0 -0.12608693854E+02  0.20590154605E+02  0.26257962830E+02  0.35670915875E+02  0.00000000000E+00 0.  1.
</event>
<event>
12    1  0.1081556E+000  0.2734422E+03  0.7818608E-02  0.1099326E+00
         -2   -1    0    0    0  501 -0.00000000000E+00  0.00000000000E+00  0.33969431985E+02  0.33969431985E+02  0.00000000000E+00 0.  1.
          2   -1    0    0  502    0  0.00000000000E+00 -0.00000000000E+00 -0.23268651897E+04  0.23268651897E+04  0.00000000000E+00 0. -1.
          6    2    1    2  502    0  0.23055141252E+02 -0.21060396153E+03 -0.14213907472E+04  0.14474789881E+04  0.17308436256E+03 0.  0.
         24    2    3    3    0    0 -0.12362460033E+02 -0.20987271513E+03 -0.13416954165E+04  0.13601384079E+04  0.75036732140E+02 0.  0.
         -6    2    1    2    0  501 -0.23055141252E+02  0.21060396153E+03 -0.87150501044E+03  0.91335563353E+03  0.17266140835E+03 0.  0.
        -24    2    5    5    0    0 -0.10718505403E+02  0.73241099536E+02 -0.59417721047E+03  0.60359193799E+03  0.76141481118E+02 0.  0.
          5    1    3    3  502    0  0.35417601285E+02 -0.73124639855E+00 -0.79695330788E+02  0.87340580210E+02  0.47000000000E+01 0. -1.
        -13    1    4    4    0    0  0.15021938021E+02 -0.17962446221E+03 -0.10119492431E+04  0.10278773646E+04  0.00000000000E+00 0.  1.
         14    1    4    4    0    0 -0.27384398054E+02 -0.30248252920E+02 -0.32974617335E+03  0.33226104330E+03  0.00000000000E+00 0. -1.
         -5    1    5    5    0  501 -0.12336635850E+02  0.13736286199E+03 -0.27732779997E+03  0.30976369554E+03  0.47000000000E+01 0.  1.
         11    1    6    6    0    0 -0.31143351806E+02  0.79043895119E+02 -0.47618532737E+03  0.48370477744E+03  0.00000000000E+00 0. -1.
        -12    1    6    6    0    0  0.20424846404E+02 -0.58027955832E+01 -0.11799188310E+03  0.11988716055E+03  0.00000000000E+00 0.  1.
</event>
<event>
12    1  0.1081556E+000  0.2325407E+03  0.7818608E-02  0.1124864E+00
         -2   -1    0    0    0  501 -0.00000000000E+00  0.00000000000E+00  0.88992647804E+02  0.88992647804E+02  0.00000000000E+00 0.  1.
          2   -1    0    0  502    0  0.00000000000E+00 -0.00000000000E+00 -0.20051380369E+04  0.20051380369E+04  0.00000000000E+00 0. -1.
          6    2    1    2  502    0 -0.41839800513E+02 -0.14666116341E+03 -0.88025121753E+02  0.25168103326E+03  0.17981894974E+03 0.  0.
         24    2    3    3    0    0  0.40145709562E+02 -0.95569557919E+02 -0.74432969375E+02  0.15401418822E+03  0.86225778320E+02 0.  0.
         -6    2    1    2    0  501  0.41839800513E+02  0.14666116341E+03 -0.18281202673E+04  0.18424496514E+04  0.17128029797E+03 0.  0.
        -24    2    5    5    0    0  0.68709595313E+02  0.16237271126E+03 -0.16745504869E+04  0.16856867538E+04  0.79590156090E+02 0.  0.
          5    1    3    3  502    0 -0.81985510075E+02 -0.51091605487E+02 -0.13592152378E+02  0.97666845039E+02  0.47000000000E+01 0. -1.
        -11    1    4    4    0    0  0.17225333163E+02 -0.10379816582E+03 -0.75713951797E+02  0.12962782814E+03  0.00000000000E+00 0.  1.
         12    1    4    4    0    0  0.22920376399E+02  0.82286079033E+01  0.12809824220E+01  0.24386360087E+02  0.00000000000E+00 0. -1.
         -5    1    5    5    0  501 -0.26869794800E+02 -0.15711547856E+02 -0.15356978048E+03  0.15676289767E+03  0.47000000000E+01 0.  1.
         13    1    6    6    0    0  0.45711760286E+02  0.12779818279E+03 -0.91605430517E+03  0.92605476651E+03  0.00000000000E+00 0. -1.
        -14    1    6    6    0    0  0.22997835027E+02  0.34574528477E+02 -0.75849618169E+03  0.75963198726E+03  0.00000000000E+00 0.  1.
</event>
<event>
12    1  0.1081556E+000  0.2636362E+03  0.7818608E-02  0.1104978E+00
         -2   -1    0    0    0  501 -0.00000000000E+00  0.00000000000E+00  0.17932521649E+03  0.17932521649E+03  0.00000000000E+00 0.  1.
          2   -1    0    0  502    0  0.00000000000E+00 -0.00000000000E+00 -0.40312496872E+03  0.40312496872E+03  0.00000000000E+00 0. -1.
          6    2    1    2  502    0  0.28780609080E+02  0.19727493062E+03 -0.16899552715E+03  0.31298617928E+03  0.17220667383E+03 0.  0.
         24    2    3    3    0    0  0.81346713842E+02  0.13184258499E+03 -0.82980375548E+02  0.19271447217E+03  0.79078252315E+02 0.  0.
         -6    2    1    2    0  501 -0.28780609080E+02 -0.19727493062E+03 -0.54804225082E+02  0.26946400593E+03  0.17280516687E+03 0.  0.
        -24    2    5    5    0    0  0.44047243663E+02 -0.10547230451E+03 -0.57361774301E+02  0.15215991669E+03  0.82448167977E+02 0.  0.
          5    1    3    3  502    0 -0.52566104761E+02  0.65432345631E+02 -0.86015151606E+02  0.12027170711E+03  0.47000000000E+01 0. -1.
        -13    1    4    4    0    0  0.49660566627E+02  0.67998662302E+02 -0.87324474916E+02  0.12130768266E+03  0.00000000000E+00 0.  1.
         14    1    4    4    0    0  0.31686147215E+02  0.63843922685E+02  0.43440993688E+01  0.71406789512E+02  0.00000000000E+00 0. -1.
         -5    1    5    5    0  501 -0.72827852743E+02 -0.91802626110E+02  0.25575492198E+01  0.11730408925E+03  0.47000000000E+01 0.  1.
         13    1    6    6    0    0  0.34943336179E+02 -0.10561675246E+03 -0.19156267542E+02  0.11288444415E+03  0.00000000000E+00 0. -1.
        -14    1    6    6    0    0  0.91039074834E+01  0.14444795389E+00 -0.38205506759E+02  0.39275472542E+02  0.00000000000E+00 0.  1.
</event>
<event>
12    1  0.1081556E+000  0.2898520E+03  0.7818608E-02  0.1090426E+00
         -1   -1    0    0    0  501 -0.00000000000E+00  0.00000000000E+00  0.17046411663E+03  0.17046411663E+03  0.00000000000E+00 0.  1.
          1   -1    0    0  502    0  0.00000000000E+00 -0.00000000000E+00 -0.72063008046E+03  0.72063008046E+03  0.00000000000E+00 0. -1.
          6    2    1    2  502    0  0.19364836599E+03  0.12801173371E+03 -0.23091002814E+02  0.28843690365E+03  0.16963478228E+03 0.  0.
         24    2    3    3    0    0  0.60300718349E+02  0.27614844073E+02  0.37540361810E+02  0.11078729640E+03  0.80410136379E+02 0.  0.
         -6    2    1    2    0  501 -0.19364836599E+03 -0.12801173371E+03 -0.52707496102E+03  0.60265729345E+03  0.17748550702E+03 0.  0.
        -24    2    5    5    0    0 -0.59423569278E+02  0.75269564791E+01 -0.16932004661E+03  0.19719742938E+03  0.81423168145E+02 0.  0.
          5    1    3    3  502    0  0.13334764764E+03  0.10039688963E+03 -0.60631364623E+02  0.17764960725E+03  0.47000000000E+01 0. -1.
        -13    1    4    4    0    0  0.60929466771E+01  0.44242292805E+02  0.38328619990E+01  0.44824048266E+02  0.00000000000E+00 0.  1.
         14    1    4    4    0    0  0.54207771672E+02 -0.16627448733E+02  0.33707499811E+02  0.65963248134E+02  0.00000000000E+00 0. -1.
         -5    1    5    5    0  501 -0.13422479671E+03 -0.13553869019E+03 -0.35775491441E+03  0.40545986407E+03  0.47000000000E+01 0.  1.
         13    1    6    6    0    0 -0.62758094037E+02  0.60425819188E+01 -0.17743270075E+03  0.18830149882E+03  0.00000000000E+00 0. -1.
        -14    1    6    6    0    0  0.33345247595E+01  0.14843745603E+01  0.81126541428E+01  0.88959305555E+01  0.00000000000E+00 0.  1.
</event>
<event>
12    1  0.1081556E+000  0.3531408E+03  0.7818608E-02  0.1061333E+00
         -2   -1    0    0    0  501 -0.00000000000E+00  0.00000000000E+00  0.71409751769E+02  0.71409751769E+02  0.00000000000E+00 0.  1.
          2   -1    0    0  502    0  0.00000000000E+00 -0.00000000000E+00 -0.18387707452E+04  0.18387707452E+04  0.00000000000E+00 0. -1.
          6    2    1    2  502    0 -0.26531463561E+03 -0.15707582480E+03 -0.67003756734E+03  0.75749063851E+03  0.17256029431E+03 0.  0.
         24    2    3    3    0    0 -0.17744000657E+03 -0.16023779078E+03 -0.39282646810E+03  0.46662979205E+03  0.79180952671E+02 0.  0.
         -6    2    1    2    0  501  0.26531463561E+03  0.15707582480E+03 -0.10973234261E+04  0.11526898584E+04  0.17178631419E+03 0.  0.
        -24    2    5    5    0    0  0.25822572140E+03  0.14187035743E+03 -0.81962523646E+03  0.87444566092E+03  0.77858616396E+02 0.  0.
          5    1    3    3  502    0 -0.87874629041E+02  0.31619659823E+01 -0.27721109924E+03  0.29086084646E+03  0.47000000000E+01 0. -1.
        -13    1    4    4    0    0 -0.22080062229E+02 -0.30281088069E+02 -0.20353148776E+02  0.42646501706E+02  0.00000000000E+00 0.  1.
         14    1    4    4    0    0 -0.15535994434E+03 -0.12995670271E+03 -0.37247331932E+03  0.42398329035E+03  0.00000000000E+00 0. -1.
         -5    1    5    5    0  501  0.70889142167E+01  0.15205467371E+02 -0.27769818961E+03  0.27824419752E+03  0.47000000000E+01 0.  1.
         13    1    6    6    0    0  0.57639338079E+02  0.35984348214E+02 -0.29785238847E+03  0.30550484763E+03  0.00000000000E+00 0. -1.
        -14    1    6    6    0    0  0.20058638332E+03  0.10588600921E+03 -0.52177284799E+03  0.56894081328E+03  0.00000000000E+00 0.  1.
</event>
<event>
12    1  0.1081556E+000  0.5790656E+03  0.7818608E-02  0.9949816E-01
         -1   -1    0    0    0  501 -0.00000000000E+00  0.00000000000E+00  0.11567429828E+03  0.11567429828E+03  0.00000000000E+00 0.  1.
          1   -1    0    0  502    0  0.00000000000E+00 -0.00000000000E+00 -0.34687055372E+04  0.34687055372E+04  0.00000000000E+00 0. -1.
          6    2    1    2  502    0  0.35487755643E+03 -0.42295138071E+03 -0.95054268358E+03  0.11131363682E+04  0.17525761168E+03 0.  0.
         24    2    3    3    0    0  0.91373996823E+02 -0.19164423054E+03 -0.34155451801E+03  0.41040896769E+03  0.81849334745E+02 0.  0.
         -6    2    1    2    0  501 -0.35487755643E+03  0.42295138071E+03 -0.24024885553E+04  0.24712434672E+04  0.17397432410E+03 0.  0.
        -24    2    5    5    0    0 -0.30412831590E+03  0.42330819527E+03 -0.21619569666E+04  0.22253712486E+04  0.80841869905E+02 0.  0.
          5    1    3    3  502    0  0.26350355961E+03 -0.23130715017E+03 -0.60898816558E+03  0.70272740053E+03  0.47000000000E+01 0. -1.
        -11    1    4    4    0    0  0.10184572104E+03 -0.13067628212E+03 -0.24738364484E+03  0.29773731600E+03  0.00000000000E+00 0.  1.
         12    1    4    4    0    0 -0.10471724222E+02 -0.60967948421E+02 -0.94170873169E+02  0.11267165170E+03  0.00000000000E+00 0. -1.
         -5    1    5    5    0  501 -0.50749240529E+02 -0.35681455966E+00 -0.24053158864E+03  0.24587221857E+03  0.47000000000E+01 0.  1.
         11    1    6    6    0    0 -0.14778250001E+01 -0.28444893894E+00 -0.56008775147E+02  0.56028990455E+02  0.00000000000E+00 0. -1.
        -12    1    6    6    0    0 -0.30265049090E+03  0.42359264421E+03 -0.21059481915E+04  0.21693422582E+04  0.00000000000E+00 0.  1.
</event>
<event>
12    1  0.1081556E+000  0.2851955E+03  0.7818608E-02  0.1092885E+00
          2   -1    0    0  502    0  0.00000000000E+00  0.00000000000E+00  0.93590014667E+03  0.93590014667E+03  0.00000000000E+00 0. -1.
         -2   -1    0    0    0  501 -0.00000000000E+00 -0.00000000000E+00 -0.19632192914E+03  0.19632192914E+03  0.00000000000E+00 0.  1.
          6    2    1    2  502    0  0.18410186653E+03  0.12872672467E+03 -0.51441672794E+02  0.29216645420E+03  0.17958542357E+03 0.  0.
         24    2    3    3    0    0  0.90354210936E+02  0.10738241908E+03  0.32305536567E+02  0.16457379224E+03  0.79661898288E+02 0.  0.
         -6    2    1    2    0  501 -0.18410186653E+03 -0.12872672467E+03  0.79101989032E+03  0.84005562161E+03  0.17180487075E+03 0.  0.
        -24    2    5    5    0    0 -0.86059075031E+02 -0.15369170057E+02  0.48459755469E+03  0.49891186610E+03  0.80223963621E+02 0.  0.
          5    1    3    3  502    0  0.93747655590E+02  0.21344305588E+02 -0.83747209361E+02  0.12759266196E+03  0.47000000000E+01 0. -1.
        -11    1    4    4    0    0 -0.27504334344E+01  0.53670978776E+01 -0.16909513059E+02  0.17952778493E+02  0.00000000000E+00 0.  1.
         12    1    4    4    0    0  0.93104644371E+02  0.10201532120E+03  0.49215049626E+02  0.14662101375E+03  0.00000000000E+00 0. -1.
         -5    1    5    5    0  501 -0.98042791496E+02 -0.11335755461E+03  0.30642233563E+03  0.34114375551E+03  0.47000000000E+01 0.  1.
         11    1    6    6    0    0 -0.10050182791E+03 -0.19285362206E+02  0.44409348861E+03  0.45573190500E+03  0.00000000000E+00 0. -1.
        -12    1    6    6    0    0  0.14442752876E+02  0.39161921490E+01  0.40504066083E+02  0.43179961103E+02  0.00000000000E+00 0.  1.
</event>
<event>
12    1  0.1081556E+000  0.2697611E+03  0.7818608E-02  0.1101416E+00
          2   -1    0    0  502    0  0.00000000000E+00  0.00000000000E+00  0.35884936748E+03  0.35884936748E+03  0.00000000000E+00 0. -1.
         -2   -1    0    0    0  501 -0.00000000000E+00 -0.00000000000E+00 -0.21023344929E+03  0.21023344929E+03  0.00000000000E+00 0.  1.
          6    2    1    2  502    0 -0.19568934383E+03  0.70825217361E+02  0.12788630023E+03  0.29866939950E+03  0.17186615056E+03 0.  0.
         24    2    3    3    0    0 -0.22036912549E+03  0.56867805447E+02  0.10963880915E+03  0.26462587000E+03  0.78801547191E+02 0.  0.
         -6    2    1    2    0  501  0.19568934383E+03 -0.70825217361E+02  0.20729617957E+02  0.27041341727E+03  0.17141519324E+03 0.  0.
        -24    2    5    5    0    0  0.72349467353E+02 -0.70134946772E+02  0.49126505069E+02  0.14375768388E+03  0.89997233226E+02 0.  0.
          5    1    3    3  502    0  0.24679781653E+02  0.13957411914E+02  0.18247491077E+02  0.34043529494E+02  0.47000000000E+01 0. -1.
        -13    1    4    4    0    0 -0.49357953809E+02 -0.67479102746E+00  0.59591285169E+02  0.77380774197E+02  0.00000000000E+00 0.  1.
         14    1    4    4    0    0 -0.17101117168E+03  0.57542596475E+02  0.50047523981E+02  0.18724509581E+03  0.00000000000E+00 0. -1.
         -5    1    5    5    0  501  0.12333987648E+03 -0.69027058965E+00 -0.28396887112E+02  0.12665573339E+03  0.47000000000E+01 0.  1.
         11    1    6    6    0    0  0.85050290113E+02 -0.32261160622E+02  0.17097601743E+02  0.92556265689E+02  0.00000000000E+00 0. -1.
        -12    1    6    6    0    0 -0.12700822760E+02 -0.37873786150E+02  0.32028903325E+02  0.51201418187E+02  0.00000000000E+00 0.  1.
</event>
<event>
12    1  0.1081556E+000  0.4708772E+03  0.7818608E-02  0.1021673E+00
          2   -1    0    0  502    0  0.00000000000E+00  0.00000000000E+00  0.28768537360E+03  0.28768537360E+03  0.00000000000E+00 0. -1.
         -2   -1    0    0    0  501 -0.00000000000E+00 -0.00000000000E+00 -0.10504621325E+04  0.10504621325E+04  0.00000000000E+00 0.  1.
          6    2    1    2  502    0  0.30575190643E+03 -0.31732453403E+03 -0.72695233815E+03  0.86640003128E+03  0.16736255278E+03 0.  0.
         24    2    3    3    0    0  0.19878306003E+03 -0.24331657227E+03 -0.61383356857E+03  0.69395450789E+03  0.77868798779E+02 0.  0.
         -6    2    1    2    0  501 -0.30575190643E+03  0.31732453403E+03 -0.35824420790E+02  0.47174747485E+03  0.16456975033E+03 0.  0.
        -24    2    5    5    0    0 -0.22650254442E+03  0.27828454058E+03 -0.74420527795E+02  0.37522632721E+03  0.80688868601E+02 0.  0.
          5    1    3    3  502    0  0.10696884640E+03 -0.74007961767E+02 -0.11311876957E+03  0.17244552338E+03  0.47000000000E+01 0. -1.
        -11    1    4    4    0    0  0.61849626678E+01  0.54828885493E+01 -0.92835887664E+01  0.12429837104E+02  0.00000000000E+00 0.  1.
         12    1    4    4    0    0  0.19259809736E+03 -0.24879946081E+03 -0.60454997981E+03  0.68152467079E+03  0.00000000000E+00 0. -1.
         -5    1    5    5    0  501 -0.79249362004E+02  0.39039993449E+02  0.38596107005E+02  0.96521147644E+02  0.47000000000E+01 0.  1.
         11    1    6    6    0    0 -0.15918033670E+03  0.13416166130E+03 -0.52090695533E+02  0.21459536695E+03  0.00000000000E+00 0. -1.
        -12    1    6    6    0    0 -0.67322207723E+02  0.14412287928E+03 -0.22329832262E+02  0.16063096026E+03  0.00000000000E+00 0.  1.
</event>
<event>
12    1  0.1081556E+000  0.3117765E+03  0.7818608E-02  0.1079497E+00
         -2   -1    0    0    0  501 -0.00000000000E+00  0.00000000000E+00  0.25277221048E+03  0.25277221048E+03  0.00000000000E+00 0.  1.
          2   -1    0    0  502    0  0.00000000000E+00 -0.00000000000E+00 -0.46222614825E+03  0.46222614825E+03  0.00000000000E+00 0. -1.
          6    2    1    2  502    0  0.26062422853E+03  0.10343547062E+02  0.41557877874E+02  0.31545616972E+03  0.17249220370E+03 0.  0.
         24    2    3    3    0    0  0.19036862176E+03  0.70986807899E+02  0.41622819770E+02  0.22252851192E+03  0.80666848479E+02 0.  0.
         -6    2    1    2    0  501 -0.26062422853E+03 -0.10343547062E+02 -0.25101181564E+03  0.39954218901E+03  0.16910071479E+03 0.  0.
        -24    2    5    5    0    0 -0.18687802003E+03 -0.70855195843E+02 -0.17828076589E+03  0.27949195575E+03  0.79924143390E+02 0.  0.
          5    1    3    3  502    0  0.70255606767E+02 -0.60643260837E+02 -0.64941896244E-01  0.92927657802E+02  0.47000000000E+01 0. -1.
        -11    1    4    4    0    0  0.73176521584E+02 -0.10137593967E+02 -0.58964729151E+00  0.73877749062E+02  0.00000000000E+00 0.  1.
         12    1    4    4    0    0  0.11719210018E+03  0.81124401865E+02  0.42212467062E+02  0.14865076286E+03  0.00000000000E+00 0. -1.
         -5    1    5    5    0  501 -0.73746208501E+02  0.60511648781E+02 -0.72731049758E+02  0.12005023326E+03  0.47000000000E+01 0.  1.
         13    1    6    6    0    0 -0.95592242219E+02 -0.42796063040E+02 -0.14392513231E+03  0.17799950420E+03  0.00000000000E+00 0. -1.
        -14    1    6    6    0    0 -0.91285777811E+02 -0.28059132803E+02 -0.34355633579E+02  0.10149245156E+03  0.00000000000E+00 0.  1.
</event>
<event>
12    1  0.1081556E+000  0.4469726E+03  0.7818608E-02  0.1028629E+00
          1   -1    0    0  502    0  0.00000000000E+00  0.00000000000E+00  0.34599612512E+03  0.34599612512E+03  0.00000000000E+00 0. -1.
         -1   -1    0    0    0  501 -0.00000000000E+00 -0.00000000000E+00 -0.81585775805E+03  0.81585775805E+03  0.00000000000E+00 0.  1.
          6    2    1    2  502    0 -0.90936888387E+02 -0.40209049685E+03 -0.54890855246E+03  0.70774553491E+03  0.17221166596E+03 0.  0.
         24    2    3    3    0    0 -0.43133143465E+02 -0.25029236296E+03 -0.22896474190E+03  0.35037457443E+03  0.76359376308E+02 0.  0.
         -6    2    1    2    0  501  0.90936888387E+02  0.40209049685E+03  0.79046919532E+02  0.45410834826E+03  0.17326191487E+03 0.  0.
        -24    2    5    5    0    0  0.13156858007E+03  0.31902850592E+03  0.55208524042E+02  0.35850192690E+03  0.79913525810E+02 0.  0.
          5    1    3    3  502    0 -0.47803744921E+02 -0.15179813389E+03 -0.31994381056E+03  0.35737096048E+03  0.47000000000E+01 0. -1.
        -13    1    4    4    0    0 -0.31745802371E+02 -0.12651994005E+03 -0.16576714903E+03  0.21093562737E+03  0.00000000000E+00 0.  1.
         14    1    4    4    0    0 -0.11387341094E+02 -0.12377242291E+03 -0.63197592868E+02  0.13943894705E+03  0.00000000000E+00 0. -1.
         -5    1    5    5    0  501 -0.40631691688E+02  0.83061990931E+02  0.23838395490E+02  0.95606421366E+02  0.47000000000E+01 0.  1.
         13    1    6    6    0    0  0.10292631424E+03  0.18941142806E+03  0.65657472531E+02  0.22534732956E+03  0.00000000000E+00 0. -1.
        -14    1    6    6    0    0  0.28642265832E+02  0.12961707787E+03 -0.10448948489E+02  0.13315459733E+03  0.00000000000E+00 0.  1.
</event>
<event>
12    1  0.1081556E+000  0.2565015E+03  0.7818608E-02  0.1109264E+00
          2   -1    0    0  502    0  0.00000000000E+00  0.00000000000E+00  0.34302534667E+03  0.34302534667E+03  0.00000000000E+00 0. -1.
         -2   -1    0    0    0  501 -0.00000000000E+00 -0.00000000000E+00 -0.57444725178E+03  0.57444725178E+03  0.00000000000E+00 0.  1.
          6    2    1    2  502    0  0.13658433664E+03 -0.13255221831E+03 -0.49001353162E+03  0.55279113280E+03  0.17099533248E+03 0.  0.
         24    2    3    3    0    0  0.15107318422E+03 -0.13812432427E+03 -0.36467130579E+03  0.42640387614E+03  0.83268651801E+02 0.  0.
         -6    2    1    2    0  501 -0.13658433664E+03  0.13255221831E+03  0.25859162651E+03  0.36468146565E+03  0.17290913942E+03 0.  0.
        -24    2    5    5    0    0 -0.50744466598E+02  0.12413331420E+03  0.22359368789E+03  0.27148110652E+03  0.75655623379E+02 0.  0.
          5    1    3    3  502    0 -0.14488847586E+02  0.55721059554E+01 -0.12534222584E+03  0.12638725666E+03  0.47000000000E+01 0. -1.
        -13    1    4    4    0    0  0.33630293512E+02 -0.80109983060E+02 -0.11151021218E+03  0.14136171139E+03  0.00000000000E+00 0.  1.
         14    1    4    4    0    0  0.11744289071E+03 -0.58014341209E+02 -0.25316109361E+03  0.28504216475E+03  0.00000000000E+00 0. -1.
         -5    1    5    5    0  501 -0.85839870038E+02  0.84189041149E+01  0.34997938614E+02  0.93200359130E+02  0.47000000000E+01 0.  1.
         13    1    6    6    0    0 -0.61248648379E+02  0.61695507851E+02  0.15785062442E+03  0.18020697059E+03  0.00000000000E+00 0. -1.
        -14    1    6    6    0    0  0.10504181781E+02  0.62437806348E+02  0.65743063468E+02  0.91274135934E+02  0.00000000000E+00 0.  1.
</event>
<event>
12    1  0.1081556E+000  0.3365775E+03  0.7818608E-02  0.1068263E+00
          2   -1    0    0  502    0  0.00000000000E+00  0.00000000000E+00  0.16828569073E+04  0.16828569073E+04  0.00000000000E+00 0. -1.
         -2   -1    0    0    0  501 -0.00000000000E+00 -0.00000000000E+00 -0.75173702208E+02  0.75173702208E+02  0.00000000000E+00 0.  1.
          6    2    1    2  502    0 -0.28875993708E+03 -0.17531130816E+02  0.51928457373E+03  0.61872586515E+03  0.17168455342E+03 0.  0.
         24    2    3    3    0    0 -0.17760046059E+03 -0.46156207727E+02  0.42195753112E+03  0.46815871247E+03  0.86325563340E+02 0.  0.
         -6    2    1    2    0  501  0.28875993708E+03  0.17531130816E+02  0.10883986313E+04  0.11393047443E+04  0.17237771883E+03 0.  0.
        -24    2    5    5    0    0  0.29634602467E+03  0.41509540049E+02  0.10296018149E+04  0.10751824514E+04  0.79958728030E+02 0.  0.
          5    1    3    3  502    0 -0.11115947649E+03  0.28625076912E+02  0.97327042614E+02  0.15056715268E+03  0.47000000000E+01 0. -1.
        -11    1    4    4    0    0 -0.11346218254E+03 -0.21522749539E+02  0.15989406096E+03  0.19723845047E+03  0.00000000000E+00 0.  1.
         12    1    4    4    0    0 -0.64138278054E+02 -0.24633458188E+02  0.26206347015E+03  0.27092026200E+03  0.00000000000E+00 0. -1.
         -5    1    5    5    0  501 -0.75860875901E+01 -0.23978409233E+02  0.58796816420E+02  0.64122292967E+02  0.47000000000E+01 0.  1.
         11    1    6    6    0    0  0.11085569116E+03  0.55013337063E+02  0.41017931762E+03  0.42844197288E+03  0.00000000000E+00 0. -1.
        -12    1    6    6    0    0  0.18549033351E+03 -0.13503797014E+02  0.61942249728E+03  0.64674047847E+03  0.00000000000E+00 0.  1.
</event>
<event>
12    1  0.1081556E+000  0.8336272E+03  0.7818608E-02  0.9512579E-01
          2   -1    0    0  502    0  0.00000000000E+00  0.00000000000E+00  0.35751794379E+04  0.35751794379E+04  0.00000000000E+00 0. -1.
         -2   -1    0    0    0  501 -0.00000000000E+00 -0.00000000000E+00 -0.31357254479E+03  0.31357254479E+03  0.00000000000E+00 0.  1.
          6    2    1    2  502    0 -0.67020480017E+03 -0.46699034090E+03  0.28309224304E+04  0.29514232563E+04  0.17182251883E+03 0.  0.
         24    2    3    3    0    0 -0.44668415707E+03 -0.36504761201E+03  0.18128902333E+04  0.19041575583E+04  0.80364877170E+02 0.  0.
         -6    2    1    2    0  501  0.67020480017E+03  0.46699034090E+03  0.43068446266E+03  0.93732872638E+03  0.16075317187E+03 0.  0.
        -24    2    5    5    0    0  0.60772924675E+03  0.37904201409E+03  0.40467478377E+03  0.82625804457E+03  0.77025903380E+02 0.  0.
          5    1    3    3  502    0 -0.22352064310E+03 -0.10194272889E+03  0.10180321971E+04  0.10472656980E+04  0.47000000000E+01 0. -1.
        -11    1    4    4    0    0 -0.94167906506E+02 -0.42416583606E+02  0.37344354392E+03  0.38746205192E+03  0.00000000000E+00 0.  1.
         12    1    4    4    0    0 -0.35251625057E+03 -0.32263102840E+03  0.14394466894E+04  0.15166955063E+04  0.00000000000E+00 0. -1.
         -5    1    5    5    0  501  0.62475553416E+02  0.87948326808E+02  0.26009678893E+02  0.11107068182E+03  0.47000000000E+01 0.  1.
         11    1    6    6    0    0  0.24965646327E+03  0.13108958344E+03  0.12348541461E+03  0.30783352020E+03  0.00000000000E+00 0. -1.
        -12    1    6    6    0    0  0.35807278349E+03  0.24795243064E+03  0.28118936916E+03  0.51842452437E+03  0.00000000000E+00 0.  1.
</event>
<event>
12    1  0.1081556E+000  0.4454237E+03  0.7818608E-02  0.1029096E+00
         -2   -1    0    0    0  501 -0.00000000000E+00  0.00000000000E+00  0.33153688342E+03  0.33153688342E+03  0.00000000000E+00 0.  1.
          2   -1    0    0  502    0  0.00000000000E+00 -0.00000000000E+00 -0.67030586869E+03  0.67030586869E+03  0.00000000000E+00 0. -1.
          6    2    1    2  502    0 -0.10333506534E+03 -0.39768538386E+03 -0.53781160089E+01  0.44552075704E+03  0.17212791916E+03 0.  0.
         24    2    3    3    0    0 -0.88744105150E+02 -0.32988555081E+03 -0.60987333802E+02  0.35650284544E+03  0.81699639485E+02 0.  0.
         -6    2    1    2    0  501  0.10333506534E+03  0.39768538386E+03 -0.33339086927E+03  0.55632199507E+03  0.17179316116E+03 0.  0.
        -24    2    5    5    0    0  0.11423434972E+03  0.40712418097E+03 -0.32056123287E+03  0.53645808657E+03  0.78918877610E+02 0.  0.
          5    1    3    3  502    0 -0.14590960194E+02 -0.67799833051E+02  0.55609217794E+02  0.89017911595E+02  0.47000000000E+01 0. -1.
        -13    1    4    4    0    0 -0.73619667404E+02 -0.22898140430E+03 -0.60050155600E+01  0.24060008137E+03  0.00000000000E+00 0.  1.
         14    1    4    4    0    0 -0.15124437746E+02 -0.10090414651E+03 -0.54982318242E+02  0.11590276407E+03  0.00000000000E+00 0. -1.
         -5    1    5    5    0  501 -0.10899284372E+02 -0.94387971097E+01 -0.12829636401E+02  0.19863908499E+02  0.47000000000E+01 0.  1.
         11    1    6    6    0    0  0.53125424048E+00  0.16883272478E+01 -0.17669101548E+02  0.17757528811E+02  0.00000000000E+00 0. -1.
        -12    1    6    6    0    0  0.11370309547E+03  0.40543585372E+03 -0.30289213132E+03  0.51870055776E+03  0.00000000000E+00 0.  1.
</event>
<event>
12    1  0.1081556E+000  0.2111797E+04  0.7818608E-02  0.8556064E-01
          2   -1    0    0  502    0  0.00000000000E+00  0.00000000000E+00  0.30024289390E+04  0.30024289390E+04  0.00000000000E+00 0. -1.
         -2   -1    0    0    0  501 -0.00000000000E+00 -0.00000000000E+00 -0.17231698095E+04  0.17231698095E+04  0.00000000000E+00 0.  1.
          6    2    1    2  502    0  0.63730484476E+03  0.20059449828E+04  0.15174190264E+04  0.26005088881E+04  0.17353165743E+03 0.  0.
         24    2    3    3    0    0  0.56722686348E+03  0.15933678880E+04  0.11989274136E+04  0.20745908526E+04  0.77024161613E+02 0.  0.
         -6    2    1    2    0  501 -0.63730484476E+03 -0.20059449828E+04 -0.23815989690E+03  0.21250898605E+04  0.17121343261E+03 0.  0.
        -24    2    5    5    0    0 -0.33069879227E+03 -0.11472049380E+04 -0.73373645280E+02  0.11984732544E+04  0.74253543398E+02 0.  0.
          5    1    3    3  502    0  0.70077981284E+02  0.41257709480E+03  0.31849161282E+03  0.52591803548E+03  0.47000000000E+01 0. -1.
        -13    1    4    4    0    0  0.50595501285E+03  0.14442456265E+04  0.11098682397E+04  0.18904082666E+04  0.00000000000E+00 0.  1.
         14    1    4    4    0    0  0.61271850625E+02  0.14912226147E+03  0.89059173847E+02  0.18418258601E+03  0.00000000000E+00 0. -1.
         -5    1    5    5    0  501 -0.30660605249E+03 -0.85874004479E+03 -0.16478625162E+03  0.92661660608E+03  0.47000000000E+01 0.  1.
         13    1    6    6    0    0 -0.20973695787E+03 -0.79033547856E+03 -0.80058617539E+02  0.82160157157E+03  0.00000000000E+00 0. -1.
        -14    1    6    6    0    0 -0.12096183441E+03 -0.35686945946E+03  0.66849722595E+01  0.37687168285E+03  0.00000000000E+00 0.  1.
</event>
<event>
12    1  0.1081556E+000  0.6368694E+03  0.7818608E-02  0.9831735E-01
          1   -1    0    0  502    0  0.00000000000E+00  0.00000000000E+00  0.33570357156E+04  0.33570357156E+04  0.00000000000E+00 0. -1.
         -1   -1    0    0    0  501 -0.00000000000E+00 -0.00000000000E+00 -0.13232920150E+03  0.13232920150E+03  0.00000000000E+00 0.  1.
          6    2    1    2  502    0  0.55581784270E+03 -0.25896143687E+03  0.10982488946E+04  0.12696328092E+04  0.17269144680E+03 0.  0.
         24    2    3    3    0    0  0.38201747185E+03 -0.20615721275E+03  0.64758283894E+03  0.78371425773E+03  0.80039735857E+02 0.  0.
         -6    2    1    2    0  501 -0.55581784270E+03  0.25896143687E+03  0.21264576195E+04  0.22197321079E+04  0.17144714337E+03 0.  0.
        -24    2    5    5    0    0 -0.19700321073E+03  0.69360432505E+02  0.60918362068E+03  0.64911472652E+03  0.81388634665E+02 0.  0.
          5    1    3    3  502    0  0.17380037085E+03 -0.52804224115E+02  0.45066605563E+03  0.48591855149E+03  0.47000000000E+01 0. -1.
        -11    1    4    4    0    0  0.18212340455E+03 -0.13076077083E+03  0.38118367949E+03  0.44223106085E+03  0.00000000000E+00 0.  1.
         12    1    4    4    0    0  0.19989406730E+03 -0.75396441920E+02  0.26639915945E+03  0.34148319688E+03  0.00000000000E+00 0. -1.
         -5    1    5    5    0  501 -0.35881463197E+03  0.18960100436E+03  0.15172739989E+04  0.15706173813E+04  0.47000000000E+01 0.  1.
         13    1    6    6    0    0 -0.19058605639E+03  0.82668339683E+02  0.58481505006E+03  0.62061722668E+03  0.00000000000E+00 0. -1.
        -14    1    6    6    0    0 -0.64171543322E+01 -0.13307907178E+02  0.24368570613E+02  0.28497499836E+02  0.00000000000E+00 0.  1.
</event>
<event>
12    1  0.1081556E+000  0.8507553E+03  0.7818608E-02  0.9489324E-01
          2   -1    0    0  502    0  0.00000000000E+00  0.00000000000E+00  0.17927847588E+04  0.17927847588E+04  0.00000000000E+00 0. -1.
         -2   -1    0    0    0  501 -0.00000000000E+00 -0.00000000000E+00 -0.56502679094E+03  0.56502679094E+03  0.00000000000E+00 0.  1.
          6    2    1    2  502    0  0.24789109477E+03  0.79549994162E+03 -0.16081183720E+02  0.85078547010E+03  0.17119334005E+03 0.  0.
         24    2    3    3    0    0  0.14515704301E+03  0.49303415242E+03  0.53008543866E+02  0.52392874386E+03  0.86822694813E+02 0.  0.
         -6    2    1    2    0  501 -0.24789109477E+03 -0.79549994162E+03  0.12438391516E+04  0.15070260797E+04  0.17239958736E+03 0.  0.
        -24    2    5    5    0    0 -0.18188530766E+03 -0.68592515615E+03  0.96785621377E+03  0.12028023634E+04  0.80076775323E+02 0.  0.
          5    1    3    3  502    0  0.10273405176E+03  0.30246578920E+03 -0.69089727586E+02  0.32685672624E+03  0.47000000000E+01 0. -1.
        -11    1    4    4    0    0  0.17427616956E+02  0.14512383376E+03 -0.15665719018E+02  0.14700361802E+03  0.00000000000E+00 0.  1.
         12    1    4    4    0    0  0.12772942606E+03  0.34791031865E+03  0.68674262884E+02  0.37692512584E+03  0.00000000000E+00 0. -1.
         -5    1    5    5    0  501 -0.66005787115E+02 -0.10957478547E+03  0.27598293783E+03  0.30422371623E+03  0.47000000000E+01 0.  1.
         13    1    6    6    0    0 -0.12813167390E+03 -0.35019873317E+03  0.54140891265E+03  0.65740435750E+03  0.00000000000E+00 0. -1.
        -14    1    6    6    0    0 -0.53753633760E+02 -0.33572642298E+03  0.42644730112E+03  0.54539800592E+03  0.00000000000E+00 0.  1.
</event>
<event>
12    1  0.1081556E+000  0.4430357E+03  0.7818608E-02  0.1029819E+00
          2   -1    0    0  502    0  0.00000000000E+00  0.00000000000E+00  0.11378688569E+04  0.11378688569E+04  0.00000000000E+00 0. -1.
         -2   -1    0    0    0  501 -0.00000000000E+00 -0.00000000000E+00 -0.19504321764E+03  0.19504321764E+03  0.00000000000E+00 0.  1.
          6    2    1    2  502    0 -0.23924911935E+03 -0.33045027649E+03  0.24541254535E+03  0.50700720676E+03  0.17433147721E+03 0.  0.
         24    2    3    3    0    0 -0.25504397873E+03 -0.26773859302E+03  0.22277967551E+03  0.43832992067E+03  0.75966770774E+02 0.  0.
         -6    2    1    2    0  501  0.23924911935E+03  0.33045027649E+03  0.69741309390E+03  0.82590486777E+03  0.17116162165E+03 0.  0.
        -24    2    5    5    0    0  0.69226549076E+02  0.77308625312E+02  0.14896145243E+03  0.19836230906E+03  0.79932175632E+02 0.  0.
          5    1    3    3  502    0  0.15794859374E+02 -0.62711683473E+02  0.22632869842E+02  0.68677286085E+02  0.47000000000E+01 0. -1.
        -13    1    4    4    0    0 -0.13182358878E+03 -0.17106908509E+03  0.16347783565E+03  0.27086360623E+03  0.00000000000E+00 0.  1.
         14    1    4    4    0    0 -0.12322038995E+03 -0.96669507931E+02  0.59301839860E+02  0.16746631445E+03  0.00000000000E+00 0. -1.
         -5    1    5    5    0  501  0.17002257028E+03  0.25314165118E+03  0.54845164147E+03  0.62754255872E+03  0.47000000000E+01 0.  1.
         11    1    6    6    0    0  0.47227492109E+02  0.90583278767E+02  0.13444034625E+03  0.16884896536E+03  0.00000000000E+00 0. -1.
        -12    1    6    6    0    0  0.21999056967E+02 -0.13274653455E+02  0.14521106180E+02  0.29513343701E+02  0.00000000000E+00 0.  1.
</event>
<event>
12    1  0.1081556E+000  0.1226766E+04  0.7818608E-02  0.9089746E-01
          2   -1    0    0  502    0  0.00000000000E+00  0.00000000000E+00  0.22074373385E+04  0.22074373385E+04  0.00000000000E+00 0. -1.
         -2   -1    0    0    0  501 -0.00000000000E+00 -0.00000000000E+00 -0.12050769077E+04  0.12050769077E+04  0.00000000000E+00 0.  1.
          6    2    1    2  502    0  0.11786331441E+04  0.29315231615E+03 -0.62320099008E+03  0.13760222455E+04  0.17304154792E+03 0.  0.
         24    2    3    3    0    0  0.72702089818E+03  0.10995658881E+03 -0.36688398095E+03  0.82535465582E+03  0.77179107234E+02 0.  0.
         -6    2    1    2    0  501 -0.11786331441E+04 -0.29315231615E+03  0.16255614209E+04  0.20364920007E+04  0.17243945917E+03 0.  0.
        -24    2    5    5    0    0 -0.54310726760E+03 -0.19968021211E+03  0.79874801059E+03  0.98946159076E+03  0.78728418859E+02 0.  0.
          5    1    3    3  502    0  0.45161224592E+03  0.18319572735E+03 -0.25631700912E+03  0.55066758970E+03  0.47000000000E+01 0. -1.
        -13    1    4    4    0    0  0.31044169342E+03  0.51046570436E+02 -0.11486198087E+03  0.33492248658E+03  0.00000000000E+00 0.  1.
         14    1    4    4    0    0  0.41657920476E+03  0.58910018373E+02 -0.25202200008E+03  0.49043216925E+03  0.00000000000E+00 0. -1.
         -5    1    5    5    0  501 -0.63552587650E+03 -0.93472104040E+02  0.82681341031E+03  0.10470304100E+04  0.47000000000E+01 0.  1.
         11    1    6    6    0    0 -0.37636101319E+03 -0.13931464820E+03  0.48957559723E+03  0.63304063761E+03  0.00000000000E+00 0. -1.
        -12    1    6    6    0    0 -0.16674625441E+03 -0.60365563913E+02  0.30917241336E+03  0.35642095315E+03  0.00000000000E+00 0.  1.
</event>
<event>
12    1  0.1081556E+000  0.2150311E+03  0.7818608E-02  0.1137643E+00
          2   -1    0    0  502    0  0.00000000000E+00  0.00000000000E+00  0.10969039032E+04  0.10969039032E+04  0.00000000000E+00 0. -1.
         -2   -1    0    0    0  501 -0.00000000000E+00 -0.00000000000E+00 -0.11899683627E+03  0.11899683627E+03  0.00000000000E+00 0.  1.
          6    2    1    2  502    0  0.11098582620E+03  0.24348706168E+02 -0.63533205819E+01  0.20645830459E+03  0.17226129496E+03 0.  0.
         24    2    3    3    0    0  0.10837830556E+03  0.69701481028E+02 -0.30158934360E+02  0.15495616290E+03  0.80608296867E+02 0.  0.
         -6    2    1    2    0  501 -0.11098582620E+03 -0.24348706168E+02  0.98426038747E+03  0.10094424348E+04  0.19311863140E+03 0.  0.
        -24    2    5    5    0    0 -0.94416570340E+02 -0.53083058815E+01  0.97390526262E+03  0.98175858226E+03  0.80098604318E+02 0.  0.
          5    1    3    3  502    0  0.26075206379E+01 -0.45352774861E+02  0.23805613778E+02  0.51502141691E+02  0.47000000000E+01 0. -1.
        -11    1    4    4    0    0  0.17182579852E+02 -0.11685061777E+02 -0.25148422412E+02  0.32622459578E+02  0.00000000000E+00 0.  1.
         12    1    4    4    0    0  0.91195725710E+02  0.81386542806E+02 -0.50105119481E+01  0.12233370332E+03  0.00000000000E+00 0. -1.
         -5    1    5    5    0  501 -0.16569255860E+02 -0.19040400286E+02  0.10355124850E+02  0.27683852576E+02  0.47000000000E+01 0.  1.
         11    1    6    6    0    0 -0.93571552860E+02 -0.12893173052E+02  0.56939608460E+03  0.57717741690E+03  0.00000000000E+00 0. -1.
        -12    1    6    6    0    0 -0.84501748017E+00  0.75848671709E+01  0.40450917802E+03  0.40458116536E+03  0.00000000000E+00 0.  1.
</event>
<event>
12    1  0.1081556E+000  0.3049480E+03  0.7818608E-02  0.1082793E+00
          3   -1    0    0  502    0  0.00000000000E+00  0.00000000000E+00  0.15218725155E+04  0.15218725155E+04  0.00000000000E+00 0. -1.
         -3   -1    0    0    0  501 -0.00000000000E+00 -0.00000000000E+00 -0.64248138230E+02  0.64248138230E+02  0.00000000000E+00 0.  1.
          6    2    1    2  502    0 -0.22606721656E+03  0.11064636726E+03  0.55354906867E+03  0.63202319244E+03  0.17230130401E+03 0.  0.
         24    2    3    3    0    0 -0.20745223139E+03  0.11509138050E+03  0.36827398701E+03  0.44570297964E+03  0.82115542817E+02 0.  0.
         -6    2    1    2    0  501  0.22606721656E+03 -0.11064636726E+03  0.90407530860E+03  0.95409746129E+03  0.17204882164E+03 0.  0.
        -24    2    5    5    0    0  0.17610840669E+03 -0.11281767900E+03  0.85589633205E+03  0.88449932152E+03  0.77707907843E+02 0.  0.
          5    1    3    3  502    0 -0.18614985169E+02 -0.44450132414E+01  0.18527508165E+03  0.18632021280E+03  0.47000000000E+01 0. -1.
        -13    1    4    4    0    0 -0.12219017970E+03  0.31959167981E+02  0.23637059885E+03  0.26799792618E+03  0.00000000000E+00 0.  1.
         14    1    4    4    0    0 -0.85262051694E+02  0.83132212522E+02  0.13190338816E+03  0.17770505346E+03  0.00000000000E+00 0. -1.
         -5    1    5    5    0  501  0.49958809875E+02  0.21713117369E+01  0.48178976545E+02  0.69598139772E+02  0.47000000000E+01 0.  1.
         11    1    6    6    0    0  0.21461523324E+02  0.86229013194E+01  0.52122508588E+02  0.57023743406E+02  0.00000000000E+00 0. -1.
        -12    1    6    6    0    0  0.15464688336E+03 -0.12144058032E+03  0.80377382347E+03  0.82747557811E+03  0.00000000000E+00 0.  1.
</event>
<event>
12    1  0.1081556E+000  0.7175452E+03  0.7818608E-02  0.9687689E-01
          2   -1    0    0  502    0  0.00000000000E+00  0.00000000000E+00  0.11450009309E+04  0.11450009309E+04  0.00000000000E+00 0. -1.
         -2   -1    0    0    0  501 -0.00000000000E+00 -0.00000000000E+00 -0.45662895332E+03  0.45662895332E+03  0.00000000000E+00 0.  1.
          6    2    1    2  502    0 -0.69588172243E+03  0.74302292808E+01  0.44290679714E+03  0.84296391027E+03  0.17353715207E+03 0.  0.
         24    2    3    3    0    0 -0.20702587065E+03 -0.30070049331E+02  0.11071728291E+03  0.25071541675E+03  0.82680012551E+02 0.  0.
         -6    2    1    2    0  501  0.69588172243E+03 -0.74302292808E+01  0.24546518047E+03  0.75866597398E+03  0.17610884512E+03 0.  0.
        -24    2    5    5    0    0  0.69192644376E+03 -0.12084737856E+02  0.25871562674E+03  0.74333714474E+03  0.81902935052E+02 0.  0.
          5    1    3    3  502    0 -0.48885585178E+03  0.37500278612E+02  0.33218951423E+03  0.59224849352E+03  0.47000000000E+01 0. -1.
        -13    1    4    4    0    0 -0.60578691392E+02 -0.60945021459E+01 -0.70168803824E+01  0.61287498052E+02  0.00000000000E+00 0.  1.
         14    1    4    4    0    0 -0.14644717926E+03 -0.23975547185E+02  0.11773416329E+03  0.18942791870E+03  0.00000000000E+00 0. -1.
         -5    1    5    5    0  501  0.39552786715E+01  0.46545085757E+01 -0.13250446270E+02  0.15328829238E+02  0.47000000000E+01 0.  1.
         11    1    6    6    0    0  0.11245049042E+03 -0.12770018248E+02  0.73643573074E+02  0.13502430158E+03  0.00000000000E+00 0. -1.
        -12    1    6    6    0    0  0.57947595334E+03  0.68528039144E+00  0.18507205366E+03  0.60831284316E+03  0.00000000000E+00 0.  1.
</event>
<event>
12    1  0.1081556E+000  0.2700662E+03  0.7818608E-02  0.1101242E+00
         -1   -1    0    0    0  501 -0.00000000000E+00  0.00000000000E+00  0.22137013862E+03  0.22137013862E+03  0.00000000000E+00 0.  1.
          1   -1    0    0  502    0  0.00000000000E+00 -0.00000000000E+00 -0.11709155092E+04  0.11709155092E+04  0.00000000000E+00 0. -1.
          6    2    1    2  502    0  0.11610967257E+03 -0.16840472931E+03  0.11357066948E+03  0.29626404720E+03  0.18174839690E+03 0.  0.
         24    2    3    3    0    0  0.55899082112E+02 -0.32809349481E+02  0.10599667249E+03  0.14763404462E+03  0.79745568903E+02 0.  0.
         -6    2    1    2    0  501 -0.11610967257E+03  0.16840472931E+03 -0.10631160401E+04  0.10960216006E+04  0.17089770472E+03 0.  0.
        -24    2    5    5    0    0 -0.85010877007E+02  0.27992808541E+02 -0.58948177000E+03  0.60101235388E+03  0.75608503638E+02 0.  0.
          5    1    3    3  502    0  0.60210590460E+02 -0.13559537983E+03  0.75739969942E+01  0.14863000257E+03  0.47000000000E+01 0. -1.
        -11    1    4    4    0    0  0.77372868428E+01 -0.50131277130E+02  0.62280055346E+02  0.80323196203E+02  0.00000000000E+00 0.  1.
         12    1    4    4    0    0  0.48161795269E+02  0.17321927649E+02  0.43716617140E+02  0.67310848421E+02  0.00000000000E+00 0. -1.
         -5    1    5    5    0  501 -0.31098795564E+02  0.14041192077E+03 -0.47363427008E+03  0.49500924676E+03  0.47000000000E+01 0.  1.
         13    1    6    6    0    0  0.14602334273E+01  0.28634440992E+02 -0.10353587722E+03  0.10743249678E+03  0.00000000000E+00 0. -1.
        -14    1    6    6    0    0 -0.86471110435E+02 -0.64163245100E+00 -0.48594589277E+03  0.49357985710E+03  0.00000000000E+00 0.  1.
</event>
<event>
12    1  0.1081556E+000  0.9896876E+03  0.7818608E-02  0.9319928E-01
          2   -1    0    0  502    0  0.00000000000E+00  0.00000000000E+00  0.17753599499E+04  0.17753599499E+04  0.00000000000E+00 0. -1.
         -2   -1    0    0    0  501 -0.00000000000E+00 -0.00000000000E+00 -0.20736954155E+04  0.20736954155E+04  0.00000000000E+00 0.  1.
          6    2    1    2  502    0 -0.77254804260E+03 -0.59407229434E+03 -0.17979311891E+04  0.20523818950E+04  0.17309683220E+03 0.  0.
         24    2    3    3    0    0 -0.36083185782E+03 -0.30526052937E+03 -0.99927350919E+03  0.11085606026E+04  0.83519117826E+02 0.  0.
         -6    2    1    2    0  501  0.77254804260E+03  0.59407229434E+03  0.14995957235E+04  0.17966734704E+04  0.17174357726E+03 0.  0.
        -24    2    5    5    0    0  0.42251984303E+03  0.25489898423E+03  0.69922208788E+03  0.85956177943E+03  0.80239731849E+02 0.  0.
          5    1    3    3  502    0 -0.41171618478E+03 -0.28881176497E+03 -0.79865767988E+03  0.94382129242E+03  0.47000000000E+01 0. -1.
        -13    1    4    4    0    0 -0.28940295826E+03 -0.20861909416E+03 -0.69029710852E+03  0.77703674091E+03  0.00000000000E+00 0.  1.
         14    1    4    4    0    0 -0.71428899560E+02 -0.96641435211E+02 -0.30897640067E+03  0.33152386168E+03  0.00000000000E+00 0. -1.
         -5    1    5    5    0  501  0.35002819958E+03  0.33917331011E+03  0.80037363558E+03  0.93711169095E+03  0.47000000000E+01 0.  1.
         11    1    6    6    0    0  0.21468372881E+03  0.14613618373E+03  0.43138427354E+03  0.50352485447E+03  0.00000000000E+00 0. -1.
        -12    1    6    6    0    0  0.20783611422E+03  0.10876280050E+03  0.26783781434E+03  0.35603692496E+03  0.00000000000E+00 0.  1.
</event>
<event>
12    1  0.1081556E+000  0.7493110E+03  0.7818608E-02  0.9636432E-01
          1   -1    0    0  502    0  0.00000000000E+00  0.00000000000E+00  0.14490081901E+04  0.14490081901E+04  0.00000000000E+00 0. -1.
         -1   -1    0    0    0  501 -0.00000000000E+00 -0.00000000000E+00 -0.75671979940E+03  0.75671979940E+03  0.00000000000E+00 0.  1.
          6    2    1    2  502    0 -0.65193176712E+03 -0.32678447365E+03 -0.42430324545E+03  0.86086562073E+03  0.17103581982E+03 0.  0.
         24    2    3    3    0    0 -0.51786516486E+03 -0.21541475749E+03 -0.26800029320E+03  0.62670804473E+03  0.79692969890E+02 0.  0.
         -6    2    1    2    0  501  0.65193176712E+03  0.32678447365E+03  0.11165916361E+04  0.13448623687E+04  0.17342084020E+03 0.  0.
        -24    2    5    5    0    0  0.20392262954E+03  0.15484011028E+03  0.43889139679E+03  0.51445478458E+03  0.80487071086E+02 0.  0.
          5    1    3    3  502    0 -0.13406660226E+03 -0.11136971615E+03 -0.15630295225E+03  0.23415757600E+03  0.47000000000E+01 0. -1.
        -11    1    4    4    0    0 -0.22060342041E+03 -0.13274684114E+03 -0.10871252263E+03  0.27947451673E+03  0.00000000000E+00 0.  1.
         12    1    4    4    0    0 -0.29726174446E+03 -0.82667916358E+02 -0.15928777057E+03  0.34723352800E+03  0.00000000000E+00 0. -1.
         -5    1    5    5    0  501  0.44800913758E+03  0.17194436337E+03  0.67770023933E+03  0.83040758416E+03  0.47000000000E+01 0.  1.
         13    1    6    6    0    0  0.75260575952E+02  0.10702634250E+03  0.20202479365E+03  0.24069235453E+03  0.00000000000E+00 0. -1.
        -14    1    6    6    0    0  0.12866205359E+03  0.47813767782E+02  0.23686660314E+03  0.27376243005E+03  0.00000000000E+00 0.  1.
</event>
<event>
12    1  0.1081556E+000  0.8707711E+03  0.7818608E-02  0.9462875E-01
          1   -1    0    0  502    0  0.00000000000E+00  0.00000000000E+00  0.17512340270E+04  0.17512340270E+04  0.00000000000E+00 0. -1.
         -1   -1    0    0    0  501 -0.00000000000E+00 -0.00000000000E+00 -0.43543617834E+03  0.43543617834E+03  0.00000000000E+00 0.  1.
          6    2    1    2  502    0  0.64318934852E+03 -0.56144989257E+03  0.57602000235E+03  0.10443850245E+04  0.17327006766E+03 0.  0.
         24    2    3    3    0    0  0.43466829289E+03 -0.43252299891E+03  0.34834841922E+03  0.70978135697E+03  0.80189052243E+02 0.  0.
         -6    2    1    2    0  501 -0.64318934852E+03  0.56144989257E+03  0.73977784632E+03  0.11422851809E+04  0.16919117176E+03 0.  0.
        -24    2    5    5    0    0 -0.24951979843E+03  0.28950641595E+03  0.37008632678E+03  0.53761760379E+03  0.77425473533E+02 0.  0.
          5    1    3    3  502    0  0.20852105563E+03 -0.12892689366E+03  0.22767158313E+03  0.33460366751E+03  0.47000000000E+01 0. -1.
        -11    1    4    4    0    0  0.29345248111E+03 -0.27600101080E+03  0.26960253181E+03  0.48474368669E+03  0.00000000000E+00 0.  1.
         12    1    4    4    0    0  0.14121581178E+03 -0.15652198812E+03  0.78745887409E+02  0.22503767028E+03  0.00000000000E+00 0. -1.
         -5    1    5    5    0  501 -0.39366955009E+03  0.27194347662E+03  0.36969151953E+03  0.60466757707E+03  0.47000000000E+01 0.  1.
         11    1    6    6    0    0 -0.96727659066E+02  0.80460980360E+02  0.81557216535E+02  0.14993928424E+03  0.00000000000E+00 0. -1.
        -12    1    6    6    0    0 -0.15279213936E+03  0.20904543559E+03  0.28852911025E+03  0.38767831955E+03  0.00000000000E+00 0.  1.
</event>
<event>
12    1  0.1081556E+000  0.2418117E+03  0.7818608E-02  0.1118592E+00
         -2   -1    0    0    0  501 -0.00000000000E+00  0.00000000000E+00  0.97756782090E+02  0.97756782090E+02  0.00000000000E+00 0.  1.
          2   -1    0    0  502    0  0.00000000000E+00 -0.00000000000E+00 -0.77993412936E+03  0.77993412936E+03  0.00000000000E+00 0. -1.
          6    2    1    2  502    0 -0.16676448830E+03  0.25140436115E+02 -0.12891012024E+03  0.27377295678E+03  0.17289122787E+03 0.  0.
         24    2    3    3    0    0 -0.16668226930E+03  0.63182094760E+02 -0.82404696874E+02  0.21350672282E+03  0.83783235943E+02 0.  0.
         -6    2    1    2    0  501  0.16676448830E+03 -0.25140436115E+02 -0.55326722702E+03  0.60391795467E+03  0.17369466136E+03 0.  0.
        -24    2    5    5    0    0  0.13839094689E+03 -0.63078867073E+02 -0.30172937477E+03  0.34791451033E+03  0.82902914592E+02 0.  0.
          5    1    3    3  502    0 -0.82218998936E-01 -0.38041658645E+02 -0.46505423368E+02  0.60266233955E+02  0.47000000000E+01 0. -1.
        -13    1    4    4    0    0 -0.13480409292E+03  0.33553135905E+02 -0.24485273869E+02  0.14105844546E+03  0.00000000000E+00 0.  1.
         14    1    4    4    0    0 -0.31878176380E+02  0.29628958856E+02 -0.57919423005E+02  0.72448277367E+02  0.00000000000E+00 0. -1.
         -5    1    5    5    0  501  0.28373541417E+02  0.37938430958E+02 -0.25153785226E+03  0.25600344434E+03  0.47000000000E+01 0.  1.
         11    1    6    6    0    0  0.84386072790E+02  0.57430058794E+01 -0.16839735394E+03  0.18844537726E+03  0.00000000000E+00 0. -1.
        -12    1    6    6    0    0  0.54004874097E+02 -0.68821872953E+02 -0.13333202083E+03  0.15946913307E+03  0.00000000000E+00 0.  1.
</event>
<event>
12    1  0.1081556E+000  0.2808762E+03  0.7818608E-02  0.1095211E+00
          3   -1    0    0  502    0  0.00000000000E+00  0.00000000000E+00  0.22459373286E+04  0.22459373286E+04  0.00000000000E+00 0. -1.
         -3   -1    0    0    0  501 -0.00000000000E+00 -0.00000000000E+00 -0.39508915530E+02  0.39508915530E+02  0.00000000000E+00 0.  1.
          6    2    1    2  502    0 -0.21718358598E+03  0.43593612694E+02  0.71991549662E+03  0.77248534670E+03  0.17142396419E+03 0.  0.
         24    2    3    3    0    0 -0.70756934393E+02  0.15437528017E+02  0.16626839745E+03  0.19909130259E+03  0.82141985239E+02 0.  0.
         -6    2    1    2    0  501  0.21718358598E+03 -0.43593612694E+02  0.14865129165E+04  0.15129608975E+04  0.17395664203E+03 0.  0.
        -24    2    5    5    0    0  0.18077842024E+03 -0.61458828101E+02  0.14195965114E+04  0.14345746915E+04  0.79323802127E+02 0.  0.
          5    1    3    3  502    0 -0.14642665159E+03  0.28156084677E+02  0.55364709917E+03  0.57339404411E+03  0.47000000000E+01 0. -1.
        -11    1    4    4    0    0 -0.78420482595E+02 -0.45200257252E+00  0.16336507335E+03  0.18121292335E+03  0.00000000000E+00 0.  1.
         12    1    4    4    0    0  0.76635482021E+01  0.15889530589E+02  0.29033240974E+01  0.17878379239E+02  0.00000000000E+00 0. -1.
         -5    1    5    5    0  501  0.36405165745E+02  0.17865215407E+02  0.66916405091E+02  0.78386205960E+02  0.47000000000E+01 0.  1.
         11    1    6    6    0    0  0.93354742707E+02 -0.72283886517E+02  0.75828674673E+03  0.76742351965E+03  0.00000000000E+00 0. -1.
        -12    1    6    6    0    0  0.87423677529E+02  0.10825058417E+02  0.66130976465E+03  0.66715117185E+03  0.00000000000E+00 0.  1.
</event>
<event>
12    1  0.1081556E+000  0.4500365E+03  0.7818608E-02  0.1027711E+00
          3   -1    0    0  502    0  0.00000000000E+00  0.00000000000E+00  0.40066367843E+03  0.40066367843E+03  0.00000000000E+00 0. -1.
         -3   -1    0    0    0  501 -0.00000000000E+00 -0.00000000000E+00 -0.72470973119E+03  0.72470973119E+03  0.00000000000E+00 0.  1.
          6    2    1    2  502    0  0.24690066772E+02 -0.41451618463E+03 -0.47176918233E+03  0.65275947474E+03  0.17633917247E+03 0.  0.
         24    2    3    3    0    0  0.72626610173E+02 -0.32356587418E+03 -0.40791947326E+03  0.53164487399E+03  0.79236834516E+02 0.  0.
         -6    2    1    2    0  501 -0.24690066772E+02  0.41451618463E+03  0.14772312957E+03  0.47261393488E+03  0.17061225548E+03 0.  0.
        -24    2    5    5    0    0 -0.23559987152E+02  0.42684902255E+03  0.13806829039E+03  0.45622241602E+03  0.79503955978E+02 0.  0.
          5    1    3    3  502    0 -0.47936543401E+02 -0.90950310456E+02 -0.63849709070E+02  0.12111460075E+03  0.47000000000E+01 0. -1.
        -11    1    4    4    0    0  0.24673668465E+02 -0.26079205696E+03 -0.31286057202E+03  0.40804782123E+03  0.00000000000E+00 0.  1.
         12    1    4    4    0    0  0.47952941708E+02 -0.62773817214E+02 -0.95058901244E+02  0.12359705276E+03  0.00000000000E+00 0. -1.
         -5    1    5    5    0  501 -0.11300796198E+01 -0.12332837923E+02  0.96548391803E+01  0.16391518867E+02  0.47000000000E+01 0.  1.
         11    1    6    6    0    0  0.18203159887E+02  0.28457679484E+03  0.73366241544E+02  0.29444509265E+03  0.00000000000E+00 0. -1.
        -12    1    6    6    0    0 -0.41763147039E+02  0.14227222772E+03  0.64702048843E+02  0.16177732336E+03  0.00000000000E+00 0.  1.
</event>
<event>
12    1  0.1081556E+000  0.2566917E+03  0.7818608E-02  0.1109147E+00
         -1   -1    0    0    0  501 -0.00000000000E+00  0.00000000000E+00  0.20636753050E+03  0.20636753050E+03  0.00000000000E+00 0.  1.
          1   -1    0    0  502    0  0.00000000000E+00 -0.00000000000E+00 -0.41400987120E+03  0.41400987120E+03  0.00000000000E+00 0. -1.
          6    2    1    2  502    0 -0.20917745948E+02  0.19034245951E+03  0.44886077392E+02  0.25950658295E+03  0.16929590268E+03 0.  0.
         24    2    3    3    0    0 -0.39118229015E+02  0.32901217908E+02  0.33694223295E+02  0.10055265963E+03  0.79767228195E+02 0.  0.
         -6    2    1    2    0  501  0.20917745948E+02 -0.19034245951E+03 -0.25252841809E+03  0.36087081874E+03  0.17259589186E+03 0.  0.
        -24    2    5    5    0    0  0.78036190255E+02 -0.12705902662E+03 -0.19493804444E+03  0.25788513675E+03  0.79184969223E+02 0.  0.
          5    1    3    3  502    0  0.18200483067E+02  0.15744124160E+03  0.11191854097E+02  0.15895392332E+03  0.47000000000E+01 0. -1.
        -11    1    4    4    0    0 -0.43131544070E+01  0.45557655958E+02  0.42535660270E+02  0.62477081493E+02  0.00000000000E+00 0.  1.
         12    1    4    4    0    0 -0.34805074608E+02 -0.12656438050E+02 -0.88414369746E+01  0.38075578136E+02  0.00000000000E+00 0. -1.
         -5    1    5    5    0  501 -0.57118444307E+02 -0.63283432888E+02 -0.57590373648E+02  0.10298568199E+03  0.47000000000E+01 0.  1.
         11    1    6    6    0    0 -0.31406789831E+01 -0.32174545903E+02 -0.87061676388E+02  0.92869805448E+02  0.00000000000E+00 0. -1.
        -12    1    6    6    0    0  0.81176869238E+02 -0.94884480721E+02 -0.10787636806E+03  0.16501533131E+03  0.00000000000E+00 0.  1.
</event>
<event>
12    1  0.1081556E+000  0.2145031E+03  0.7818608E-02  0.1138049E+00
         -3   -1    0    0    0  501 -0.00000000000E+00  0.00000000000E+00  0.77687406633E+03  0.77687406633E+03  0.00000000000E+00 0.  1.
          3   -1    0    0  502    0  0.00000000000E+00 -0.00000000000E+00 -0.98003826581E+02  0.98003826581E+02  0.00000000000E+00 0. -1.
          6    2    1    2  502    0 -0.12183045642E+03 -0.37158196770E+02  0.61489843176E+03  0.65134357321E+03  0.17298837326E+03 0.  0.
         24    2    3    3    0    0 -0.19357934365E+02  0.11836071170E+02  0.15035324757E+03  0.17309115636E+03  0.82702038380E+02 0.  0.
         -6    2    1    2    0  501  0.12183045642E+03  0.37158196770E+02  0.63971807994E+02  0.22353431971E+03  0.17219700395E+03 0.  0.
        -24    2    5    5    0    0  0.35593323916E+02  0.77806386278E+02  0.50978800216E+02  0.12720142510E+03  0.79124244211E+02 0.  0.
          5    1    3    3  502    0 -0.10247252205E+03 -0.48994267940E+02  0.46454518419E+03  0.47825241684E+03  0.47000000000E+01 0. -1.
        -11    1    4    4    0    0 -0.20200391288E+02  0.38882328199E+02  0.13510208601E+03  0.14202980285E+03  0.00000000000E+00 0.  1.
         12    1    4    4    0    0  0.84245692269E+00 -0.27046257029E+02  0.15251161565E+02  0.31061353512E+02  0.00000000000E+00 0. -1.
         -5    1    5    5    0  501  0.86237132504E+02 -0.40648189507E+02  0.12993007778E+02  0.96332894609E+02  0.47000000000E+01 0.  1.
         13    1    6    6    0    0  0.56232477963E+02  0.62710116938E+02  0.19160839033E+02  0.86381642128E+02  0.00000000000E+00 0. -1.
        -14    1    6    6    0    0 -0.20639154047E+02  0.15096269340E+02  0.31817961183E+02  0.40819782968E+02  0.00000000000E+00 0.  1.
</event>
<event>
12    1  0.1081556E+000  0.2581175E+03  0.7818608E-02  0.1108280E+00
          1   -1    0    0  502    0  0.00000000000E+00  0.00000000000E+00  0.12251721174E+03  0.12251721174E+03  0.00000000000E+00 0. -1.
         -1   -1    0    0    0  501 -0.00000000000E+00 -0.00000000000E+00 -0.35061119878E+04  0.35061119878E+04  0.00000000000E+00 0.  1.
          6    2    1    2  502    0  0.13137229205E+03  0.14106470129E+03 -0.33591933132E+04  0.33690733939E+04  0.17122467345E+03 0.  0.
         24    2    3    3    0    0  0.34979395434E+02  0.80600021445E+01 -0.15497535268E+04  0.15521869717E+04  0.79119400368E+02 0.  0.
         -6    2    1    2    0  501 -0.13137229205E+03 -0.14106470129E+03 -0.24401462904E+02  0.25955580571E+03  0.17209257920E+03 0.  0.
        -24    2    5    5    0    0 -0.11596535549E+03 -0.33852372428E+02 -0.34391332177E+02  0.15068090207E+03  0.83234750708E+02 0.  0.
          5    1    3    3  502    0  0.96392896613E+02  0.13300469915E+03 -0.18094397864E+04  0.18168864222E+04  0.47000000000E+01 0. -1.
        -11    1    4    4    0    0  0.75065781740E+01  0.38556049562E+02 -0.46462814436E+03  0.46628556723E+03  0.00000000000E+00 0.  1.
         12    1    4    4    0    0  0.27472817260E+02 -0.30496047418E+02 -0.10851253825E+04  0.10859014045E+04  0.00000000000E+00 0. -1.
         -5    1    5    5    0  501 -0.15406936555E+02 -0.10721232886E+03  0.99898692737E+01  0.10887490364E+03  0.47000000000E+01 0.  1.
         13    1    6    6    0    0 -0.17636818534E+02 -0.38383761918E+02  0.88662858716E+01  0.43162270238E+02  0.00000000000E+00 0. -1.
        -14    1    6    6    0    0 -0.98328536958E+02  0.45313894897E+01 -0.43257618049E+02  0.10751863183E+03  0.00000000000E+00 0.  1.
</event>
<event>
12    1  0.1081556E+000  0.4737375E+03  0.7818608E-02  0.1020871E+00
         -2   -1    0    0    0  501 -0.00000000000E+00  0.00000000000E+00  0.68757181924E+03  0.68757181924E+03  0.00000000000E+00 0.  1.
          2   -1    0    0  502    0  0.00000000000E+00 -0.00000000000E+00 -0.33579673450E+03  0.33579673450E+03  0.00000000000E+00 0. -1.
          6    2    1    2  502    0 -0.21142456136E+03  0.38604068919E+03  0.26188537939E+03  0.54236641566E+03  0.17846461287E+03 0.  0.
         24    2    3    3    0    0 -0.15492186060E+03  0.36766881544E+03  0.19023434119E+03  0.44916747675E+03  0.79882268799E+02 0.  0.
         -6    2    1    2    0  501  0.21142456136E+03 -0.38604068919E+03  0.89889705351E+02  0.48100213807E+03  0.17191608083E+03 0.  0.
        -24    2    5    5    0    0  0.20452457245E+03 -0.27442314504E+03  0.10949879103E+03  0.36736811038E+03  0.76360853976E+02 0.  0.
          5    1    3    3  502    0 -0.56502700767E+02  0.18371873748E+02  0.71651038199E+02  0.93198938910E+02  0.47000000000E+01 0. -1.
        -11    1    4    4    0    0 -0.77857748152E+02  0.12865448032E+03  0.10715535815E+03  0.18465122538E+03  0.00000000000E+00 0.  1.
         12    1    4    4    0    0 -0.77064112444E+02  0.23901433511E+03  0.83078983043E+02  0.26451625137E+03  0.00000000000E+00 0. -1.
         -5    1    5    5    0  501  0.68999889170E+01 -0.11161754415E+03 -0.19609085682E+02  0.11363402769E+03  0.47000000000E+01 0.  1.
         11    1    6    6    0    0  0.10178951520E+03 -0.19333122725E+03  0.53097846712E+02  0.22484983913E+03  0.00000000000E+00 0. -1.
        -12    1    6    6    0    0  0.10273505725E+03 -0.81091917791E+02  0.56400944322E+02  0.14251827125E+03  0.00000000000E+00 0.  1.
</event>
<event>
12    1  0.1081556E+000  0.2739377E+03  0.7818608E-02  0.1099047E+00
          2   -1    0    0  502    0  0.00000000000E+00  0.00000000000E+00  0.41922428127E+03  0.41922428127E+03  0.00000000000E+00 0. -1.
         -2   -1    0    0    0  501 -0.00000000000E+00 -0.00000000000E+00 -0.48921741058E+03  0.48921741058E+03  0.00000000000E+00 0.  1.
          6    2    1    2  502    0  0.37921522074E+02 -0.20642035643E+03 -0.39671173709E+03  0.48229429978E+03  0.17657911504E+03 0.  0.
         24    2    3    3    0    0  0.90860688466E+02 -0.11160177943E+03 -0.26369618560E+03  0.31051436841E+03  0.78567632065E+02 0.  0.
         -6    2    1    2    0  501 -0.37921522074E+02  0.20642035643E+03  0.32671860778E+03  0.42614739207E+03  0.17552534209E+03 0.  0.
        -24    2    5    5    0    0 -0.27317019764E+02  0.21923727647E+03  0.33516713541E+03  0.40690690020E+03  0.66520777275E+02 0.  0.
          5    1    3    3  502    0 -0.52939166392E+02 -0.94818577003E+02 -0.13301555149E+03  0.17177993137E+03  0.47000000000E+01 0. -1.
        -13    1    4    4    0    0  0.90921913740E+02 -0.10180587051E+03 -0.17825265819E+03  0.22451111291E+03  0.00000000000E+00 0.  1.
         14    1    4    4    0    0 -0.61225273388E-01 -0.97959089184E+01 -0.85443527413E+02  0.86003255502E+02  0.00000000000E+00 0. -1.
         -5    1    5    5    0  501 -0.10604502310E+02 -0.12816920037E+02 -0.84485276277E+01  0.19240491874E+02  0.47000000000E+01 0.  1.
         11    1    6    6    0    0  0.18103222705E+02  0.87899388578E+02  0.15835805788E+03  0.18202006395E+03  0.00000000000E+00 0. -1.
        -12    1    6    6    0    0 -0.45420242469E+02  0.13133788789E+03  0.17680907752E+03  0.22488683624E+03  0.00000000000E+00 0.  1.
</event>
<event>
12    1  0.1081556E+000  0.1383034E+04  0.7818608E-02  0.8966192E-01
          2   -1    0    0  502    0  0.00000000000E+00  0.00000000000E+00  0.20058962634E+04  0.20058962634E+04  0.00000000000E+00 0. -1.
         -2   -1    0    0    0  501 -0.00000000000E+00 -0.00000000000E+00 -0.99710297531E+03  0.99710297531E+03  0.00000000000E+00 0.  1.
          6    2    1    2  502    0 -0.13708423492E+04 -0.58720882437E+02  0.19062354181E+03  0.13958988544E+04  0.17187026728E+03 0.  0.
         24    2    3    3    0    0 -0.13263750001E+04 -0.40076397874E+02  0.20579368935E+03  0.13451328686E+04  0.78451469819E+02 0.  0.
         -6    2    1    2    0  501  0.13708423492E+04  0.58720882437E+02  0.81816974624E+03  0.16071003842E+04  0.17525131373E+03 0.  0.
        -24    2    5    5    0    0  0.28470884170E+03  0.16045842526E+02  0.18595638125E+03  0.34963349242E+03  0.79669377370E+02 0.  0.
          5    1    3    3  502    0 -0.44467349090E+02 -0.18644484563E+02 -0.15170147542E+02  0.50765985819E+02  0.47000000000E+01 0. -1.
        -13    1    4    4    0    0 -0.91120356251E+03  0.87091569923E+01  0.14484436061E+03  0.92268503323E+03  0.00000000000E+00 0.  1.
         14    1    4    4    0    0 -0.41517143759E+03 -0.48785554866E+02  0.60949328737E+02  0.42244783539E+03  0.00000000000E+00 0. -1.
         -5    1    5    5    0  501  0.10861335075E+04  0.42675039911E+02  0.63221336499E+03  0.12574668918E+04  0.47000000000E+01 0.  1.
         11    1    6    6    0    0  0.16701352432E+03  0.40444427655E+02  0.80627206702E+02  0.18981574090E+03  0.00000000000E+00 0. -1.
        -12    1    6    6    0    0  0.11769531739E+03 -0.24398585129E+02  0.10532917455E+03  0.15981775152E+03  0.00000000000E+00 0.  1.
</event>
<event>
12    1  0.1081556E+000  0.2637977E+03  0.7818608E-02  0.1104883E+00
          2   -1    0    0  502    0  0.00000000000E+00  0.00000000000E+00  0.57140322387E+03  0.57140322387E+03  0.00000000000E+00 0. -1.
         -2   -1    0    0    0  501 -0.00000000000E+00 -0.00000000000E+00 -0.42669498390E+03  0.42669498390E+03  0.00000000000E+00 0.  1.
          6    2    1    2  502    0  0.19389514501E+03  0.48145212810E+02 -0.34947350616E+03  0.43811264388E+03  0.17290942266E+03 0.  0.
         24    2    3    3    0    0  0.16495392461E+03  0.82855939024E+02 -0.20667540266E+03  0.28825999254E+03  0.79398975773E+02 0.  0.
         -6    2    1    2    0  501 -0.19389514501E+03 -0.48145212810E+02  0.49418174613E+03  0.55998556388E+03  0.17162442941E+03 0.  0.
        -24    2    5    5    0    0 -0.11863555589E+03 -0.83836297030E+02  0.40570811140E+03  0.43838156193E+03  0.80476098095E+02 0.  0.
          5    1    3    3  502    0  0.28941220401E+02 -0.34710726214E+02 -0.14279810350E+03  0.14985265134E+03  0.47000000000E+01 0. -1.
        -11    1    4    4    0    0  0.26570691408E+02  0.43842903260E+02 -0.87942569225E+02  0.10179438732E+03  0.00000000000E+00 0.  1.
         12    1    4    4    0    0  0.13838323321E+03  0.39013035764E+02 -0.11873283344E+03  0.18646560522E+03  0.00000000000E+00 0. -1.
         -5    1    5    5    0  501 -0.75259589123E+02  0.35691084219E+02  0.88473634729E+02  0.12160400195E+03  0.47000000000E+01 0.  1.
         13    1    6    6    0    0 -0.61724097684E+02 -0.17559228796E+01  0.10851789606E+03  0.12485624240E+03  0.00000000000E+00 0. -1.
        -14    1    6    6    0    0 -0.56911458208E+02 -0.82080374150E+02  0.29719021534E+03  0.31352531954E+03  0.00000000000E+00 0.  1.
</event>
<event>
12    1  0.1081556E+000  0.6488819E+03  0.7818608E-02  0.9808879E-01
          1   -1    0    0  502    0  0.00000000000E+00  0.00000000000E+00  0.12199339564E+04  0.12199339564E+04  0.00000000000E+00 0. -1.
         -1   -1    0    0    0  501 -0.00000000000E+00 -0.00000000000E+00 -0.35092802184E+03  0.35092802184E+03  0.00000000000E+00 0.  1.
          6    2    1    2  502    0 -0.33242492480E+03 -0.53007258706E+03  0.53539468820E+03  0.84126885777E+03  0.17205388901E+03 0.  0.
         24    2    3    3    0    0 -0.25364132854E+03 -0.48910479224E+03  0.43077467855E+03  0.70396389912E+03  0.80255381407E+02 0.  0.
         -6    2    1    2    0  501  0.33242492480E+03  0.53007258706E+03  0.33361124636E+03  0.72959312046E+03  0.17183241706E+03 0.  0.
        -24    2    5    5    0    0  0.34647945231E+03  0.48712059813E+03  0.30379158111E+03  0.67524511653E+03  0.79574836749E+02 0.  0.
          5    1    3    3  502    0 -0.78783596258E+02 -0.40967794815E+02  0.10462000965E+03  0.13730495865E+03  0.47000000000E+01 0. -1.
        -11    1    4    4    0    0 -0.10348622785E+03 -0.22405767934E+03  0.14482966307E+03  0.28615882711E+03  0.00000000000E+00 0.  1.
         12    1    4    4    0    0 -0.15015510069E+03 -0.26504711290E+03  0.28594501548E+03  0.41780507201E+03  0.00000000000E+00 0. -1.
         -5    1    5    5    0  501 -0.14054527510E+02  0.42951988924E+02  0.29819665249E+02  0.54348003934E+02  0.47000000000E+01 0.  1.
         11    1    6    6    0    0  0.27182460318E+03  0.32598494547E+03  0.23180629115E+03  0.48362067386E+03  0.00000000000E+00 0. -1.
        -12    1    6    6    0    0  0.74654849124E+02  0.16113565266E+03  0.71985289964E+02  0.19162444266E+03  0.00000000000E+00 0.  1.
</event>
<event>
12    1  0.1081556E+000  0.4602840E+03  0.7818608E-02  0.1024699E+00
         -1   -1    0    0    0  501 -0.00000000000E+00  0.00000000000E+00  0.93753065913E+03  0.93753065913E+03  0.00000000000E+00 0.  1.
          1   -1    0    0  502    0  0.00000000000E+00 -0.00000000000E+00 -0.23589133744E+03  0.23589133744E+03  0.00000000000E+00 0. -1.
          6    2    1    2  502    0 -0.40635528113E+03  0.13013398386E+03  0.47110127603E+03  0.65863891519E+03  0.17265381569E+03 0.  0.
         24    2    3    3    0    0 -0.36401890510E+03  0.62202475128E+02  0.39133800659E+03  0.54554016292E+03  0.89942886178E+02 0.  0.
         -6    2    1    2    0  501  0.40635528113E+03 -0.13013398386E+03  0.23053804565E+03  0.51478308138E+03  0.17261043458E+03 0.  0.
        -24    2    5    5    0    0  0.36239042372E+03 -0.16093309464E+03  0.21796586704E+03  0.45945096063E+03  0.79748265687E+02 0.  0.
          5    1    3    3  502    0 -0.42336376027E+02  0.67931508734E+02  0.79763269442E+02  0.11309875227E+03  0.47000000000E+01 0. -1.
        -11    1    4    4    0    0 -0.16217373143E+03  0.11673215808E+02  0.11290847310E+03  0.19795177804E+03  0.00000000000E+00 0.  1.
         12    1    4    4    0    0 -0.20184517367E+03  0.50529259320E+02  0.27842953348E+03  0.34758838487E+03  0.00000000000E+00 0. -1.
         -5    1    5    5    0  501  0.43964857409E+02  0.30799110774E+02  0.12572178614E+02  0.55332120749E+02  0.47000000000E+01 0.  1.
         13    1    6    6    0    0  0.12753858136E+03 -0.18709054384E+02  0.54812431956E+02  0.14007327064E+03  0.00000000000E+00 0. -1.
        -14    1    6    6    0    0  0.23485184236E+03 -0.14222404025E+03  0.16315343508E+03  0.31937768999E+03  0.00000000000E+00 0.  1.
</event>
<event>
12    1  0.1081556E+000  0.1870527E+03  0.7818608E-02  0.1161147E+00
          2   -1    0    0  502    0  0.00000000000E+00  0.00000000000E+00  0.69700741400E+02  0.69700741400E+02  0.00000000000E+00 0.  1.
         -2   -1    0    0    0  501 -0.00000000000E+00 -0.00000000000E+00 -0.78474274514E+03  0.78474274514E+03  0.00000000000E+00 0. -1.
          6    2    1    2  502    0  0.55094946846E+02 -0.25839711610E+02 -0.60594281900E+03  0.63236490674E+03  0.17033945965E+03 0.  0.
         24    2    3    3    0    0  0.58247055622E+02  0.44765861418E+02 -0.40923325788E+03  0.42329117771E+03  0.79415741121E+02 0.  0.
         -6    2    1    2    0  501 -0.55094946846E+02  0.25839711610E+02 -0.10909918475E+03  0.22207857981E+03  0.18361132763E+03 0.  0.
        -24    2    5    5    0    0 -0.95665240814E+02 -0.20600162258E+02 -0.49599416219E+02  0.13625944970E+03  0.80810460699E+02 0.  0.
          5    1    3    3  502    0 -0.31521087758E+01 -0.70605573028E+02 -0.19670956112E+03  0.20907372903E+03  0.47000000000E+01 0. -1.
        -13    1    4    4    0    0  0.30315061205E+02  0.47500781442E+02 -0.11860131168E+03  0.13130726676E+03  0.00000000000E+00 0.  1.
         14    1    4    4    0    0  0.27931994416E+02 -0.27349200238E+01 -0.29063194620E+03  0.29198391095E+03  0.00000000000E+00 0. -1.
         -5    1    5    5    0  501  0.40570293969E+02  0.46439873868E+02 -0.59499768526E+02  0.85819130106E+02  0.47000000000E+01 0.  1.
         13    1    6    6    0    0  0.15481833656E+01 -0.15208572892E+02 -0.34496735515E+02  0.37732245127E+02  0.00000000000E+00 0. -1.
        -14    1    6    6    0    0 -0.97213424180E+02 -0.53915893659E+01 -0.15102680705E+02  0.98527204574E+02  0.00000000000E+00 0.  1.
</event>
<event>
12    1  0.1081556E+000  0.3791340E+03  0.7818608E-02  0.1051254E+00
         -1   -1    0    0    0  501 -0.00000000000E+00  0.00000000000E+00  0.31897068522E+03  0.31897068522E+03  0.00000000000E+00 0.  1.
          1   -1    0    0  502    0  0.00000000000E+00 -0.00000000000E+00 -0.57181838601E+03  0.57181838601E+03  0.00000000000E+00 0. -1.
          6    2    1    2  502    0 -0.33008306406E+03  0.71457728519E+02  0.78640566625E+02  0.38707862633E+03  0.17200141888E+03 0.  0.
         24    2    3    3    0    0 -0.55850207764E+02  0.11390119957E+02  0.72398091466E+01  0.97368538071E+02  0.78608121907E+02 0.  0.
         -6    2    1    2    0  501  0.33008306406E+03 -0.71457728519E+02 -0.33148826741E+03  0.50371044490E+03  0.17256507390E+03 0.  0.
        -24    2    5    5    0    0  0.13061305800E+03  0.26219613502E+02 -0.16249840770E+03  0.22458894959E+03  0.79292021793E+02 0.  0.
          5    1    3    3  502    0 -0.27423285629E+03  0.60067608562E+02  0.71400757478E+02  0.28971008826E+03  0.47000000000E+01 0. -1.
        -13    1    4    4    0    0 -0.56420554227E+01 -0.13669194148E+02  0.32594242873E+02  0.35791958965E+02  0.00000000000E+00 0.  1.
         14    1    4    4    0    0 -0.50208152341E+02  0.25059314105E+02 -0.25354433727E+02  0.61576579107E+02  0.00000000000E+00 0. -1.
         -5    1    5    5    0  501  0.19947000606E+03 -0.97677342021E+02 -0.16898985971E+03  0.27912149531E+03  0.47000000000E+01 0.  1.
         13    1    6    6    0    0  0.65747329674E+02 -0.20415079722E+02 -0.10729411309E+03  0.12748142430E+03  0.00000000000E+00 0. -1.
        -14    1    6    6    0    0  0.64865728323E+02  0.46634693224E+02 -0.55204294615E+02  0.97107525285E+02  0.00000000000E+00 0.  1.
</event>
<event>
12    1  0.1081556E+000  0.2322825E+03  0.7818608E-02  0.1125044E+00
          2   -1    0    0  502    0  0.00000000000E+00  0.00000000000E+00  0.18637025651E+03  0.18637025651E+03  0.00000000000E+00 0. -1.
         -2   -1    0    0    0  501 -0.00000000000E+00 -0.00000000000E+00 -0.29010693387E+03  0.29010693387E+03  0.00000000000E+00 0.  1.
          6    2    1    2  502    0  0.29482015897E+02 -0.15325429727E+03 -0.62743404745E+02  0.24071425269E+03  0.17219334399E+03 0.  0.
         24    2    3    3    0    0 -0.29572048473E+02 -0.14933149597E+03 -0.34629551866E+02  0.17502369315E+03  0.79118174661E+02 0.  0.
         -6    2    1    2    0  501 -0.29482015897E+02  0.15325429727E+03 -0.40993272607E+02  0.23576293769E+03  0.17189428582E+03 0.  0.
        -24    2    5    5    0    0 -0.32884564189E+02  0.17361694494E+03 -0.64698211404E+02  0.20397883980E+03  0.78722743824E+02 0.  0.
          5    1    3    3  502    0  0.59054064370E+02 -0.39228012978E+01 -0.28113852878E+02  0.65690559537E+02  0.47000000000E+01 0. -1.
        -13    1    4    4    0    0 -0.99793629452E+01 -0.53745625169E+02 -0.52540635050E+02  0.75820170410E+02  0.00000000000E+00 0.  1.
         14    1    4    4    0    0 -0.19592685528E+02 -0.95585870804E+02  0.17911083183E+02  0.99203522741E+02  0.00000000000E+00 0. -1.
         -5    1    5    5    0  501  0.34025482915E+01 -0.20362647674E+02  0.23704938797E+02  0.31784097887E+02  0.47000000000E+01 0.  1.
         13    1    6    6    0    0  0.99722379607E+01  0.12278959080E+03 -0.22494701734E+02  0.12523075000E+03  0.00000000000E+00 0. -1.
        -14    1    6    6    0    0 -0.42856802149E+02  0.50827354145E+02 -0.42203509670E+02  0.78748089807E+02  0.00000000000E+00 0.  1.
</event>
<event>
12    1  0.1081556E+000  0.5495090E+03  0.7818608E-02  0.1001608E+00
         -2   -1    0    0    0  501 -0.00000000000E+00  0.00000000000E+00  0.97871850284E+02  0.97871850284E+02  0.00000000000E+00 0.  1.
          2   -1    0    0  502    0  0.00000000000E+00 -0.00000000000E+00 -0.30988241059E+04  0.30988241059E+04  0.00000000000E+00 0. -1.
          6    2    1    2  502    0  0.36724459924E+03 -0.37289550239E+03 -0.13970392423E+04  0.15015334634E+04  0.17018944056E+03 0.  0.
         24    2    3    3    0    0  0.36900594618E+03 -0.37723842687E+03 -0.13169216467E+04  0.14211414087E+04  0.82982292039E+02 0.  0.
         -6    2    1    2    0  501 -0.36724459924E+03  0.37289550239E+03 -0.16039130133E+04  0.16951624928E+04  0.16467929874E+03 0.  0.
        -24    2    5    5    0    0 -0.80425858685E+02  0.12766528310E+03 -0.50938367111E+03  0.53739765430E+03  0.80980066668E+02 0.  0.
          5    1    3    3  502    0 -0.17613469427E+01  0.43429244790E+01 -0.80117595602E+02  0.80392054714E+02  0.47000000000E+01 0. -1.
        -11    1    4    4    0    0  0.32389021729E+03 -0.28552693132E+03 -0.10801240637E+04  0.11632276193E+04  0.00000000000E+00 0.  1.
         12    1    4    4    0    0  0.45115728890E+02 -0.91711495543E+02 -0.23679758303E+03  0.25791378935E+03  0.00000000000E+00 0. -1.
         -5    1    5    5    0  501 -0.28681874055E+03  0.24523021928E+03 -0.10945293422E+04  0.11577648385E+04  0.47000000000E+01 0.  1.
         13    1    6    6    0    0 -0.33988852029E+02  0.95080934777E+02 -0.41646336602E+03  0.42852930058E+03  0.00000000000E+00 0. -1.
        -14    1    6    6    0    0 -0.46437006656E+02  0.32584348328E+02 -0.92920305088E+02  0.10886835372E+03  0.00000000000E+00 0.  1.
</event>
<event>
12    1  0.1081556E+000  0.5068598E+03  0.7818608E-02  0.1012004E+00
         -1   -1    0    0    0  501 -0.00000000000E+00  0.00000000000E+00  0.28930679109E+03  0.28930679109E+03  0.00000000000E+00 0.  1.
          1   -1    0    0  502    0  0.00000000000E+00 -0.00000000000E+00 -0.90032031507E+03  0.90032031507E+03  0.00000000000E+00 0. -1.
          6    2    1    2  502    0  0.42390105766E+03 -0.21541118707E+03 -0.37458075785E+03  0.62960629881E+03  0.17320294786E+03 0.  0.
         24    2    3    3    0    0  0.43269289421E+03 -0.19290243063E+03 -0.35973604678E+03  0.60085919541E+03  0.84777714750E+02 0.  0.
         -6    2    1    2    0  501 -0.42390105766E+03  0.21541118707E+03 -0.23643276612E+03  0.56002080735E+03  0.17784477943E+03 0.  0.
        -24    2    5    5    0    0 -0.37845290030E+03  0.21019179848E+03 -0.25699761310E+03  0.50964442443E+03  0.79262073672E+02 0.  0.
          5    1    3    3  502    0 -0.87918365540E+01 -0.22508756447E+02 -0.14844711078E+02  0.28747103398E+02  0.47000000000E+01 0. -1.
        -11    1    4    4    0    0  0.54179929171E+02 -0.45865565105E+02 -0.84212598539E+02  0.11014025849E+03  0.00000000000E+00 0.  1.
         12    1    4    4    0    0  0.37851296504E+03 -0.14703686552E+03 -0.27552344824E+03  0.49071893692E+03  0.00000000000E+00 0. -1.
         -5    1    5    5    0  501 -0.45448157358E+02  0.52193885932E+01  0.20564846978E+02  0.50376382917E+02  0.47000000000E+01 0.  1.
         13    1    6    6    0    0 -0.27846177803E+03  0.14150752450E+03 -0.14433909095E+03  0.34409172395E+03  0.00000000000E+00 0. -1.
        -14    1    6    6    0    0 -0.99991122275E+02  0.68684273975E+02 -0.11265852215E+03  0.16555270049E+03  0.00000000000E+00 0.  1.
</event>
<event>
12    1  0.1081556E+000  0.3154812E+03  0.7818608E-02  0.1077748E+00
          2   -1    0    0  502    0  0.00000000000E+00  0.00000000000E+00  0.16039955258E+04  0.16039955258E+04  0.00000000000E+00 0. -1.
         -2   -1    0    0    0  501 -0.00000000000E+00 -0.00000000000E+00 -0.20210777332E+03  0.20210777332E+03  0.00000000000E+00 0.  1.
          6    2    1    2  502    0  0.17010136490E+03  0.20254207503E+03 -0.50808837195E+02  0.31954452381E+03  0.17195754786E+03 0.  0.
         24    2    3    3    0    0  0.18290825783E+03  0.20627816740E+03 -0.72865571651E+02  0.29334214934E+03  0.68804882963E+02 0.  0.
         -6    2    1    2    0  501 -0.17010136490E+03 -0.20254207503E+03  0.14526965897E+04  0.14865587754E+04  0.17196465998E+03 0.  0.
        -24    2    5    5    0    0 -0.89532315417E+02 -0.18964013511E+03  0.11999229480E+04  0.12209002808E+04  0.82480289287E+02 0.  0.
          5    1    3    3  502    0 -0.12806892934E+02 -0.37360923755E+01  0.22056734456E+02  0.26202374468E+02  0.47000000000E+01 0. -1.
        -11    1    4    4    0    0  0.85850705680E+02  0.48127735931E+02 -0.30091361425E+02  0.10291798999E+03  0.00000000000E+00 0.  1.
         12    1    4    4    0    0  0.97057552150E+02  0.15815043147E+03 -0.42774210226E+02  0.19042415935E+03  0.00000000000E+00 0. -1.
         -5    1    5    5    0  501 -0.80569049479E+02 -0.12901939916E+02  0.25277364172E+03  0.26565849457E+03  0.47000000000E+01 0.  1.
         13    1    6    6    0    0 -0.69936202146E+02 -0.15191846074E+03  0.72320422770E+03  0.74229013602E+03  0.00000000000E+00 0. -1.
        -14    1    6    6    0    0 -0.19596113271E+02 -0.37721674374E+02  0.47671872031E+03  0.47861014476E+03  0.00000000000E+00 0.  1.
</event>
<event>
12    1  0.1081556E+000  0.1780986E+03  0.7818608E-02  0.1169656E+00
         -1   -1    0    0    0  501 -0.00000000000E+00  0.00000000000E+00  0.35028214442E+02  0.35028214442E+02  0.00000000000E+00 0.  1.
          1   -1    0    0  502    0  0.00000000000E+00 -0.00000000000E+00 -0.20764255394E+04  0.20764255394E+04  0.00000000000E+00 0. -1.
          6    2    1    2  502    0  0.13369709564E+01 -0.44773955162E+02 -0.22811712055E+03  0.28945594749E+03  0.17245529942E+03 0.  0.
         24    2    3    3    0    0  0.30104686521E+02 -0.20763260648E+02 -0.23527880578E+03  0.25101801512E+03  0.79476552034E+02 0.  0.
         -6    2    1    2    0  501 -0.13369709564E+01  0.44773955162E+02 -0.18132802044E+04  0.18219978064E+04  0.17229164840E+03 0.  0.
        -24    2    5    5    0    0  0.22212224202E+02  0.80532332152E+02 -0.16142273254E+04  0.16183378821E+04  0.79427973992E+02 0.  0.
          5    1    3    3  502    0 -0.28767715565E+02 -0.24010694513E+02  0.71616852233E+01  0.38437932373E+02  0.47000000000E+01 0. -1.
        -11    1    4    4    0    0  0.40887872921E+02 -0.31643052820E+02 -0.81752271274E+02  0.96729182785E+02  0.00000000000E+00 0.  1.
         12    1    4    4    0    0 -0.10783186400E+02  0.10879792172E+02 -0.15352653450E+03  0.15428883233E+03  0.00000000000E+00 0. -1.
         -5    1    5    5    0  501 -0.23549195158E+02 -0.35758376990E+02 -0.19905287902E+03  0.20365992430E+03  0.47000000000E+01 0.  1.
         13    1    6    6    0    0  0.41057770326E+02  0.10190579328E+02 -0.63295708313E+03  0.63436918076E+03  0.00000000000E+00 0. -1.
        -14    1    6    6    0    0 -0.18845546124E+02  0.70341752824E+02 -0.98127024228E+03  0.98396870132E+03  0.00000000000E+00 0.  1.
</event>
<event>
12    1  0.1081556E+000  0.3263783E+03  0.7818608E-02  0.1072751E+00
         -1   -1    0    0    0  501 -0.00000000000E+00  0.00000000000E+00  0.23343836472E+03  0.23343836472E+03  0.00000000000E+00 0.  1.
          1   -1    0    0  502    0  0.00000000000E+00 -0.00000000000E+00 -0.54484581492E+03  0.54484581492E+03  0.00000000000E+00 0. -1.
          6    2    1    2  502    0  0.26877907006E+03 -0.68370859663E+02  0.11314611430E+01  0.32643539897E+03  0.17216859919E+03 0.  0.
         24    2    3    3    0    0  0.17831513571E+03  0.20214167190E+02  0.25281318412E+02  0.19745347774E+03  0.78382591375E+02 0.  0.
         -6    2    1    2    0  501 -0.26877907006E+03  0.68370859663E+02 -0.31253891134E+03  0.45184878067E+03  0.17195925838E+03 0.  0.
        -24    2    5    5    0    0 -0.26332681999E+03  0.87620534617E+02 -0.31822486910E+03  0.43052515217E+03  0.84062281239E+02 0.  0.
          5    1    3    3  502    0  0.90463934341E+02 -0.88585026853E+02 -0.24149857269E+02  0.12898192123E+03  0.47000000000E+01 0. -1.
        -11    1    4    4    0    0  0.11757341739E+03 -0.23069383206E+02  0.27115539866E+02  0.12284525803E+03  0.00000000000E+00 0.  1.
         12    1    4    4    0    0  0.60741718327E+02  0.43283550396E+02 -0.18342214536E+01  0.74608219711E+02  0.00000000000E+00 0. -1.
         -5    1    5    5    0  501 -0.54522500660E+01 -0.19249674954E+02  0.56859577618E+01  0.21323628497E+02  0.47000000000E+01 0.  1.
         13    1    6    6    0    0 -0.23632318469E+03  0.10319295251E+03 -0.29385209601E+03  0.39095586374E+03  0.00000000000E+00 0. -1.
        -14    1    6    6    0    0 -0.27003635300E+02 -0.15572417892E+02 -0.24372773095E+02  0.39569288429E+02  0.00000000000E+00 0.  1.
</event>
<event>
12    1  0.1081556E+000  0.1958563E+03  0.7818608E-02  0.1153283E+00
         -4   -1    0    0    0  501 -0.00000000000E+00  0.00000000000E+00  0.41695664667E+02  0.41695664667E+02  0.00000000000E+00 0.  1.
          4   -1    0    0  502    0  0.00000000000E+00 -0.00000000000E+00 -0.11057303270E+04  0.11057303270E+04  0.00000000000E+00 0. -1.
          6    2    1    2  502    0  0.14927034663E+02 -0.93252010496E+02 -0.29428602609E+03  0.35286379899E+03  0.17026403512E+03 0.  0.
         24    2    3    3    0    0  0.68970880930E+02 -0.90215317531E+02 -0.19081695106E+03  0.23599678776E+03  0.79922394174E+02 0.  0.
         -6    2    1    2    0  501 -0.14927034663E+02  0.93252010496E+02 -0.76974863620E+03  0.79456219264E+03  0.17290853425E+03 0.  0.
        -24    2    5    5    0    0  0.95004756438E+01  0.97715550683E+02 -0.31722010291E+03  0.34132848925E+03  0.78980731812E+02 0.  0.
          5    1    3    3  502    0 -0.54043846267E+02 -0.30366929658E+01 -0.10346907503E+03  0.11686701122E+03  0.47000000000E+01 0. -1.
        -11    1    4    4    0    0  0.36166595910E+02 -0.40519165732E+02 -0.24957719942E+02  0.59772177776E+02  0.00000000000E+00 0.  1.
         12    1    4    4    0    0  0.32804285020E+02 -0.49696151799E+02 -0.16585923111E+03  0.17622460999E+03  0.00000000000E+00 0. -1.
         -5    1    5    5    0  501 -0.24427510307E+02 -0.44635401864E+01 -0.45252853329E+03  0.45323370339E+03  0.47000000000E+01 0.  1.
         11    1    6    6    0    0  0.28516229625E+01  0.43411957826E+02 -0.25410507348E+03  0.25780247905E+03  0.00000000000E+00 0. -1.
        -12    1    6    6    0    0  0.66488526813E+01  0.54303592857E+02 -0.63115029427E+02  0.83526010192E+02  0.00000000000E+00 0.  1.
</event>
<event>
12    1  0.1081556E+000  0.2964070E+03  0.7818608E-02  0.1087051E+00
          2   -1    0    0  502    0  0.00000000000E+00  0.00000000000E+00  0.19576694006E+04  0.19576694006E+04  0.00000000000E+00 0. -1.
         -2   -1    0    0    0  501 -0.00000000000E+00 -0.00000000000E+00 -0.48882858945E+02  0.48882858945E+02  0.00000000000E+00 0.  1.
          6    2    1    2  502    0 -0.83401633040E+02  0.22313269987E+03  0.65738239779E+03  0.71972828089E+03  0.17062575198E+03 0.  0.
         24    2    3    3    0    0 -0.71656786020E+02  0.11176874743E+03  0.22071182327E+03  0.26890331265E+03  0.77254998141E+02 0.  0.
         -6    2    1    2    0  501  0.83401633040E+02 -0.22313269987E+03  0.12514041439E+04  0.12868239787E+04  0.18209773922E+03 0.  0.
        -24    2    5    5    0    0  0.76069028811E+02 -0.24717585287E+03  0.10655340923E+04  0.10992030674E+04  0.77473105245E+02 0.  0.
          5    1    3    3  502    0 -0.11744847020E+02  0.11136395244E+03  0.43667057452E+03  0.45082496824E+03  0.47000000000E+01 0. -1.
        -13    1    4    4    0    0 -0.31351580193E+02  0.83962956089E+02  0.19262241247E+03  0.21245256732E+03  0.00000000000E+00 0.  1.
         14    1    4    4    0    0 -0.40305205827E+02  0.27805791344E+02  0.28089410799E+02  0.56450745328E+02  0.00000000000E+00 0. -1.
         -5    1    5    5    0  501  0.73326042289E+01  0.24043153001E+02  0.18587005161E+03  0.18762091135E+03  0.47000000000E+01 0.  1.
         13    1    6    6    0    0  0.67905395093E+02 -0.17555362089E+03  0.62226275215E+03  0.65010856724E+03  0.00000000000E+00 0. -1.
        -14    1    6    6    0    0  0.81636337177E+01 -0.71622231981E+02  0.44327134015E+03  0.44909450011E+03  0.00000000000E+00 0.  1.
</event>
<event>
12    1  0.1081556E+000  0.1719361E+03  0.7818608E-02  0.1175844E+00
         -2   -1    0    0    0  501 -0.00000000000E+00  0.00000000000E+00  0.39365318742E+03  0.39365318742E+03  0.00000000000E+00 0.  1.
          2   -1    0    0  502    0  0.00000000000E+00 -0.00000000000E+00 -0.31216386365E+03  0.31216386365E+03  0.00000000000E+00 0. -1.
          6    2    1    2  502    0 -0.89448062365E+01 -0.87773369864E+01  0.34826405559E+03  0.38821067564E+03  0.17106321949E+03 0.  0.
         24    2    3    3    0    0 -0.12127870450E+02  0.59938677212E+02  0.23519574992E+03  0.25577746888E+03  0.79783096836E+02 0.  0.
         -6    2    1    2    0  501  0.89448062365E+01  0.87773369864E+01 -0.26677473181E+03  0.31760637543E+03  0.17189531982E+03 0.  0.
        -24    2    5    5    0    0  0.21476984080E+02  0.65674918004E+02 -0.21547484266E+03  0.23983646586E+03  0.79483752030E+02 0.  0.
          5    1    3    3  502    0  0.31830642132E+01 -0.68716014198E+02  0.11306830567E+03  0.13243320676E+03  0.47000000000E+01 0. -1.
        -13    1    4    4    0    0  0.71576299244E-01  0.27326052360E+02  0.21242002146E+03  0.21417045496E+03  0.00000000000E+00 0.  1.
         14    1    4    4    0    0 -0.12199446749E+02  0.32612624851E+02  0.22775728457E+02  0.41607013921E+02  0.00000000000E+00 0. -1.
         -5    1    5    5    0  501 -0.12532177843E+02 -0.56897581017E+02 -0.51299889159E+02  0.77769909572E+02  0.47000000000E+01 0.  1.
         13    1    6    6    0    0 -0.12907931596E+02  0.16703996552E+02 -0.14863087479E+03  0.15012253375E+03  0.00000000000E+00 0. -1.
        -14    1    6    6    0    0  0.34384915676E+02  0.48970921451E+02 -0.66843967868E+02  0.89713932108E+02  0.00000000000E+00 0.  1.
</event>
<event>
12    1  0.1081556E+000  0.4911996E+03  0.7818608E-02  0.1016102E+00
         -2   -1    0    0    0  501 -0.00000000000E+00  0.00000000000E+00  0.69432326106E+03  0.69432326106E+03  0.00000000000E+00 0.  1.
          2   -1    0    0  502    0  0.00000000000E+00 -0.00000000000E+00 -0.68603491407E+03  0.68603491407E+03  0.00000000000E+00 0. -1.
          6    2    1    2  502    0 -0.45917664882E+03  0.29605071379E+02  0.48897625616E+03  0.69321520085E+03  0.17242354981E+03 0.  0.
         24    2    3    3    0    0 -0.41647891995E+03  0.68471188665E+02  0.45603442530E+03  0.62657493267E+03  0.80534183701E+02 0.  0.
         -6    2    1    2    0  501  0.45917664882E+03 -0.29605071379E+02 -0.48068790917E+03  0.68714297427E+03  0.17142037801E+03 0.  0.
        -24    2    5    5    0    0  0.40614948073E+03  0.25325396309E+02 -0.40499154612E+03  0.57952668269E+03  0.78957248676E+02 0.  0.
          5    1    3    3  502    0 -0.42697728867E+02 -0.38866117286E+02  0.32941830860E+02  0.66640268184E+02  0.47000000000E+01 0. -1.
        -13    1    4    4    0    0 -0.38439001289E+02 -0.66689444068E+01  0.75271307030E+02  0.84780901750E+02  0.00000000000E+00 0.  1.
         14    1    4    4    0    0 -0.37803991866E+03  0.75140133072E+02  0.38076311827E+03  0.54179403092E+03  0.00000000000E+00 0. -1.
         -5    1    5    5    0  501  0.53027168086E+02 -0.54930467688E+02 -0.75696363055E+02  0.10761629159E+03  0.47000000000E+01 0.  1.
         11    1    6    6    0    0  0.41680445902E+02  0.16493326238E+02 -0.19318582906E+02  0.48810828988E+02  0.00000000000E+00 0. -1.
        -12    1    6    6    0    0  0.36446903483E+03  0.88320700710E+01 -0.38567296321E+03  0.53071585370E+03  0.00000000000E+00 0.  1.
</event>
<event>
12    1  0.1081556E+000  0.1213735E+04  0.7818608E-02  0.9100918E-01
          2   -1    0    0  502    0  0.00000000000E+00  0.00000000000E+00  0.30802779369E+04  0.30802779369E+04  0.00000000000E+00 0. -1.
         -2   -1    0    0    0  501 -0.00000000000E+00 -0.00000000000E+00 -0.48426321675E+03  0.48426321675E+03  0.00000000000E+00 0.  1.
          6    2    1    2  502    0 -0.90734711223E+03 -0.78713049508E+03  0.10998242738E+04  0.16381688669E+04  0.17643867209E+03 0.  0.
         24    2    3    3    0    0 -0.87256362189E+03 -0.77035232332E+03  0.10215438207E+04  0.15507542367E+04  0.80479492387E+02 0.  0.
         -6    2    1    2    0  501  0.90734711223E+03  0.78713049508E+03  0.14961904463E+04  0.19263722867E+04  0.17167159593E+03 0.  0.
        -24    2    5    5    0    0  0.82824948620E+03  0.67124855547E+03  0.13670881185E+04  0.17356511305E+04  0.83564875360E+02 0.  0.
          5    1    3    3  502    0 -0.34783490339E+02 -0.16778171763E+02  0.78280453026E+02  0.87414630205E+02  0.47000000000E+01 0. -1.
        -11    1    4    4    0    0 -0.52238576898E+03 -0.51304089911E+03  0.64326081867E+03  0.97461907257E+03  0.00000000000E+00 0.  1.
         12    1    4    4    0    0 -0.35017785292E+03 -0.25731142421E+03  0.37828300208E+03  0.57613516414E+03  0.00000000000E+00 0. -1.
         -5    1    5    5    0  501  0.79097626029E+02  0.11588193961E+03  0.12910232785E+03  0.19072115621E+03  0.47000000000E+01 0.  1.
         13    1    6    6    0    0  0.24614733020E+03  0.21472566592E+03  0.47972812915E+03  0.58037461839E+03  0.00000000000E+00 0. -1.
        -14    1    6    6    0    0  0.58210215600E+03  0.45652288956E+03  0.88735998934E+03  0.11552765121E+04  0.00000000000E+00 0.  1.
</event>
<event>
12    1  0.1081556E+000  0.2766656E+03  0.7818608E-02  0.1097524E+00
          1   -1    0    0  502    0  0.00000000000E+00  0.00000000000E+00  0.12369941075E+03  0.12369941075E+03  0.00000000000E+00 0. -1.
         -1   -1    0    0    0  501 -0.00000000000E+00 -0.00000000000E+00 -0.65981038502E+03  0.65981038502E+03  0.00000000000E+00 0.  1.
          6    2    1    2  502    0  0.18244963340E+02  0.21519722491E+03 -0.36593709487E+03  0.45888629238E+03  0.17327419784E+03 0.  0.
         24    2    3    3    0    0 -0.25293088916E+01  0.23563434252E+03 -0.32293341282E+03  0.40672641476E+03  0.74902914346E+02 0.  0.
         -6    2    1    2    0  501 -0.18244963340E+02 -0.21519722491E+03 -0.17017387941E+03  0.32462350339E+03  0.17256461232E+03 0.  0.
        -24    2    5    5    0    0  0.34896397216E+02 -0.45199064464E+02 -0.54667175020E+02  0.11228587715E+03  0.79742737703E+02 0.  0.
          5    1    3    3  502    0  0.20774272231E+02 -0.20437117605E+02 -0.43003682056E+02  0.52159877618E+02  0.47000000000E+01 0. -1.
        -11    1    4    4    0    0 -0.20394839642E+01  0.26716255706E+01 -0.40374544884E+02  0.40514206800E+02  0.00000000000E+00 0.  1.
         12    1    4    4    0    0 -0.48982492733E+00  0.23296271695E+03 -0.28255886793E+03  0.36621220796E+03  0.00000000000E+00 0. -1.
         -5    1    5    5    0  501 -0.53141360556E+02 -0.16999816045E+03 -0.11550670438E+03  0.21233762624E+03  0.47000000000E+01 0.  1.
         13    1    6    6    0    0 -0.19976238209E+02 -0.33333846683E+02 -0.36404682524E+02  0.53249378751E+02  0.00000000000E+00 0. -1.
        -14    1    6    6    0    0  0.54872635425E+02 -0.11865217781E+02 -0.18262492496E+02  0.59036498403E+02  0.00000000000E+00 0.  1.
</event>
<event>
12    1  0.1081556E+000  0.2742576E+03  0.7818608E-02  0.1098867E+00
         -2   -1    0    0    0  501 -0.00000000000E+00  0.00000000000E+00  0.17763160273E+04  0.17763160273E+04  0.00000000000E+00 0.  1.
          2   -1    0    0  502    0  0.00000000000E+00 -0.00000000000E+00 -0.57108106410E+02  0.57108106410E+02  0.00000000000E+00 0. -1.
          6    2    1    2  502    0 -0.20846552747E+03  0.27523446499E+02  0.13202392230E+04  0.13479554179E+04  0.17244357512E+03 0.  0.
         24    2    3    3    0    0 -0.21607011487E+03  0.52614624194E+02  0.10338386769E+04  0.10603189117E+04  0.77454446943E+02 0.  0.
         -6    2    1    2    0  501  0.20846552747E+03 -0.27523446499E+02  0.39896869796E+03  0.48546871582E+03  0.17968983232E+03 0.  0.
        -24    2    5    5    0    0  0.82137953602E+02 -0.10014756904E+02  0.76745450630E+02  0.13889243093E+03  0.80958658581E+02 0.  0.
          5    1    3    3  502    0  0.76045874054E+01 -0.25091177696E+02  0.28640054604E+03  0.28763650624E+03  0.47000000000E+01 0. -1.
        -11    1    4    4    0    0 -0.17049075260E+03  0.26829631312E+02  0.90381317903E+03  0.92014411286E+03  0.00000000000E+00 0.  1.
         12    1    4    4    0    0 -0.45579362277E+02  0.25784992883E+02  0.13002549788E+03  0.14017479882E+03  0.00000000000E+00 0. -1.
         -5    1    5    5    0  501  0.12632757387E+03 -0.17508689594E+02  0.32222324733E+03  0.34657628489E+03  0.47000000000E+01 0.  1.
         11    1    6    6    0    0  0.93752551719E+02 -0.46935558515E+01  0.43857159599E+02  0.10360994580E+03  0.00000000000E+00 0. -1.
        -12    1    6    6    0    0 -0.11614598117E+02 -0.53212010528E+01  0.32888291031E+02  0.35282485131E+02  0.00000000000E+00 0.  1.
</event>
<event>
12    1  0.1081556E+000  0.5887336E+03  0.7818608E-02  0.9929060E-01
         -1   -1    0    0    0  501 -0.00000000000E+00  0.00000000000E+00  0.48476175228E+03  0.48476175228E+03  0.00000000000E+00 0.  1.
          1   -1    0    0  502    0  0.00000000000E+00 -0.00000000000E+00 -0.11287302665E+04  0.11287302665E+04  0.00000000000E+00 0. -1.
          6    2    1    2  502    0  0.52503285709E+03 -0.20383313920E+03  0.16642574222E+03  0.61184525486E+03  0.17160896993E+03 0.  0.
         24    2    3    3    0    0  0.38746576644E+03 -0.21168467321E+03  0.14909876248E+03  0.47288963157E+03  0.80337050213E+02 0.  0.
         -6    2    1    2    0  501 -0.52503285709E+03  0.20383313920E+03 -0.81039425643E+03  0.10016467639E+04  0.17131823936E+03 0.  0.
        -24    2    5    5    0    0 -0.44407501319E+03  0.15960777321E+03 -0.75414954845E+03  0.89350050803E+03  0.83212726252E+02 0.  0.
          5    1    3    3  502    0  0.13756709065E+03  0.78515340183E+01  0.17326979740E+02  0.13895562329E+03  0.47000000000E+01 0. -1.
        -11    1    4    4    0    0  0.27211270755E+03 -0.10563257052E+03  0.10334847310E+03  0.30965217980E+03  0.00000000000E+00 0.  1.
         12    1    4    4    0    0  0.11535305889E+03 -0.10605210269E+03  0.45750289382E+02  0.16323745177E+03  0.00000000000E+00 0. -1.
         -5    1    5    5    0  501 -0.80957843899E+02  0.44225365984E+02 -0.56244707977E+02  0.10814625588E+03  0.47000000000E+01 0.  1.
         11    1    6    6    0    0 -0.27432628547E+03  0.58446013178E+02 -0.47164411967E+03  0.54874313023E+03  0.00000000000E+00 0. -1.
        -12    1    6    6    0    0 -0.16974872772E+03  0.10116176003E+03 -0.28250542878E+03  0.34475737780E+03  0.00000000000E+00 0.  1.
</event>
<event>
12    1  0.1081556E+000  0.1723778E+03  0.7818608E-02  0.1175391E+00
         -1   -1    0    0    0  501 -0.00000000000E+00  0.00000000000E+00  0.79027552657E+02  0.79027552657E+02  0.00000000000E+00 0. -1.
          1   -1    0    0  502    0  0.00000000000E+00 -0.00000000000E+00 -0.37703405339E+03  0.37703405339E+03  0.00000000000E+00 0.  1.
          6    2    1    2  502    0  0.80844355485E+01  0.66365665809E+01 -0.13755815839E+03  0.22098255322E+03  0.17263151444E+03 0.  0.
         24    2    3    3    0    0  0.71781087917E+02  0.90710354332E+01 -0.87950629323E+02  0.14007404254E+03  0.81551308563E+02 0.  0.
         -6    2    1    2    0  501 -0.80844355485E+01 -0.66365665809E+01 -0.16044834235E+03  0.23507905283E+03  0.17149078226E+03 0.  0.
        -24    2    5    5    0    0 -0.49562106612E+02 -0.29336676993E+02 -0.16029351307E+03  0.18756267479E+03  0.78541095060E+02 0.  0.
          5    1    3    3  502    0 -0.63696652369E+02 -0.24344688523E+01 -0.49607529063E+02  0.80908510685E+02  0.47000000000E+01 0. -1.
        -11    1    4    4    0    0 -0.72526975174E+00  0.31349822314E+01 -0.63123343553E+02  0.63205305404E+02  0.00000000000E+00 0.  1.
         12    1    4    4    0    0  0.72506357669E+02  0.59360532018E+01 -0.24827285770E+02  0.76868737135E+02  0.00000000000E+00 0. -1.
         -5    1    5    5    0  501  0.41477671063E+02  0.22700110412E+02 -0.15482928050E+00  0.47516378036E+02  0.47000000000E+01 0.  1.
         13    1    6    6    0    0 -0.54220042714E+02  0.11150694798E+02 -0.10701844236E+03  0.12048692058E+03  0.00000000000E+00 0. -1.
        -14    1    6    6    0    0  0.46579361023E+01 -0.40487371791E+02 -0.53275070709E+02  0.67075754206E+02  0.00000000000E+00 0.  1.
</event>
<event>
12    1  0.1081556E+000  0.5767221E+03  0.7818608E-02  0.9954913E-01
         -1   -1    0    0    0  501 -0.00000000000E+00  0.00000000000E+00  0.82407445230E+03  0.82407445230E+03  0.00000000000E+00 0.  1.
          1   -1    0    0  502    0  0.00000000000E+00 -0.00000000000E+00 -0.46787454418E+03  0.46787454418E+03  0.00000000000E+00 0. -1.
          6    2    1    2  502    0  0.40428866001E+03  0.37381378621E+03 -0.61282319731E+02  0.58002920945E+03  0.17173320509E+03 0.  0.
         24    2    3    3    0    0  0.26676060155E+03  0.21995983999E+03 -0.10358926582E+03  0.36932332126E+03  0.78265125606E+02 0.  0.
         -6    2    1    2    0  501 -0.40428866001E+03 -0.37381378621E+03  0.41748222785E+03  0.71191978704E+03  0.17132514477E+03 0.  0.
        -24    2    5    5    0    0 -0.38635042209E+03 -0.29294974200E+03  0.33579463373E+03  0.59549072255E+03  0.82249404895E+02 0.  0.
          5    1    3    3  502    0  0.13752805846E+03  0.15385394622E+03  0.42306946086E+02  0.21070588819E+03  0.47000000000E+01 0. -1.
        -13    1    4    4    0    0  0.18196386511E+03  0.12115837639E+03 -0.32599082701E+02  0.22102692272E+03  0.00000000000E+00 0.  1.
         14    1    4    4    0    0  0.84796736439E+02  0.98801463597E+02 -0.70990183117E+02  0.14829639853E+03  0.00000000000E+00 0. -1.
         -5    1    5    5    0  501 -0.17938237914E+02 -0.80864044201E+02  0.81687594125E+02  0.11642906449E+03  0.47000000000E+01 0.  1.
         11    1    6    6    0    0 -0.33952794155E+03 -0.28521210005E+03  0.31352290355E+03  0.54306700890E+03  0.00000000000E+00 0. -1.
        -12    1    6    6    0    0 -0.46822480540E+02 -0.77376419566E+01  0.22271730181E+02  0.52423713644E+02  0.00000000000E+00 0.  1.
</event>
<event>
12    1  0.1081556E+000  0.3355323E+03  0.7818608E-02  0.1068715E+00
          2   -1    0    0  502    0  0.00000000000E+00  0.00000000000E+00  0.15105342639E+04  0.15105342639E+04  0.00000000000E+00 0. -1.
         -2   -1    0    0    0  501 -0.00000000000E+00 -0.00000000000E+00 -0.12972890134E+04  0.12972890134E+04  0.00000000000E+00 0.  1.
          6    2    1    2  502    0  0.66792094783E+02  0.28023896923E+03 -0.12563631751E+04  0.13004093980E+04  0.17210784680E+03 0.  0.
         24    2    3    3    0    0  0.16007838738E+02  0.13026530923E+03 -0.38916710865E+03  0.41886402369E+03  0.82284446854E+02 0.  0.
         -6    2    1    2    0  501 -0.66792094783E+02 -0.28023896923E+03  0.14696084256E+04  0.15074138793E+04  0.17190874045E+03 0.  0.
        -24    2    5    5    0    0 -0.58068138530E+02 -0.13975040337E+03  0.52805814003E+03  0.55538857772E+03  0.81908418703E+02 0.  0.
          5    1    3    3  502    0  0.50784256046E+02  0.14997366000E+03 -0.86719606640E+03  0.88154537429E+03  0.47000000000E+01 0. -1.
        -11    1    4    4    0    0 -0.12148436987E+02  0.10572768145E+03 -0.20532595589E+03  0.23126754054E+03  0.00000000000E+00 0.  1.
         12    1    4    4    0    0  0.28156275725E+02  0.24537627777E+02 -0.18384115276E+03  0.18759648315E+03  0.00000000000E+00 0. -1.
         -5    1    5    5    0  501 -0.87239562535E+01 -0.14048856586E+03  0.94155028557E+03  0.95202530156E+03  0.47000000000E+01 0.  1.
         11    1    6    6    0    0 -0.22099215716E+02 -0.12542372376E+03  0.45761923780E+03  0.47501037107E+03  0.00000000000E+00 0. -1.
        -12    1    6    6    0    0 -0.35968922814E+02 -0.14326679610E+02  0.70438902223E+02  0.80378206645E+02  0.00000000000E+00 0.  1.
</event>
<event>
12    1  0.1081556E+000  0.5101445E+03  0.7818608E-02  0.1011164E+00
         -1   -1    0    0    0  501 -0.00000000000E+00  0.00000000000E+00  0.54065644861E+03  0.54065644861E+03  0.00000000000E+00 0.  1.
          1   -1    0    0  502    0  0.00000000000E+00 -0.00000000000E+00 -0.10632298847E+04  0.10632298847E+04  0.00000000000E+00 0. -1.
          6    2    1    2  502    0 -0.17602650813E+03 -0.44691933545E+03  0.33196994078E+03  0.60865887492E+03  0.17187018494E+03 0.  0.
         24    2    3    3    0    0 -0.15179921283E+03 -0.20244734620E+03  0.17219884054E+03  0.31556774602E+03  0.76828592647E+02 0.  0.
         -6    2    1    2    0  501  0.17602650813E+03  0.44691933545E+03 -0.85454337684E+03  0.99522745837E+03  0.17178791293E+03 0.  0.
        -24    2    5    5    0    0  0.98971642920E+02  0.24079608155E+03 -0.33828176462E+03  0.43400344756E+03  0.78398349686E+02 0.  0.
          5    1    3    3  502    0 -0.24227295298E+02 -0.24447198924E+03  0.15977110024E+03  0.29309112889E+03  0.47000000000E+01 0. -1.
        -11    1    4    4    0    0 -0.75519935942E+01 -0.47833338266E+02  0.56917437211E+02  0.74730552758E+02  0.00000000000E+00 0.  1.
         12    1    4    4    0    0 -0.14424721923E+03 -0.15461400794E+03  0.11528140333E+03  0.24083719326E+03  0.00000000000E+00 0. -1.
         -5    1    5    5    0  501  0.77054865206E+02  0.20612325390E+03 -0.51626161222E+03  0.56122401080E+03  0.47000000000E+01 0.  1.
         11    1    6    6    0    0  0.47893452537E+02  0.14918666602E+03 -0.25826980614E+03  0.30208233460E+03  0.00000000000E+00 0. -1.
        -12    1    6    6    0    0  0.51078190382E+02  0.91609415528E+02 -0.80011958479E+02  0.13192111296E+03  0.00000000000E+00 0.  1.
</event>
<event>
12    1  0.1081556E+000  0.3252888E+03  0.7818608E-02  0.1073241E+00
          2   -1    0    0  502    0  0.00000000000E+00  0.00000000000E+00  0.13171784861E+04  0.13171784861E+04  0.00000000000E+00 0. -1.
         -2   -1    0    0    0  501 -0.00000000000E+00 -0.00000000000E+00 -0.16045833825E+03  0.16045833825E+03  0.00000000000E+00 0.  1.
          6    2    1    2  502    0 -0.22726297755E+03 -0.14637156856E+03  0.60868351733E+02  0.33594215623E+03  0.18994493687E+03 0.  0.
         24    2    3    3    0    0 -0.24994756991E+02 -0.80866537647E+01  0.11423970092E+02  0.85938181092E+02  0.81023033951E+02 0.  0.
         -6    2    1    2    0  501  0.22726297755E+03  0.14637156856E+03  0.10958517961E+04  0.11416946681E+04  0.17176279896E+03 0.  0.
        -24    2    5    5    0    0  0.20000532981E+03  0.17326927857E+03  0.89970982493E+03  0.94179412028E+03  0.86452420848E+02 0.  0.
          5    1    3    3  502    0 -0.20226822056E+03 -0.13828491479E+03  0.49444381642E+02  0.25000397514E+03  0.47000000000E+01 0. -1.
        -11    1    4    4    0    0 -0.84541968847E+01  0.82017880350E+01 -0.33423710471E+02  0.35438498749E+02  0.00000000000E+00 0.  1.
         12    1    4    4    0    0 -0.16540560106E+02 -0.16288441800E+02  0.44847680563E+02  0.50499682343E+02  0.00000000000E+00 0. -1.
         -5    1    5    5    0  501  0.27257647746E+02 -0.26897710017E+02  0.19614197115E+03  0.19990054780E+03  0.47000000000E+01 0.  1.
         11    1    6    6    0    0  0.12685391441E+03  0.53599881560E+02  0.47147831123E+03  0.49117884814E+03  0.00000000000E+00 0. -1.
        -12    1    6    6    0    0  0.73151415396E+02  0.11966939701E+03  0.42823151370E+03  0.45061527213E+03  0.00000000000E+00 0.  1.
</event>
<event>
12    1  0.1081556E+000  0.2528388E+03  0.7818608E-02  0.1111524E+00
          1   -1    0    0  502    0  0.00000000000E+00  0.00000000000E+00  0.62722668207E+03  0.62722668207E+03  0.00000000000E+00 0. -1.
         -1   -1    0    0    0  501 -0.00000000000E+00 -0.00000000000E+00 -0.12121936014E+03  0.12121936014E+03  0.00000000000E+00 0.  1.
          6    2    1    2  502    0 -0.16494977757E+03  0.82499984015E+02  0.10380086011E+03  0.27344142139E+03  0.17314998092E+03 0.  0.
         24    2    3    3    0    0 -0.14248570092E+03  0.12088111027E+03  0.64299441904E+02  0.21377402969E+03  0.81550596302E+02 0.  0.
         -6    2    1    2    0  501  0.16494977757E+03 -0.82499984015E+02  0.40220646182E+03  0.47500462082E+03  0.17275611533E+03 0.  0.
        -24    2    5    5    0    0  0.39608973444E+02 -0.90568486388E+02  0.19289451753E+03  0.23085508071E+03  0.79462267116E+02 0.  0.
          5    1    3    3  502    0 -0.22464076648E+02 -0.38381126250E+02  0.39501418205E+02  0.59667391698E+02  0.47000000000E+01 0. -1.
        -13    1    4    4    0    0 -0.10113938775E+03  0.46123498790E+02  0.64153764951E+02  0.12834429654E+03  0.00000000000E+00 0.  1.
         14    1    4    4    0    0 -0.41346313164E+02  0.74757611475E+02  0.14567695381E+00  0.85429733158E+02  0.00000000000E+00 0. -1.
         -5    1    5    5    0  501  0.12534080412E+03  0.80685023733E+01  0.20931194430E+03  0.24414954011E+03  0.47000000000E+01 0.  1.
         11    1    6    6    0    0  0.49317209161E+02 -0.19747919989E+02  0.10401973649E+03  0.11680014145E+03  0.00000000000E+00 0. -1.
        -12    1    6    6    0    0 -0.97082357169E+01 -0.70820566399E+02  0.88874781032E+02  0.11405493926E+03  0.00000000000E+00 0.  1.
</event>
